
     Program PWSCF v.6.5 starts on 13Apr2021 at  0: 8:17 

     This program is part of the open-source Quantum ESPRESSO suite
     for quantum simulation of materials; please cite
         "P. Giannozzi et al., J. Phys.:Condens. Matter 21 395502 (2009);
         "P. Giannozzi et al., J. Phys.:Condens. Matter 29 465901 (2017);
          URL http://www.quantum-espresso.org", 
     in publications or presentations arising from this work. More details at
     http://www.quantum-espresso.org/quote

     Parallel version (MPI), running on    10 processors

     MPI processes distributed on     4 nodes
     R & G space division:  proc/nbgrp/npool/nimage =      10
     Reading input from YBCO_ecut80.pwi

     Current dimensions of program PWSCF are:
     Max number of different atomic species (ntypx) = 10
     Max number of k-points (npk) =  40000
     Max angular momentum in pseudopotentials (lmaxx) =  3
               file Y.pz-spn-rrkjus_psl.1.0.0.UPF: wavefunction(s)  4S renormalized
               file Ba.pz-spn-rrkjus_psl.1.0.0.UPF: wavefunction(s)  5S 6S renormalized
               file O.pz-rrkjus.UPF: wavefunction(s)  2S renormalized
               file Cu.pz-d-rrkjus.UPF: wavefunction(s)  3D renormalized

     Subspace diagonalization in iterative solution of the eigenvalue problem:
     one sub-group per band group will be used
     scalapack distributed-memory algorithm (size of sub-group:  3*  3 procs)

     Message from routine setup:
     using ibrav=0 with symmetry is DISCOURAGED, use correct ibrav instead
 
     Parallelization info
     --------------------
     sticks:   dense  smooth     PW     G-vecs:    dense   smooth      PW
     Min         412     137     38                60508    11641    1766
     Max         413     139     39                60515    11646    1773
     Sum        4127    1379    389               605107   116437   17707
 


     bravais-lattice index     =            0
     lattice parameter (alat)  =       7.2654  a.u.
     unit-cell volume          =    1204.4104 (a.u.)^3
     number of atoms/cell      =           13
     number of atomic types    =            4
     number of electrons       =       106.00
     number of Kohn-Sham states=           64
     kinetic-energy cutoff     =      80.0000  Ry
     charge density cutoff     =     960.0000  Ry
     convergence threshold     =      1.0E-06
     mixing beta               =       0.5000
     number of iterations used =            8  plain     mixing
     Exchange-correlation= SLA PZ NOGX NOGC
                           (   1   1   0   0   0   0   0)
     nstep                     =          300


     celldm(1)=   7.265373  celldm(2)=   0.000000  celldm(3)=   0.000000
     celldm(4)=   0.000000  celldm(5)=   0.000000  celldm(6)=   0.000000

     crystal axes: (cart. coord. in units of alat)
               a(1) = (   1.000000   0.000000   0.000000 )  
               a(2) = (   0.000000   1.021193   0.000000 )  
               a(3) = (   0.000000   0.000000   3.075338 )  

     reciprocal axes: (cart. coord. in units 2 pi/alat)
               b(1) = (  1.000000  0.000000  0.000000 )  
               b(2) = (  0.000000  0.979247  0.000000 )  
               b(3) = (  0.000000  0.000000  0.325168 )  


     PseudoPot. # 1 for Y  read from file:
     ./pseudo/Y.pz-spn-rrkjus_psl.1.0.0.UPF
     MD5 check sum: ea98a87c201a6887fec0b907919e69e1
     Pseudo is Ultrasoft + core correction, Zval = 11.0
     Generated using "atomic" code by A. Dal Corso v.6.2.2
     Using radial grid of 1223 points,  6 beta functions with: 
                l(1) =   0
                l(2) =   0
                l(3) =   1
                l(4) =   1
                l(5) =   2
                l(6) =   2
     Q(r) pseudized with 0 coefficients 


     PseudoPot. # 2 for Ba read from file:
     ./pseudo/Ba.pz-spn-rrkjus_psl.1.0.0.UPF
     MD5 check sum: 687b47877062a240b7e905a3e0e5c78b
     Pseudo is Ultrasoft + core correction, Zval = 10.0
     Generated using "atomic" code by A. Dal Corso v.6.2.2
     Using radial grid of 1251 points,  7 beta functions with: 
                l(1) =   0
                l(2) =   0
                l(3) =   0
                l(4) =   1
                l(5) =   1
                l(6) =   2
                l(7) =   2
     Q(r) pseudized with 0 coefficients 


     PseudoPot. # 3 for O  read from file:
     ./pseudo/O.pz-rrkjus.UPF
     MD5 check sum: 039abfcbbabbdfc0eb99fd57dcb11de2
     Pseudo is Ultrasoft, Zval =  6.0
     Generated by new atomic code, or converted to UPF format
     Using radial grid of 1269 points,  4 beta functions with: 
                l(1) =   0
                l(2) =   0
                l(3) =   1
                l(4) =   1
     Q(r) pseudized with 0 coefficients 


     PseudoPot. # 4 for Cu read from file:
     ./pseudo/Cu.pz-d-rrkjus.UPF
     MD5 check sum: 268b017640135c8b13c10cec7c6cb709
     Pseudo is Ultrasoft, Zval = 11.0
     Generated by new atomic code, or converted to UPF format
     Using radial grid of  899 points,  3 beta functions with: 
                l(1) =   2
                l(2) =   2
                l(3) =   1
     Q(r) pseudized with 0 coefficients 


     atomic species   valence    mass     pseudopotential
        Y             11.00    88.90585     Y ( 1.00)
        Ba            10.00   137.32700     Ba( 1.00)
        O              6.00    15.99900     O ( 1.00)
        Cu            11.00    63.55000     Cu( 1.00)

      8 Sym. Ops., with inversion, found



   Cartesian axes

     site n.     atom                  positions (alat units)
         1           Ba  tau(   1) = (   0.4999997   0.5105967   2.5199052  )
         2           Ba  tau(   2) = (   0.4999997   0.5105967   0.5554339  )
         3           Y   tau(   3) = (   0.4999997   0.5105967   1.5376696  )
         4           Cu  tau(   4) = (   0.0000000   0.0000000   1.9887540  )
         5           Cu  tau(   5) = (   0.0000000   0.0000000   1.0865848  )
         6           Cu  tau(   6) = (   0.0000000   0.0000000   0.0000000  )
         7           O   tau(   7) = (   0.0000000   0.5105967   0.0000000  )
         8           O   tau(   8) = (   0.4999997   0.0000000   1.9087183  )
         9           O   tau(   9) = (   0.4999997   0.0000000   1.1666205  )
        10           O   tau(  10) = (   0.0000000   0.5105967   1.9117875  )
        11           O   tau(  11) = (   0.0000000   0.5105967   1.1635516  )
        12           O   tau(  12) = (   0.0000000   0.0000000   2.5858066  )
        13           O   tau(  13) = (   0.0000000   0.0000000   0.4895325  )

     number of k points=    25  Gaussian smearing, width (Ry)=  0.0100
                       cart. coord. in units 2pi/alat
        k(    1) = (   0.0000000   0.0000000   0.0000000), wk =   0.0312500
        k(    2) = (   0.0000000   0.1224059   0.0000000), wk =   0.0625000
        k(    3) = (   0.0000000   0.2448117   0.0000000), wk =   0.0625000
        k(    4) = (   0.0000000   0.3672176   0.0000000), wk =   0.0625000
        k(    5) = (   0.0000000  -0.4896234   0.0000000), wk =   0.0312500
        k(    6) = (   0.1250000   0.0000000   0.0000000), wk =   0.0625000
        k(    7) = (   0.1250000   0.1224059   0.0000000), wk =   0.1250000
        k(    8) = (   0.1250000   0.2448117   0.0000000), wk =   0.1250000
        k(    9) = (   0.1250000   0.3672176   0.0000000), wk =   0.1250000
        k(   10) = (   0.1250000  -0.4896234   0.0000000), wk =   0.0625000
        k(   11) = (   0.2500000   0.0000000   0.0000000), wk =   0.0625000
        k(   12) = (   0.2500000   0.1224059   0.0000000), wk =   0.1250000
        k(   13) = (   0.2500000   0.2448117   0.0000000), wk =   0.1250000
        k(   14) = (   0.2500000   0.3672176   0.0000000), wk =   0.1250000
        k(   15) = (   0.2500000  -0.4896234   0.0000000), wk =   0.0625000
        k(   16) = (   0.3750000   0.0000000   0.0000000), wk =   0.0625000
        k(   17) = (   0.3750000   0.1224059   0.0000000), wk =   0.1250000
        k(   18) = (   0.3750000   0.2448117   0.0000000), wk =   0.1250000
        k(   19) = (   0.3750000   0.3672176   0.0000000), wk =   0.1250000
        k(   20) = (   0.3750000  -0.4896234   0.0000000), wk =   0.0625000
        k(   21) = (  -0.5000000   0.0000000   0.0000000), wk =   0.0312500
        k(   22) = (  -0.5000000   0.1224059   0.0000000), wk =   0.0625000
        k(   23) = (  -0.5000000   0.2448117   0.0000000), wk =   0.0625000
        k(   24) = (  -0.5000000   0.3672176   0.0000000), wk =   0.0625000
        k(   25) = (  -0.5000000  -0.4896234   0.0000000), wk =   0.0312500

     Dense  grid:   605107 G-vectors     FFT dimensions: (  72,  75, 225)

     Smooth grid:   116437 G-vectors     FFT dimensions: (  45,  45, 128)

     Estimated max dynamical RAM per process >     333.76 MB

     Estimated total dynamical RAM >       3.26 GB

     Initial potential from superposition of free atoms

     starting charge  105.96668, renormalised to  106.00000
     Starting wfcs are   69 randomized atomic wfcs

     total cpu time spent up to now is        8.0 secs

     Self-consistent Calculation

     iteration #  1     ecut=    80.00 Ry     beta= 0.50
     Davidson diagonalization with overlap
     ethr =  1.00E-02,  avg # of iterations =  5.0

     total cpu time spent up to now is       16.0 secs

     total energy              =    -693.31700372 Ry
     Harris-Foulkes estimate   =    -698.55625517 Ry
     estimated scf accuracy    <       7.75481100 Ry

     iteration #  2     ecut=    80.00 Ry     beta= 0.50
     Davidson diagonalization with overlap
     ethr =  7.32E-03,  avg # of iterations =  2.4

     negative rho (up, down):  1.561E-01 0.000E+00

     total cpu time spent up to now is       23.2 secs

     total energy              =    -693.59587651 Ry
     Harris-Foulkes estimate   =    -699.74880494 Ry
     estimated scf accuracy    <     852.99822382 Ry

     iteration #  3     ecut=    80.00 Ry     beta= 0.50
     Davidson diagonalization with overlap
     ethr =  7.32E-03,  avg # of iterations =  3.3

     negative rho (up, down):  3.102E-01 0.000E+00

     total cpu time spent up to now is       30.9 secs

     total energy              =    -683.21382641 Ry
     Harris-Foulkes estimate   =    -711.78709819 Ry
     estimated scf accuracy    <   24844.51654406 Ry

     iteration #  4     ecut=    80.00 Ry     beta= 0.50
     Davidson diagonalization with overlap
     ethr =  7.32E-03,  avg # of iterations =  4.0

     total cpu time spent up to now is       40.1 secs

     total energy              =    -672.84557862 Ry
     Harris-Foulkes estimate   =    -726.85050790 Ry
     estimated scf accuracy    <   44878.00141588 Ry

     iteration #  5     ecut=    80.00 Ry     beta= 0.50
     Davidson diagonalization with overlap
     ethr =  7.32E-03,  avg # of iterations =  3.1

     negative rho (up, down):  6.694E-03 0.000E+00

     total cpu time spent up to now is       48.3 secs

     total energy              =    -695.80472504 Ry
     Harris-Foulkes estimate   =    -698.60255097 Ry
     estimated scf accuracy    <      66.44361379 Ry

     iteration #  6     ecut=    80.00 Ry     beta= 0.50
     Davidson diagonalization with overlap
     ethr =  7.32E-03,  avg # of iterations =  4.0

     total cpu time spent up to now is       55.8 secs

     total energy              =    -693.47864185 Ry
     Harris-Foulkes estimate   =    -700.06554882 Ry
     estimated scf accuracy    <    1274.89630288 Ry

     iteration #  7     ecut=    80.00 Ry     beta= 0.50
     Davidson diagonalization with overlap
     ethr =  7.32E-03,  avg # of iterations =  3.9

     total cpu time spent up to now is       63.2 secs

     total energy              =    -696.89785128 Ry
     Harris-Foulkes estimate   =    -696.94488632 Ry
     estimated scf accuracy    <       7.31537403 Ry

     iteration #  8     ecut=    80.00 Ry     beta= 0.50
     Davidson diagonalization with overlap
     ethr =  6.90E-03,  avg # of iterations =  1.1

     total cpu time spent up to now is       68.8 secs

     total energy              =    -696.89399240 Ry
     Harris-Foulkes estimate   =    -696.91238928 Ry
     estimated scf accuracy    <       5.30059510 Ry

     iteration #  9     ecut=    80.00 Ry     beta= 0.50
     Davidson diagonalization with overlap
     ethr =  5.00E-03,  avg # of iterations =  1.0

     total cpu time spent up to now is       74.3 secs

     total energy              =    -696.85072118 Ry
     Harris-Foulkes estimate   =    -696.89955528 Ry
     estimated scf accuracy    <       3.11468646 Ry

     iteration # 10     ecut=    80.00 Ry     beta= 0.50
     Davidson diagonalization with overlap
     ethr =  2.94E-03,  avg # of iterations =  1.0

     total cpu time spent up to now is       79.8 secs

     total energy              =    -696.86833992 Ry
     Harris-Foulkes estimate   =    -696.87054552 Ry
     estimated scf accuracy    <       0.91773849 Ry

     iteration # 11     ecut=    80.00 Ry     beta= 0.50
     Davidson diagonalization with overlap
     ethr =  8.66E-04,  avg # of iterations =  1.3

     total cpu time spent up to now is       85.3 secs

     total energy              =    -696.86980328 Ry
     Harris-Foulkes estimate   =    -696.87103066 Ry
     estimated scf accuracy    <       0.78447186 Ry

     iteration # 12     ecut=    80.00 Ry     beta= 0.50
     Davidson diagonalization with overlap
     ethr =  7.40E-04,  avg # of iterations =  1.1

     total cpu time spent up to now is       90.7 secs

     total energy              =    -696.86898563 Ry
     Harris-Foulkes estimate   =    -696.87033005 Ry
     estimated scf accuracy    <       0.40292500 Ry

     iteration # 13     ecut=    80.00 Ry     beta= 0.50
     Davidson diagonalization with overlap
     ethr =  3.80E-04,  avg # of iterations =  1.6

     total cpu time spent up to now is       96.5 secs

     total energy              =    -696.86838414 Ry
     Harris-Foulkes estimate   =    -696.87032060 Ry
     estimated scf accuracy    <       0.43747232 Ry

     iteration # 14     ecut=    80.00 Ry     beta= 0.50
     Davidson diagonalization with overlap
     ethr =  3.80E-04,  avg # of iterations =  2.0

     total cpu time spent up to now is      102.4 secs

     total energy              =    -696.86054993 Ry
     Harris-Foulkes estimate   =    -696.87958220 Ry
     estimated scf accuracy    <      14.84841714 Ry

     iteration # 15     ecut=    80.00 Ry     beta= 0.50
     Davidson diagonalization with overlap
     ethr =  3.80E-04,  avg # of iterations =  2.0

     total cpu time spent up to now is      108.5 secs

     total energy              =    -696.86973556 Ry
     Harris-Foulkes estimate   =    -696.86992484 Ry
     estimated scf accuracy    <       0.03122893 Ry

     iteration # 16     ecut=    80.00 Ry     beta= 0.50
     Davidson diagonalization with overlap
     ethr =  2.95E-05,  avg # of iterations =  6.6

     total cpu time spent up to now is      116.2 secs

     total energy              =    -696.86984356 Ry
     Harris-Foulkes estimate   =    -696.86993313 Ry
     estimated scf accuracy    <       0.01875685 Ry

     iteration # 17     ecut=    80.00 Ry     beta= 0.50
     Davidson diagonalization with overlap
     ethr =  1.77E-05,  avg # of iterations =  1.9

     total cpu time spent up to now is      122.0 secs

     total energy              =    -696.86985384 Ry
     Harris-Foulkes estimate   =    -696.86987635 Ry
     estimated scf accuracy    <       0.01031308 Ry

     iteration # 18     ecut=    80.00 Ry     beta= 0.50
     Davidson diagonalization with overlap
     ethr =  9.73E-06,  avg # of iterations =  1.4

     total cpu time spent up to now is      127.5 secs

     total energy              =    -696.86986618 Ry
     Harris-Foulkes estimate   =    -696.86987262 Ry
     estimated scf accuracy    <       0.00016110 Ry

     iteration # 19     ecut=    80.00 Ry     beta= 0.50
     Davidson diagonalization with overlap
     ethr =  1.52E-07,  avg # of iterations =  4.0

     total cpu time spent up to now is      134.5 secs

     total energy              =    -696.86986874 Ry
     Harris-Foulkes estimate   =    -696.86987514 Ry
     estimated scf accuracy    <       0.00067358 Ry

     iteration # 20     ecut=    80.00 Ry     beta= 0.50
     Davidson diagonalization with overlap
     ethr =  1.52E-07,  avg # of iterations =  2.6

     total cpu time spent up to now is      140.6 secs

     total energy              =    -696.86987193 Ry
     Harris-Foulkes estimate   =    -696.86987270 Ry
     estimated scf accuracy    <       0.00026596 Ry

     iteration # 21     ecut=    80.00 Ry     beta= 0.50
     Davidson diagonalization with overlap
     ethr =  1.52E-07,  avg # of iterations =  1.0

     total cpu time spent up to now is      146.1 secs

     total energy              =    -696.86987229 Ry
     Harris-Foulkes estimate   =    -696.86987252 Ry
     estimated scf accuracy    <       0.00002846 Ry

     iteration # 22     ecut=    80.00 Ry     beta= 0.50
     Davidson diagonalization with overlap
     ethr =  2.68E-08,  avg # of iterations =  1.0

     total cpu time spent up to now is      151.5 secs

     total energy              =    -696.86987246 Ry
     Harris-Foulkes estimate   =    -696.86987258 Ry
     estimated scf accuracy    <       0.00001799 Ry

     iteration # 23     ecut=    80.00 Ry     beta= 0.50
     Davidson diagonalization with overlap
     ethr =  1.70E-08,  avg # of iterations =  1.0

     total cpu time spent up to now is      157.1 secs

     total energy              =    -696.86987246 Ry
     Harris-Foulkes estimate   =    -696.86987254 Ry
     estimated scf accuracy    <       0.00002471 Ry

     iteration # 24     ecut=    80.00 Ry     beta= 0.50
     Davidson diagonalization with overlap
     ethr =  1.70E-08,  avg # of iterations =  1.0

     total cpu time spent up to now is      162.7 secs

     total energy              =    -696.86987246 Ry
     Harris-Foulkes estimate   =    -696.86987250 Ry
     estimated scf accuracy    <       0.00001891 Ry

     iteration # 25     ecut=    80.00 Ry     beta= 0.50
     Davidson diagonalization with overlap
     ethr =  1.70E-08,  avg # of iterations =  1.0

     total cpu time spent up to now is      168.4 secs

     total energy              =    -696.86987241 Ry
     Harris-Foulkes estimate   =    -696.86987249 Ry
     estimated scf accuracy    <       0.00001229 Ry

     iteration # 26     ecut=    80.00 Ry     beta= 0.50
     Davidson diagonalization with overlap
     ethr =  1.16E-08,  avg # of iterations =  1.0

     total cpu time spent up to now is      174.0 secs

     total energy              =    -696.86987242 Ry
     Harris-Foulkes estimate   =    -696.86987246 Ry
     estimated scf accuracy    <       0.00000862 Ry

     iteration # 27     ecut=    80.00 Ry     beta= 0.50
     Davidson diagonalization with overlap
     ethr =  8.13E-09,  avg # of iterations =  3.0

     total cpu time spent up to now is      180.3 secs

     total energy              =    -696.86987233 Ry
     Harris-Foulkes estimate   =    -696.86987263 Ry
     estimated scf accuracy    <       0.00005064 Ry

     iteration # 28     ecut=    80.00 Ry     beta= 0.50
     Davidson diagonalization with overlap
     ethr =  8.13E-09,  avg # of iterations =  3.0

     total cpu time spent up to now is      186.5 secs

     End of self-consistent calculation

          k = 0.0000 0.0000 0.0000 ( 14611 PWs)   bands (ev):

   -31.3912 -16.1981 -16.1747 -11.8906 -11.4417 -11.4211  -8.4003  -7.5025
    -7.4715  -7.2125  -6.9334  -6.5349  -6.4562  -1.3817  -1.3378  -1.1673
    -1.1406  -1.0269  -0.9801   4.5780   4.6207   4.6299   4.7968   4.8766
     4.9281   5.7522   5.8767   5.9311   5.9954   6.2171   6.5709   6.5868
     6.6039   6.7232   6.7370   6.7812   6.8979   6.9828   7.0603   7.0924
     7.3877   7.4942   7.6513   7.8006   7.8385   7.8418   8.0613   8.0993
     8.4653   8.5165   8.6713   8.8573   8.8773   9.0229   9.0396  11.9459
    12.6580  13.4678  13.5447  14.3018  14.5991  15.0608  15.3367  15.6565

          k = 0.0000 0.1224 0.0000 ( 14579 PWs)   bands (ev):

   -31.3896 -16.1831 -16.1601 -11.8631 -11.5244 -11.4188  -8.2949  -7.5198
    -7.4345  -7.1988  -6.9567  -6.5888  -6.5217  -1.3847  -1.3241  -1.1588
    -1.1198  -0.9984  -0.9506   4.4870   4.5366   4.6759   4.7295   4.8862
     4.9165   5.3407   5.7155   5.7971   6.0060   6.1735   6.3841   6.3937
     6.4724   6.5147   6.7422   6.7641   7.0086   7.0559   7.1092   7.1384
     7.5771   7.5797   7.6132   7.6615   7.8027   7.8904   8.1237   8.2049
     8.4487   8.5771   8.6666   8.7808   8.9412   9.1232   9.2705  12.2837
    12.8236  13.7768  13.7817  14.4338  14.5752  15.2916  15.5359  15.7624

          k = 0.0000 0.2448 0.0000 ( 14547 PWs)   bands (ev):

   -31.3857 -16.1465 -16.1244 -11.7942 -11.7068 -11.4131  -8.0415  -7.5913
    -7.3454  -7.1784  -6.9860  -6.7153  -6.6792  -1.3773  -1.2894  -1.1396
    -1.0803  -0.9276  -0.8771   4.1391   4.2931   4.4673   4.6666   4.8099
     4.9189   5.0692   5.3241   5.7499   5.9867   6.0185   6.0681   6.0781
     6.2246   6.3803   6.7355   6.7505   6.8616   6.8725   7.0849   7.2170
     7.4234   7.7421   7.7786   7.8179   7.9742   7.9930   8.1389   8.3342
     8.4011   8.5849   8.6147   8.7350   8.8379   9.2546  10.0797  13.0774
    13.2142  14.3755  14.5819  14.6458  15.5904  15.7427  15.9537  16.0698

          k = 0.0000 0.3672 0.0000 ( 14541 PWs)   bands (ev):

   -31.3819 -16.1092 -16.0880 -11.8705 -11.7214 -11.4075  -7.7609  -7.6996
    -7.3105  -7.1313  -6.9817  -6.8496  -6.8376  -1.3514  -1.2532  -1.1225
    -1.0539  -0.8539  -0.8005   3.7459   3.9396   4.0200   4.6073   4.9734
     5.0071   5.0165   5.1584   5.6855   5.7505   5.7961   5.9317   5.9558
     6.0154   6.2875   6.4620   6.5660   6.7667   6.9093   7.0065   7.2902
     7.5014   7.6929   7.8245   7.8518   7.8986   8.1335   8.3954   8.4551
     8.5651   8.5755   8.5914   8.6555   8.9409   9.2279  10.6663  13.5327
    14.0267  14.4687  14.5577  15.1858  15.4082  15.4740  15.5566  16.2759

          k = 0.0000-0.4896 0.0000 ( 14542 PWs)   bands (ev):

   -31.3803 -16.0936 -16.0728 -11.9339 -11.6900 -11.4051  -7.7526  -7.6005
    -7.3709  -7.0255  -6.9783  -6.9725  -6.8876  -1.3350  -1.2379  -1.1161
    -1.0472  -0.8224  -0.7677   3.5571   3.7848   3.9035   4.5922   4.8888
     5.0081   5.1604   5.1978   5.4573   5.6822   5.8433   5.8701   5.9410
     5.9416   6.2124   6.2514   6.5466   6.7480   6.8184   7.0924   7.3068
     7.4069   7.8198   7.8303   7.8721   7.9126   8.1102   8.4223   8.5026
     8.5436   8.5622   8.6678   8.7766   9.0626   9.0889  10.8631  13.7659
    14.1379  14.4482  15.0256  15.2029  15.2787  15.5429  15.8666  16.2796

          k = 0.1250 0.0000 0.0000 ( 14563 PWs)   bands (ev):

   -31.3891 -16.1797 -16.1575 -11.8595 -11.5143 -11.4387  -8.2951  -7.4996
    -7.4948  -7.1831  -6.9845  -6.5857  -6.4676  -1.4110  -1.3693  -1.1335
    -1.1074  -1.0005  -0.9858   4.4421   4.5020   4.6647   4.6780   4.9398
     4.9398   5.8139   5.8489   5.8948   5.9331   6.1315   6.3968   6.4164
     6.4315   6.7249   6.7426   6.8181   6.9709   7.0941   7.0957   7.1548
     7.2879   7.5393   7.5555   7.6363   7.7368   7.8521   8.1081   8.1507
     8.4250   8.6852   8.7548   8.7595   8.8596   8.9082   9.0035  12.2650
    12.8322  13.7439  13.8613  14.5547  14.5587  15.3731  15.5786  15.7494

          k = 0.1250 0.1224 0.0000 ( 14574 PWs)   bands (ev):

   -31.3875 -16.1653 -16.1434 -11.8324 -11.5249 -11.5068  -8.1905  -7.5050
    -7.4589  -7.1683  -7.0121  -6.6251  -6.5229  -1.3963  -1.3686  -1.2114
    -1.2034  -0.9145  -0.9039   4.3623   4.4927   4.6204   4.6807   4.7599
     5.0111   5.3329   5.6665   5.8884   5.9483   6.0440   6.1550   6.1782
     6.4938   6.6621   6.7655   6.8134   6.9643   6.9987   7.0269   7.1804
     7.5350   7.6046   7.6166   7.7195   7.8057   7.8183   7.9290   8.2141
     8.4495   8.6259   8.8330   8.8796   9.0048   9.1647   9.3067  12.5342
    12.9639  14.0390  14.0862  14.4510  14.6513  15.5002  15.7029  15.7764

          k = 0.1250 0.2448 0.0000 ( 14564 PWs)   bands (ev):

   -31.3837 -16.1300 -16.1089 -11.7646 -11.7019 -11.5030  -7.9392  -7.5626
    -7.3537  -7.1479  -7.0484  -6.7193  -6.6623  -1.3756  -1.3629  -1.2683
    -1.2443  -0.8712  -0.8510   4.0421   4.2822   4.4749   4.6392   4.6726
     4.6963   5.1531   5.3168   5.6854   5.7485   5.8812   5.9894   6.0581
     6.1966   6.5165   6.8154   6.8400   6.8833   6.9657   6.9769   7.1466
     7.5290   7.6189   7.7586   7.8420   8.0263   8.1207   8.1649   8.2109
     8.3802   8.4703   8.8701   9.0509   9.1173   9.4398  10.0837  13.1534
    13.3395  14.2945  14.5488  14.7824  14.8339  15.7267  15.7438  15.9067

          k = 0.1250 0.3672 0.0000 ( 14569 PWs)   bands (ev):

   -31.3799 -16.0941 -16.0739 -11.8642 -11.6930 -11.4959  -7.6630  -7.6592
    -7.2712  -7.1233  -7.0446  -6.8274  -6.8133  -1.3562  -1.3206  -1.2574
    -1.2096  -0.9052  -0.8986   3.6857   3.8985   3.9955   4.5841   4.7180
     4.8145   5.0808   5.2129   5.3902   5.3984   5.8765   5.9324   5.9977
     6.0244   6.2851   6.7697   6.7779   6.8311   6.8715   7.1294   7.2110
     7.5083   7.6897   7.8669   7.9081   7.9861   8.2250   8.3150   8.4216
     8.4979   8.6255   8.7802   9.0480   9.2062   9.5209  10.6454  13.4826
    13.9492  14.1473  14.6691  15.3643  15.4203  15.6647  15.9084  16.3281

          k = 0.1250-0.4896 0.0000 ( 14574 PWs)   bands (ev):

   -31.3783 -16.0790 -16.0592 -11.9272 -11.6621 -11.4929  -7.7138  -7.4881
    -7.3284  -7.0345  -6.9983  -6.9777  -6.8523  -1.3322  -1.2981  -1.2336
    -1.1712  -0.9582  -0.9440   3.5254   3.7081   3.8711   4.5690   4.7387
     4.9138   5.0222   5.1861   5.2242   5.2776   5.8765   5.9063   5.9476
     6.0487   6.1804   6.7353   6.7501   6.8002   6.8295   7.1274   7.3183
     7.5898   7.6244   7.9001   7.9136   7.9501   8.2264   8.3886   8.4863
     8.6385   8.7299   8.7470   9.0489   9.2046   9.4994  10.8324  13.7088
    13.9072  14.0546  15.2072  15.2116  15.6072  15.7220  16.0205  16.4363

          k = 0.2500 0.0000 0.0000 ( 14541 PWs)   bands (ev):

   -31.3842 -16.1347 -16.1156 -11.7813 -11.7186 -11.4317  -8.0496  -7.5794
    -7.5116  -7.1238  -7.0758  -6.7057  -6.4839  -1.5131  -1.3357  -1.0491
    -1.0428  -1.0247  -0.9624   4.0396   4.1745   4.6221   4.7900   4.9823
     5.0285   5.7592   5.7625   5.7938   5.8163   5.9319   6.0663   6.0950
     6.4015   6.7002   6.7664   6.7817   6.8215   6.9268   7.1506   7.1990
     7.1995   7.4386   7.5498   7.8306   7.8641   7.8951   8.0093   8.2675
     8.4791   8.5559   8.5950   8.6693   8.7073   8.9099   9.2159  12.9234
    13.2897  14.4706  14.4784  14.5881  15.1090  15.7392  16.0506  16.0794

          k = 0.2500 0.1224 0.0000 ( 14581 PWs)   bands (ev):

   -31.3827 -16.1216 -16.1027 -11.7553 -11.7145 -11.5109  -7.9473  -7.5282
    -7.4992  -7.1190  -7.1044  -6.7126  -6.5185  -1.5132  -1.3293  -1.2868
    -1.2254  -0.9004  -0.8849   3.9587   4.1692   4.6094   4.6978   4.7712
     5.0837   5.3220   5.5620   5.6675   5.7351   5.8556   5.9309   6.0904
     6.4528   6.4909   6.8415   6.8685   6.9302   6.9595   7.0141   7.1514
     7.4027   7.5384   7.6033   7.8522   7.8980   8.0118   8.1119   8.1507
     8.4134   8.4449   8.7968   8.9994   9.0427   9.3874   9.4146  13.0379
    13.3775  14.2735  14.7488  14.7746  14.9831  15.6955  15.8223  16.0309

          k = 0.2500 0.2448 0.0000 ( 14572 PWs)   bands (ev):

   -31.3789 -16.0896 -16.0713 -11.7105 -11.6903 -11.6811  -7.7040  -7.5016
    -7.3864  -7.1926  -7.0715  -6.7308  -6.6191  -1.5450  -1.5047  -1.3630
    -1.3121  -0.9698  -0.9475   3.6699   4.0810   4.4767   4.5032   4.5063
     4.6490   5.1673   5.2169   5.3070   5.4189   5.9047   5.9459   6.0780
     6.1791   6.4760   6.5327   6.8225   6.9778   7.1144   7.3310   7.3891
     7.4381   7.7576   7.8693   7.9610   8.0340   8.1004   8.3008   8.3165
     8.3881   8.4580   8.9123   9.1039   9.7003   9.9124  10.0964  13.0876
    13.6842  14.0299  14.6902  15.3794  15.5145  15.6206  15.9160  16.0192

          k = 0.2500 0.3672 0.0000 ( 14533 PWs)   bands (ev):

   -31.3751 -16.0572 -16.0393 -11.8491 -11.6918 -11.6218  -7.5720  -7.4365
    -7.1993  -7.1961  -7.0787  -6.7707  -6.7529  -1.5678  -1.5644  -1.3993
    -1.3037  -1.1779  -1.1131   3.3286   3.8245   3.9016   4.3912   4.4629
     4.6234   4.7834   4.9750   5.3300   5.3938   5.8462   5.9821   5.9987
     6.0573   6.2604   6.4406   6.8633   7.0001   7.2856   7.5190   7.5725
     7.7009   7.8146   7.9984   8.0397   8.2417   8.3066   8.3198   8.4444
     8.5894   8.6003   8.8488   9.1104  10.0543  10.2139  10.5861  12.9525
    13.6021  14.1993  15.1124  15.2278  15.7019  15.9316  16.1100  16.2676

          k = 0.2500-0.4896 0.0000 ( 14540 PWs)   bands (ev):

   -31.3735 -16.0435 -16.0260 -11.9110 -11.6878 -11.5923  -7.6174  -7.2319
    -7.2194  -7.1860  -6.9786  -6.9326  -6.7636  -1.5126  -1.4644  -1.4479
    -1.4377  -1.2534  -1.2048   3.1867   3.6812   3.6904   4.3716   4.4834
     4.6135   4.6374   4.8877   5.3092   5.4020   5.8660   5.9314   5.9348
     6.1139   6.1550   6.4204   6.8762   7.0194   7.3081   7.5541   7.7503
     7.8510   7.8783   8.0258   8.0586   8.1326   8.3187   8.4561   8.5898
     8.6759   8.7068   8.7694   9.0579  10.1502  10.2884  10.7410  12.8806
    13.5441  14.2112  15.0243  15.6476  15.8247  16.0683  16.1225  16.4008

          k = 0.3750 0.0000 0.0000 ( 14584 PWs)   bands (ev):

   -31.3793 -16.0886 -16.0728 -11.9009 -11.6981 -11.4245  -7.8002  -7.6721
    -7.5983  -7.1008  -7.0917  -6.8236  -6.4854  -1.5686  -1.2943  -1.0784
    -0.9870  -0.9605  -0.9380   3.6800   3.8398   4.6162   4.9688   5.0186
     5.0634   5.5850   5.6458   5.6693   5.7216   5.7562   5.7878   5.8875
     6.3378   6.4512   6.6119   6.6814   6.8167   7.0745   7.0787   7.1894
     7.2250   7.4407   7.5893   7.7631   7.9542   8.0151   8.2772   8.3157
     8.4733   8.4735   8.5029   8.5133   8.6680   8.9714   9.2493  13.3678
    13.9723  14.3938  15.1137  15.3501  15.6129  15.8765  15.9507  16.1296

          k = 0.3750 0.1224 0.0000 ( 14556 PWs)   bands (ev):

   -31.3778 -16.0769 -16.0612 -11.8955 -11.6734 -11.5022  -7.7040  -7.6055
    -7.5677  -7.1547  -7.0659  -6.8016  -6.5038  -1.5662  -1.3035  -1.2598
    -1.1949  -0.9814  -0.9669   3.5790   3.8156   4.5963   4.8135   4.8524
     5.0955   5.2948   5.3326   5.3567   5.4932   5.7310   5.9720   6.0056
     6.3084   6.4017   6.7694   6.8094   6.8919   7.0394   7.1204   7.2514
     7.2653   7.4531   7.7604   7.8761   7.9687   8.0953   8.2990   8.3196
     8.3845   8.4408   8.6159   8.9216   9.1010   9.4232   9.4952  13.2537
    13.9776  14.1666  15.0942  15.4171  15.5754  15.8148  16.0287  16.2795

          k = 0.3750 0.2448 0.0000 ( 14568 PWs)   bands (ev):

   -31.3740 -16.0484 -16.0329 -11.8827 -11.6755 -11.6115  -7.4966  -7.4903
    -7.4106  -7.2821  -7.0084  -6.7471  -6.5715  -1.6045  -1.5873  -1.4387
    -1.2873  -1.2084  -1.1640   3.2616   3.6987   4.4247   4.5250   4.5474
     4.6548   4.7538   5.0188   5.3412   5.3718   5.9214   5.9262   6.0912
     6.1474   6.2265   6.4613   6.8945   7.1988   7.2329   7.4634   7.5016
     7.6893   7.6903   7.9328   8.0727   8.2305   8.2926   8.3300   8.3951
     8.4454   8.4805   8.8529   8.9765   9.9798  10.1165  10.1826  12.8235
    13.5523  14.3583  15.1428  15.5857  15.6059  15.8458  16.2162  16.2598

          k = 0.3750 0.3672 0.0000 ( 14520 PWs)   bands (ev):

   -31.3703 -16.0195 -16.0043 -11.8701 -11.8325 -11.5464  -7.4776  -7.3570
    -7.2520  -7.1633  -6.9729  -6.7088  -6.6917  -1.7876  -1.7409  -1.5427
    -1.5208  -1.3855  -1.2572   2.8938   3.4612   3.9347   4.2874   4.3402
     4.3558   4.6279   4.8804   5.3359   5.5330   5.7570   5.9747   6.0189
     6.0912   6.1514   6.2445   6.9424   7.2880   7.5998   7.7761   7.8594
     7.8653   8.1236   8.1400   8.2481   8.2683   8.3035   8.4948   8.5684
     8.6168   8.6885   8.8463   9.1517  10.5113  10.6157  10.7174  12.3730
    13.2759  14.4997  15.0973  15.5082  15.6453  15.7909  15.9530  16.2301

          k = 0.3750-0.4896 0.0000 ( 14494 PWs)   bands (ev):

   -31.3687 -16.0075 -15.9923 -11.8947 -11.8638 -11.5184  -7.5164  -7.3409
    -7.0980  -7.0079  -6.9666  -6.8690  -6.6686  -1.7874  -1.7845  -1.7519
    -1.5919  -1.4400  -1.2513   2.7391   3.3327   3.7126   4.2183   4.2502
     4.2963   4.6218   4.8407   5.3301   5.6108   5.6866   5.9115   5.9936
     6.0781   6.1110   6.2352   6.9524   7.3160   7.7613   7.9039   7.9308
     8.0427   8.1711   8.2322   8.2658   8.3826   8.4067   8.5101   8.6209
     8.6743   8.7041   9.0082   9.1631  10.6156  10.8195  10.9004  12.1999
    13.2056  14.5196  14.8359  15.5130  15.6692  15.7503  16.0411  16.4025

          k =-0.5000 0.0000 0.0000 ( 14536 PWs)   bands (ev):

   -31.3773 -16.0692 -16.0548 -11.9714 -11.6620 -11.4216  -7.7249  -7.6771
    -7.6523  -7.0938  -7.0926  -6.8722  -6.4822  -1.5836  -1.2734  -1.0930
    -1.0054  -0.9225  -0.9009   3.5416   3.7020   4.6244   4.9778   5.0879
     5.1262   5.5266   5.5851   5.5876   5.6113   5.6118   5.6488   6.0208
     6.2168   6.2832   6.6054   6.6758   6.8137   7.0649   7.1766   7.1782
     7.2232   7.4518   7.4947   7.9220   7.9853   8.0532   8.2345   8.2882
     8.4004   8.4412   8.4979   8.6262   8.7202   8.9879   9.1842  13.5203
    14.3434  14.3647  15.2506  15.7722  15.8092  15.8613  15.9394  16.1572

          k =-0.5000 0.1224 0.0000 ( 14574 PWs)   bands (ev):

   -31.3757 -16.0581 -16.0437 -11.9657 -11.6378 -11.4986  -7.6584  -7.6180
    -7.5761  -7.1482  -7.0641  -6.8392  -6.4949  -1.5767  -1.2744  -1.2195
    -1.1073  -1.0880  -1.0593   3.4321   3.6692   4.5945   4.8621   5.0123
     5.0936   5.1390   5.1422   5.2733   5.4743   5.6862   5.9000   6.0957
     6.2470   6.3700   6.7205   6.7495   6.9082   7.0641   7.1148   7.2298
     7.3685   7.4575   7.7292   7.9491   8.0251   8.1047   8.2134   8.3542
     8.4290   8.4693   8.6955   8.8823   9.0920   9.4245   9.4605  13.2943
    13.9637  14.4200  15.3807  15.4694  15.8818  16.0491  16.0737  16.2711

          k =-0.5000 0.2448 0.0000 ( 14556 PWs)   bands (ev):

   -31.3720 -16.0311 -16.0168 -11.9519 -11.6706 -11.5774  -7.5328  -7.4727
    -7.3452  -7.2811  -6.9935  -6.7557  -6.5499  -1.5752  -1.5172  -1.4364
    -1.4316  -1.3404  -1.2511   3.0992   3.5331   4.4212   4.5305   4.5781
     4.6050   4.6734   4.9111   5.3270   5.3567   5.9242   5.9989   6.0688
     6.1154   6.1698   6.4310   6.9244   7.2414   7.3463   7.5091   7.5272
     7.6544   7.8313   8.0031   8.1381   8.1699   8.3129   8.3320   8.4084
     8.6261   8.6684   8.6690   8.8625  10.0396  10.1261  10.2405  12.6824
    13.4512  14.5896  15.4807  15.5955  15.7310  15.7994  16.1575  16.2583

          k =-0.5000 0.3672 0.0000 ( 14514 PWs)   bands (ev):

   -31.3683 -16.0038 -15.9896 -11.9380 -11.8270 -11.5138  -7.4440  -7.4164
    -7.2110  -7.1286  -6.9199  -6.6806  -6.6663  -1.8072  -1.7825  -1.7465
    -1.5560  -1.5389  -1.2450   2.7159   3.2888   3.9489   4.1985   4.2638
     4.3310   4.6342   4.8450   5.3212   5.5246   5.8368   5.9155   5.9806
     6.0973   6.1760   6.1827   6.9673   7.4487   7.6767   7.8638   7.9566
     7.9768   8.1149   8.1925   8.3028   8.3932   8.5221   8.5348   8.5417
     8.5438   8.6926   8.9964   9.0594  10.4806  10.7917  10.8846  12.1443
    13.1621  14.7067  15.0581  15.3714  15.5636  15.8196  16.0101  16.2272

          k =-0.5000-0.4896 0.0000 ( 14508 PWs)   bands (ev):

   -31.3667 -15.9923 -15.9782 -11.9323 -11.8880 -11.4864  -7.4732  -7.4062
    -7.0423  -6.9941  -6.8872  -6.8446  -6.6272  -1.9260  -1.9007  -1.8701
    -1.6403  -1.5410  -1.2397   2.5541   3.1607   3.7271   4.0668   4.2197
     4.2688   4.6306   4.8222   5.3157   5.6118   5.7717   5.8291   5.9546
     6.0740   6.1061   6.2210   6.9775   7.4848   7.8833   7.9801   8.0742
     8.0844   8.2999   8.3088   8.3547   8.3784   8.4355   8.6256   8.6513
     8.6614   8.6994   9.1311   9.2473  10.5555  11.0483  11.1265  11.9438
    13.0909  14.7294  14.7633  15.3378  15.4859  15.5115  15.9072  16.4368

     the Fermi energy is     9.2821 ev

!    total energy              =    -696.86987226 Ry
     Harris-Foulkes estimate   =    -696.86987246 Ry
     estimated scf accuracy    <       0.00000043 Ry

     The total energy is the sum of the following terms:

     one-electron contribution =    -214.89265839 Ry
     hartree contribution      =     189.82007823 Ry
     xc contribution           =    -148.54076767 Ry
     ewald contribution        =    -523.25327088 Ry
     smearing contrib. (-TS)   =      -0.00325354 Ry

     convergence has been achieved in  28 iterations

     Forces acting on atoms (cartesian axes, Ry/au):

     atom    1 type  2   force =     0.00000000    0.00000000   -0.00996585
     atom    2 type  2   force =     0.00000000    0.00000000    0.00996585
     atom    3 type  1   force =     0.00000000    0.00000000    0.00000000
     atom    4 type  4   force =     0.00000000    0.00000000    0.00068623
     atom    5 type  4   force =     0.00000000    0.00000000   -0.00068623
     atom    6 type  4   force =     0.00000000    0.00000000    0.00000000
     atom    7 type  3   force =     0.00000000    0.00000000    0.00000000
     atom    8 type  3   force =     0.00000000    0.00000000   -0.00332402
     atom    9 type  3   force =     0.00000000    0.00000000    0.00332402
     atom   10 type  3   force =     0.00000000    0.00000000   -0.00439302
     atom   11 type  3   force =     0.00000000    0.00000000    0.00439302
     atom   12 type  3   force =     0.00000000    0.00000000    0.00764554
     atom   13 type  3   force =     0.00000000    0.00000000   -0.00764554

     Total force =     0.019421     Total SCF correction =     0.000181


     Computing stress (Cartesian axis) and pressure

          total   stress  (Ry/bohr**3)                   (kbar)     P=      -95.22
  -0.00063804   0.00000000   0.00000000          -93.86        0.00        0.00
   0.00000000  -0.00068887   0.00000000            0.00     -101.34        0.00
   0.00000000   0.00000000  -0.00061504            0.00        0.00      -90.47


     BFGS Geometry Optimization

     number of scf cycles    =   1
     number of bfgs steps    =   0

     enthalpy new            =    -696.8698722591 Ry

     new trust radius        =       0.1195348745 bohr
     new conv_thr            =       0.0000010000 Ry

     new unit-cell volume =   1146.87813 a.u.^3 (   169.94980 Ang^3 )
     density =      6.50931 g/cm^3

CELL_PARAMETERS (angstrom)
   3.783344074   0.000000000   0.000000000
   0.000000000   3.858534809   0.000000000
   0.000000000   0.000000000  11.641860787

ATOMIC_POSITIONS (angstrom)
Ba            1.8916710530        1.9292683873        9.5340466942
Ba            1.8916710530        1.9292683873        2.1078180317
Y             1.8916710530        1.9292683873        5.8209323630
Cu            0.0000000000        0.0000000000        7.5288949686
Cu            0.0000000000        0.0000000000        4.1129687728
Cu            0.0000000000        0.0000000000        0.0000000000
O             0.0000000000        1.9292683873        0.0000000000
O             1.8916710530        0.0000000000        7.2238257939
O             1.8916710530        0.0000000000        4.4180379474
O             0.0000000000        1.9292683873        7.2348873661
O             0.0000000000        1.9292683873        4.4069773599
O             0.0000000000        0.0000000000        9.7926961761
O             0.0000000000        0.0000000000        1.8491685499



     Writing output data file /n/holyscratch01/hoffman_lab/ruizhe/outdir/YBCO_ecut80.save/
     NEW-OLD atomic charge density approx. for the potential
     extrapolated charge  100.68426, renormalised to  106.00000

     total cpu time spent up to now is      204.2 secs

     Self-consistent Calculation

     iteration #  1     ecut=    80.00 Ry     beta= 0.50
     Davidson diagonalization with overlap
     ethr =  1.00E-06,  avg # of iterations = 12.7

     total cpu time spent up to now is      220.5 secs

     total energy              =    -690.33416198 Ry
     Harris-Foulkes estimate   =    -708.92244666 Ry
     estimated scf accuracy    <       8.08632586 Ry

     iteration #  2     ecut=    80.00 Ry     beta= 0.50
     Davidson diagonalization with overlap
     ethr =  7.63E-03,  avg # of iterations =  6.3

     negative rho (up, down):  5.156E-01 0.000E+00

     total cpu time spent up to now is      231.7 secs

     total energy              =    -674.45986862 Ry
     Harris-Foulkes estimate   =    -733.70578759 Ry
     estimated scf accuracy    <    1571.01190575 Ry

     iteration #  3     ecut=    80.00 Ry     beta= 0.50
     Davidson diagonalization with overlap
     ethr =  7.63E-03,  avg # of iterations =  5.1

     total cpu time spent up to now is      242.3 secs

     total energy              =    -646.27368794 Ry
     Harris-Foulkes estimate   =    -759.90179342 Ry
     estimated scf accuracy    <   57730.39252131 Ry

     iteration #  4     ecut=    80.00 Ry     beta= 0.50
     Davidson diagonalization with overlap
     ethr =  7.63E-03,  avg # of iterations =  4.0

     negative rho (up, down):  4.691E-02 0.000E+00

     total cpu time spent up to now is      251.0 secs

     total energy              =    -696.30307337 Ry
     Harris-Foulkes estimate   =    -698.01893805 Ry
     estimated scf accuracy    <      64.63860265 Ry

     iteration #  5     ecut=    80.00 Ry     beta= 0.50
     Davidson diagonalization with overlap
     ethr =  7.63E-03,  avg # of iterations =  4.0

     negative rho (up, down):  7.562E-02 0.000E+00

     total cpu time spent up to now is      258.7 secs

     total energy              =    -690.54558736 Ry
     Harris-Foulkes estimate   =    -704.43678618 Ry
     estimated scf accuracy    <    9752.07873162 Ry

     iteration #  6     ecut=    80.00 Ry     beta= 0.50
     Davidson diagonalization with overlap
     ethr =  7.63E-03,  avg # of iterations =  4.0

     total cpu time spent up to now is      267.2 secs

     total energy              =    -688.69143525 Ry
     Harris-Foulkes estimate   =    -703.67966800 Ry
     estimated scf accuracy    <   10423.97915411 Ry

     iteration #  7     ecut=    80.00 Ry     beta= 0.50
     Davidson diagonalization with overlap
     ethr =  7.63E-03,  avg # of iterations =  3.0

     total cpu time spent up to now is      274.9 secs

     total energy              =    -696.98899272 Ry
     Harris-Foulkes estimate   =    -697.28903918 Ry
     estimated scf accuracy    <       4.07634423 Ry

     iteration #  8     ecut=    80.00 Ry     beta= 0.50
     Davidson diagonalization with overlap
     ethr =  3.85E-03,  avg # of iterations =  1.0

     total cpu time spent up to now is      280.2 secs

     total energy              =    -696.96435025 Ry
     Harris-Foulkes estimate   =    -697.05824669 Ry
     estimated scf accuracy    <       1.39776925 Ry

     iteration #  9     ecut=    80.00 Ry     beta= 0.50
     Davidson diagonalization with overlap
     ethr =  1.32E-03,  avg # of iterations =  1.1

     total cpu time spent up to now is      285.6 secs

     total energy              =    -696.95603742 Ry
     Harris-Foulkes estimate   =    -696.98429905 Ry
     estimated scf accuracy    <       0.58791813 Ry

     iteration # 10     ecut=    80.00 Ry     beta= 0.50
     Davidson diagonalization with overlap
     ethr =  5.55E-04,  avg # of iterations =  1.0

     total cpu time spent up to now is      291.0 secs

     total energy              =    -696.87096594 Ry
     Harris-Foulkes estimate   =    -696.95966213 Ry
     estimated scf accuracy    <       0.52280063 Ry

     iteration # 11     ecut=    80.00 Ry     beta= 0.50
     Davidson diagonalization with overlap
     ethr =  4.93E-04,  avg # of iterations =  2.4

     negative rho (up, down):  3.432E-05 0.000E+00

     total cpu time spent up to now is      296.9 secs

     total energy              =    -696.88953881 Ry
     Harris-Foulkes estimate   =    -696.90415673 Ry
     estimated scf accuracy    <       0.78840587 Ry

     iteration # 12     ecut=    80.00 Ry     beta= 0.50
     Davidson diagonalization with overlap
     ethr =  4.93E-04,  avg # of iterations =  1.6

     negative rho (up, down):  3.034E-05 0.000E+00

     total cpu time spent up to now is      302.6 secs

     total energy              =    -696.89214780 Ry
     Harris-Foulkes estimate   =    -696.90017672 Ry
     estimated scf accuracy    <       0.64715352 Ry

     iteration # 13     ecut=    80.00 Ry     beta= 0.50
     Davidson diagonalization with overlap
     ethr =  4.93E-04,  avg # of iterations =  1.0

     total cpu time spent up to now is      308.1 secs

     total energy              =    -696.89369096 Ry
     Harris-Foulkes estimate   =    -696.89975059 Ry
     estimated scf accuracy    <       3.52150805 Ry

     iteration # 14     ecut=    80.00 Ry     beta= 0.50
     Davidson diagonalization with overlap
     ethr =  4.93E-04,  avg # of iterations =  1.0

     total cpu time spent up to now is      313.7 secs

     total energy              =    -696.89009157 Ry
     Harris-Foulkes estimate   =    -696.89676364 Ry
     estimated scf accuracy    <       0.24604406 Ry

     iteration # 15     ecut=    80.00 Ry     beta= 0.50
     Davidson diagonalization with overlap
     ethr =  2.32E-04,  avg # of iterations =  3.8

     total cpu time spent up to now is      320.2 secs

     total energy              =    -696.89466336 Ry
     Harris-Foulkes estimate   =    -696.91758813 Ry
     estimated scf accuracy    <      11.77304319 Ry

     iteration # 16     ecut=    80.00 Ry     beta= 0.50
     Davidson diagonalization with overlap
     ethr =  2.32E-04,  avg # of iterations =  3.6

     total cpu time spent up to now is      327.1 secs

     total energy              =    -696.78604452 Ry
     Harris-Foulkes estimate   =    -697.03037566 Ry
     estimated scf accuracy    <     126.91461723 Ry

     iteration # 17     ecut=    80.00 Ry     beta= 0.50
     Davidson diagonalization with overlap
     ethr =  2.32E-04,  avg # of iterations =  4.0

     total cpu time spent up to now is      334.0 secs

     total energy              =    -696.89591021 Ry
     Harris-Foulkes estimate   =    -696.89891959 Ry
     estimated scf accuracy    <       1.12578059 Ry

     iteration # 18     ecut=    80.00 Ry     beta= 0.50
     Davidson diagonalization with overlap
     ethr =  2.32E-04,  avg # of iterations =  1.0

     total cpu time spent up to now is      339.2 secs

     total energy              =    -696.89578059 Ry
     Harris-Foulkes estimate   =    -696.89658049 Ry
     estimated scf accuracy    <       0.62229033 Ry

     iteration # 19     ecut=    80.00 Ry     beta= 0.50
     Davidson diagonalization with overlap
     ethr =  2.32E-04,  avg # of iterations =  1.0

     total cpu time spent up to now is      344.4 secs

     total energy              =    -696.89396579 Ry
     Harris-Foulkes estimate   =    -696.89666327 Ry
     estimated scf accuracy    <       0.28555944 Ry

     iteration # 20     ecut=    80.00 Ry     beta= 0.50
     Davidson diagonalization with overlap
     ethr =  2.32E-04,  avg # of iterations =  1.8

     total cpu time spent up to now is      350.1 secs

     total energy              =    -696.89558493 Ry
     Harris-Foulkes estimate   =    -696.89577943 Ry
     estimated scf accuracy    <       0.02973078 Ry

     iteration # 21     ecut=    80.00 Ry     beta= 0.50
     Davidson diagonalization with overlap
     ethr =  2.80E-05,  avg # of iterations =  3.1

     total cpu time spent up to now is      356.4 secs

     total energy              =    -696.89597395 Ry
     Harris-Foulkes estimate   =    -696.89614549 Ry
     estimated scf accuracy    <       0.02741323 Ry

     iteration # 22     ecut=    80.00 Ry     beta= 0.50
     Davidson diagonalization with overlap
     ethr =  2.59E-05,  avg # of iterations =  1.3

     total cpu time spent up to now is      362.2 secs

     total energy              =    -696.89603214 Ry
     Harris-Foulkes estimate   =    -696.89605823 Ry
     estimated scf accuracy    <       0.00514893 Ry

     iteration # 23     ecut=    80.00 Ry     beta= 0.50
     Davidson diagonalization with overlap
     ethr =  4.86E-06,  avg # of iterations =  4.5

     total cpu time spent up to now is      368.9 secs

     total energy              =    -696.89608049 Ry
     Harris-Foulkes estimate   =    -696.89608109 Ry
     estimated scf accuracy    <       0.00561949 Ry

     iteration # 24     ecut=    80.00 Ry     beta= 0.50
     Davidson diagonalization with overlap
     ethr =  4.86E-06,  avg # of iterations =  1.8

     total cpu time spent up to now is      374.5 secs

     total energy              =    -696.89606133 Ry
     Harris-Foulkes estimate   =    -696.89611249 Ry
     estimated scf accuracy    <       0.00860390 Ry

     iteration # 25     ecut=    80.00 Ry     beta= 0.50
     Davidson diagonalization with overlap
     ethr =  4.86E-06,  avg # of iterations =  1.0

     total cpu time spent up to now is      380.2 secs

     total energy              =    -696.89606767 Ry
     Harris-Foulkes estimate   =    -696.89607575 Ry
     estimated scf accuracy    <       0.00283733 Ry

     iteration # 26     ecut=    80.00 Ry     beta= 0.50
     Davidson diagonalization with overlap
     ethr =  2.68E-06,  avg # of iterations =  2.4

     total cpu time spent up to now is      386.4 secs

     total energy              =    -696.89607417 Ry
     Harris-Foulkes estimate   =    -696.89607510 Ry
     estimated scf accuracy    <       0.00042959 Ry

     iteration # 27     ecut=    80.00 Ry     beta= 0.50
     Davidson diagonalization with overlap
     ethr =  4.05E-07,  avg # of iterations =  1.8

     total cpu time spent up to now is      392.2 secs

     total energy              =    -696.89607421 Ry
     Harris-Foulkes estimate   =    -696.89607578 Ry
     estimated scf accuracy    <       0.00024882 Ry

     iteration # 28     ecut=    80.00 Ry     beta= 0.50
     Davidson diagonalization with overlap
     ethr =  2.35E-07,  avg # of iterations =  2.2

     total cpu time spent up to now is      398.1 secs

     total energy              =    -696.89607564 Ry
     Harris-Foulkes estimate   =    -696.89607658 Ry
     estimated scf accuracy    <       0.00019910 Ry

     iteration # 29     ecut=    80.00 Ry     beta= 0.50
     Davidson diagonalization with overlap
     ethr =  1.88E-07,  avg # of iterations =  1.0

     total cpu time spent up to now is      403.7 secs

     total energy              =    -696.89607588 Ry
     Harris-Foulkes estimate   =    -696.89607596 Ry
     estimated scf accuracy    <       0.00004830 Ry

     iteration # 30     ecut=    80.00 Ry     beta= 0.50
     Davidson diagonalization with overlap
     ethr =  4.56E-08,  avg # of iterations =  1.0

     total cpu time spent up to now is      409.2 secs

     total energy              =    -696.89607587 Ry
     Harris-Foulkes estimate   =    -696.89607600 Ry
     estimated scf accuracy    <       0.00002636 Ry

     iteration # 31     ecut=    80.00 Ry     beta= 0.50
     Davidson diagonalization with overlap
     ethr =  2.49E-08,  avg # of iterations =  1.8

     total cpu time spent up to now is      414.9 secs

     End of self-consistent calculation

          k = 0.0000 0.0000 0.0000 ( 14611 PWs)   bands (ev):

   -30.4749 -15.3907 -15.3613 -11.1685 -10.5612 -10.5403  -7.9672  -6.9715
    -6.8668  -6.6939  -6.3794  -5.9423  -5.8767  -0.5881  -0.5380  -0.3515
    -0.3210  -0.2098  -0.1556   5.0592   5.0726   5.0756   5.2636   5.3668
     5.4184   6.2344   6.4297   6.4728   6.5646   6.7768   7.1561   7.1773
     7.1929   7.3161   7.3255   7.3881   7.4934   7.5845   7.6670   7.7166
     8.0154   8.1721   8.2945   8.4470   8.4768   8.5516   8.7063   8.7523
     9.1462   9.2022   9.4299   9.5706   9.5902   9.7560   9.7705  12.8178
    13.4269  14.2284  14.3855  15.2606  15.4779  16.0463  16.3097  16.7275

          k = 0.0000 0.1246 0.0000 ( 14579 PWs)   bands (ev):

   -30.4728 -15.3717 -15.3428 -11.1324 -10.6754 -10.5373  -7.8385  -6.9316
    -6.9022  -6.6672  -6.3972  -6.0063  -5.9515  -0.5945  -0.5216  -0.3400
    -0.2922  -0.1754  -0.1196   4.9717   4.9796   5.1207   5.2017   5.3742
     5.4069   5.8649   6.2458   6.2872   6.5720   6.7263   6.9499   6.9577
     7.0453   7.0843   7.3412   7.3565   7.6356   7.6710   7.7437   7.7699
     8.2086   8.2241   8.2326   8.3311   8.4498   8.5439   8.7753   8.9124
     9.1288   9.2970   9.3699   9.4950   9.6608   9.8555  10.0421  13.1540
    13.6062  14.5489  14.6346  15.3759  16.2864  16.5052  16.7818  16.8311

          k = 0.0000 0.2491 0.0000 ( 14547 PWs)   bands (ev):

   -30.4677 -15.3251 -15.2974 -11.0408 -10.9173 -10.5302  -7.5473  -7.0323
    -6.8363  -6.6165  -6.3999  -6.1561  -6.1267  -0.5887  -0.4790  -0.3147
    -0.2388  -0.0894  -0.0296   4.5929   4.7366   4.9446   5.1484   5.2607
     5.4010   5.5691   5.8280   6.2466   6.5466   6.5472   6.6032   6.6220
     6.7763   6.9457   7.3274   7.3347   7.4699   7.4817   7.7005   7.8457
     8.0592   8.4130   8.4131   8.4695   8.6332   8.6688   8.8150   9.0218
     9.0746   9.3163   9.3383   9.4335   9.5489  10.0060  10.8983  13.9311
    14.0460  15.2810  15.3874  15.3946  15.5217  16.4941  16.6680  17.0268

          k = 0.0000 0.3737 0.0000 ( 14541 PWs)   bands (ev):

   -30.4626 -15.2773 -15.2509 -11.1262 -10.9418 -10.5229  -7.2504  -7.2046
    -6.7794  -6.5595  -6.3660  -6.3014  -6.3011  -0.5573  -0.4339  -0.2929
    -0.2040   0.0009   0.0652   4.1821   4.3763   4.4538   5.0923   5.4483
     5.4758   5.4896   5.6559   6.1969   6.2684   6.3150   6.4479   6.5060
     6.5544   6.8502   7.0421   7.1307   7.3552   7.4850   7.6241   7.9204
     8.1312   8.3438   8.4644   8.5121   8.5836   8.8197   9.0981   9.1432
     9.2490   9.2812   9.3524   9.3550   9.6550   9.9890  11.5195  14.3507
    14.9087  15.3401  15.4631  16.0982  16.3000  16.3373  16.4655  17.6502

          k = 0.0000-0.4982 0.0000 ( 14542 PWs)   bands (ev):

   -30.4604 -15.2571 -15.2313 -11.2057 -10.8982 -10.5199  -7.2836  -7.1017
    -6.8097  -6.4597  -6.4266  -6.3603  -6.3459  -0.5364  -0.4150  -0.2849
    -0.1955   0.0397   0.1061   3.9823   4.2116   4.3313   5.0773   5.3634
     5.4791   5.6526   5.6587   5.9633   6.1968   6.3747   6.3837   6.4759
     6.4851   6.7710   6.8124   7.1104   7.3329   7.3757   7.7163   7.9359
     8.0202   8.4728   8.4921   8.5372   8.5878   8.7908   9.1307   9.1818
     9.2714   9.3050   9.3706   9.4875   9.7677   9.8661  11.7281  14.5811
    15.0069  15.3184  15.9321  16.1302  16.1694  16.4987  16.7475  17.2771

          k = 0.1270 0.0000 0.0000 ( 14563 PWs)   bands (ev):

   -30.4722 -15.3677 -15.3399 -11.1284 -10.6664 -10.5576  -7.8407  -7.0051
    -6.8646  -6.6482  -6.4384  -6.0031  -5.8913  -0.6281  -0.5745  -0.3110
    -0.2811  -0.1741  -0.1536   4.9182   4.9500   5.1051   5.1564   5.4279
     5.4294   6.3001   6.3975   6.4315   6.4899   6.6872   6.9662   6.9827
     7.0032   7.3121   7.3409   7.4226   7.5973   7.7127   7.7281   7.7849
     7.8982   8.1644   8.2172   8.2873   8.3885   8.4921   8.7798   8.8106
     9.1409   9.3936   9.4570   9.5143   9.5736   9.6287   9.7303  13.1263
    13.6166  14.5142  14.7183  15.4360  15.5105  16.3899  16.5718  16.7743

          k = 0.1270 0.1246 0.0000 ( 14574 PWs)   bands (ev):

   -30.4701 -15.3494 -15.3221 -11.0928 -10.6795 -10.6527  -7.7121  -6.9613
    -6.8877  -6.6220  -6.4655  -6.0498  -5.9538  -0.6101  -0.5756  -0.4061
    -0.4005  -0.0642  -0.0495   4.8339   4.9447   5.0646   5.1603   5.2364
     5.5071   5.8548   6.1870   6.3814   6.5095   6.5809   6.7130   6.7318
     7.0633   7.2469   7.3489   7.4125   7.5892   7.6215   7.6601   7.8128
     8.1669   8.2285   8.2753   8.3539   8.4592   8.4758   8.5905   8.8797
     9.1562   9.3195   9.5733   9.6045   9.7252   9.9119  10.0798  13.3992
    13.7593  14.8225  14.9564  15.3253  15.5745  16.5029  16.6760  16.7065

          k = 0.1270 0.2491 0.0000 ( 14564 PWs)   bands (ev):

   -30.4651 -15.3045 -15.2783 -11.0025 -10.9108 -10.6506  -7.4199  -6.9989
    -6.8492  -6.5742  -6.4794  -6.1616  -6.1078  -0.5918  -0.5713  -0.4679
    -0.4398  -0.0120   0.0169   4.4925   4.7312   4.9524   5.1143   5.1267
     5.1729   5.6545   5.8152   6.2122   6.2755   6.3890   6.5442   6.5986
     6.7461   7.0922   7.4114   7.4263   7.4835   7.5716   7.5793   7.7769
     8.1668   8.2612   8.4087   8.5120   8.6834   8.8063   8.8528   8.9028
     9.0583   9.1433   9.5948   9.7693   9.8848  10.2149  10.9028  13.9875
    14.1929  15.1546  15.4601  15.6417  15.6530  16.6755  16.6822  16.9310

          k = 0.1270 0.3737 0.0000 ( 14569 PWs)   bands (ev):

   -30.4600 -15.2586 -15.2335 -11.1176 -10.9050 -10.6411  -7.1630  -7.1190
    -6.7449  -6.5402  -6.4454  -6.2778  -6.2738  -0.5682  -0.5187  -0.4510
    -0.3929  -0.0538  -0.0420   4.1178   4.3346   4.4314   5.0609   5.1906
     5.2772   5.5723   5.7080   5.9010   5.9165   6.4004   6.4558   6.5359
     6.5777   6.8458   7.3380   7.3631   7.4235   7.4640   7.7545   7.8240
     8.1373   8.3436   8.5336   8.5706   8.6719   8.9190   9.0146   9.1093
     9.1828   9.3243   9.4930   9.7562   9.9858  10.3139  11.4966  14.3033
    14.7934  14.9958  15.5790  16.2653  16.3652  16.5259  16.8622  17.3585

          k = 0.1270-0.4982 0.0000 ( 14574 PWs)   bands (ev):

   -30.4579 -15.2392 -15.2147 -11.1966 -10.8621 -10.6371  -7.2397  -6.9575
    -6.7602  -6.4319  -6.4265  -6.4238  -6.3208  -0.5360  -0.4880  -0.4232
    -0.3440  -0.1187  -0.1017   3.9489   4.1304   4.2997   5.0449   5.2083
     5.3804   5.5118   5.6822   5.7318   5.7858   6.3893   6.4387   6.4884
     6.6025   6.7340   7.3110   7.3137   7.3867   7.4223   7.7551   7.9384
     8.2299   8.2524   8.5753   8.5844   8.6292   8.9226   9.0932   9.1695
     9.3426   9.4418   9.4570   9.7501   9.9859  10.2984  11.6941  14.5358
    14.7297  14.8983  16.0945  16.1237  16.5910  16.7011  16.9026  17.4244

          k = 0.2541 0.0000 0.0000 ( 14541 PWs)   bands (ev):

   -30.4659 -15.3110 -15.2874 -11.0261 -10.9321 -10.5487  -7.5624  -7.1010
    -6.9303  -6.5498  -6.5150  -6.1464  -5.9115  -0.7460  -0.5362  -0.2107
    -0.2091  -0.1812  -0.1208   4.4919   4.6236   5.1079   5.2362   5.4647
     5.5175   6.2895   6.2961   6.3153   6.3175   6.4743   6.6127   6.6322
     6.9739   7.2853   7.3473   7.3922   7.4257   7.5397   7.7685   7.8278
     7.8283   8.0793   8.2245   8.4830   8.5014   8.5422   8.6807   8.9410
     9.2350   9.2424   9.2907   9.3661   9.4245   9.6670   9.9671  13.7620
    14.1096  15.2838  15.3445  15.4914  16.0346  16.7918  16.9690  17.0145

          k = 0.2541 0.1246 0.0000 ( 14581 PWs)   bands (ev):

   -30.4638 -15.2945 -15.2712 -10.9918 -10.9265 -10.6569  -7.4339  -7.0455
    -6.9138  -6.5739  -6.5222  -6.1548  -5.9495  -0.7473  -0.5296  -0.4980
    -0.4199  -0.0337  -0.0238   4.4089   4.6222   5.0930   5.1486   5.2444
     5.5755   5.8404   6.0656   6.1937   6.2655   6.3842   6.4391   6.6539
     7.0274   7.0619   7.4308   7.4653   7.5412   7.5767   7.6128   7.7798
     8.0486   8.1781   8.2585   8.5034   8.5486   8.6733   8.7889   8.8291
     9.0899   9.1443   9.5210   9.7192   9.8121  10.1633  10.1887  13.8686
    14.2137  15.1304  15.5698  15.7205  15.8359  16.7222  16.7797  16.9719

          k = 0.2541 0.2491 0.0000 ( 14572 PWs)   bands (ev):

   -30.4587 -15.2541 -15.2315 -10.9227 -10.9050 -10.8795  -7.1434  -6.9307
    -6.8912  -6.6623  -6.4690  -6.1776  -6.0592  -0.7915  -0.7546  -0.5704
    -0.5094  -0.1160  -0.0990   4.1049   4.5386   4.9372   4.9536   4.9771
     5.1303   5.6706   5.7106   5.8203   5.9368   6.4208   6.4938   6.6302
     6.7402   7.0424   7.1104   7.4105   7.5891   7.7234   7.9287   8.0212
     8.0633   8.4299   8.5486   8.6329   8.6905   8.7672   8.9885   9.0210
     9.0531   9.1704   9.6482   9.8346  10.5012  10.7191  10.9155  13.8871
    14.5259  14.8819  15.5917  16.3202  16.3834  16.6341  16.7970  16.9799

          k = 0.2541 0.3737 0.0000 ( 14533 PWs)   bands (ev):

   -30.4537 -15.2129 -15.1910 -11.0971 -10.8943 -10.8114  -7.0593  -6.8481
    -6.6786  -6.6413  -6.4608  -6.2182  -6.2064  -0.8263  -0.8139  -0.6090
    -0.5011  -0.3628  -0.2945   3.7427   4.2654   4.3397   4.8436   4.9155
     5.1001   5.2755   5.4640   5.8590   5.8990   6.3784   6.5152   6.5524
     6.6151   6.8251   6.9994   7.4583   7.6101   7.8891   8.1522   8.2055
     8.3141   8.4910   8.6812   8.7306   8.9262   9.0050   9.0164   9.1539
     9.2932   9.2998   9.5760   9.8353  10.8738  11.0421  11.4312  13.7237
    14.4243  15.0459  16.0513  16.1284  16.6855  16.9179  17.0208  17.2848

          k = 0.2541-0.4982 0.0000 ( 14540 PWs)   bands (ev):

   -30.4516 -15.1955 -15.1740 -11.1745 -10.8889 -10.7704  -7.1300  -6.6374
    -6.6300  -6.6157  -6.4298  -6.3675  -6.2208  -0.7497  -0.6916  -0.6824
    -0.6703  -0.4412  -0.3994   3.5920   4.1043   4.1213   4.8223   4.9408
     5.0867   5.1245   5.3746   5.8441   5.9005   6.4086   6.4576   6.4835
     6.6613   6.7312   6.9749   7.4726   7.6315   7.9091   8.1862   8.3963
     8.4791   8.5599   8.7094   8.7480   8.8298   9.0116   9.1658   9.3137
     9.3818   9.4206   9.4923   9.7606  10.9741  11.1234  11.5928  13.6408
    14.3687  15.0539  15.9050  16.5811  16.7958  17.1071  17.1148  17.4341

          k = 0.3811 0.0000 0.0000 ( 14584 PWs)   bands (ev):

   -30.4594 -15.2527 -15.2335 -11.1605 -10.9148 -10.5398  -7.3002  -7.2119
    -7.0970  -6.4969  -6.4773  -6.2874  -5.9117  -0.8076  -0.4866  -0.2408
    -0.1478  -0.1011  -0.0753   4.1185   4.2794   5.1062   5.4235   5.4990
     5.5376   6.0960   6.1595   6.1711   6.2443   6.2873   6.3017   6.4160
     6.9061   7.0275   7.1757   7.2658   7.4358   7.6937   7.7023   7.8099
     7.8512   8.0797   8.2280   8.4295   8.6120   8.6916   8.9624   8.9804
     9.1543   9.1739   9.2083   9.2643   9.3871   9.7318  10.0124  14.1788
    14.8146  15.2649  16.0549  16.2097  16.5200  16.8815  16.8919  17.0200

          k = 0.3811 0.1246 0.0000 ( 14556 PWs)   bands (ev):

   -30.4574 -15.2380 -15.2190 -11.1532 -10.8821 -10.6455  -7.1849  -7.1291
    -7.0609  -6.5669  -6.4464  -6.2625  -5.9309  -0.8052  -0.5056  -0.4518
    -0.3851  -0.1254  -0.1177   4.0125   4.2565   5.0791   5.2823   5.3136
     5.5835   5.8091   5.8448   5.8540   5.9884   6.2592   6.5226   6.5402
     6.8688   6.9777   7.3394   7.3983   7.4924   7.6653   7.7430   7.8705
     7.9029   8.0898   8.4208   8.5303   8.6327   8.7642   8.9809   9.0039
     9.0848   9.1324   9.3203   9.6402   9.8834  10.2006  10.2864  14.0474
    14.8220  15.0165  16.0305  16.3540  16.4515  16.8218  16.9469  17.2580

          k = 0.3811 0.2491 0.0000 ( 14568 PWs)   bands (ev):

   -30.4524 -15.2024 -15.1837 -11.1354 -10.8738 -10.7992  -6.9749  -6.9741
    -6.8562  -6.7363  -6.3757  -6.2010  -6.0036  -0.8579  -0.8465  -0.6599
    -0.4819  -0.3934  -0.3529   3.6772   4.1398   4.8774   4.9907   4.9999
     5.1454   5.2388   5.5183   5.8525   5.8718   6.4630   6.4789   6.6543
     6.7157   6.7702   7.0280   7.4914   7.8250   7.8404   8.1035   8.1351
     8.3127   8.3494   8.6202   8.7493   8.9069   8.9662   9.0200   9.1039
     9.1216   9.1986   9.5943   9.6967  10.8025  10.9316  11.0106  13.5780
    14.3719  15.2222  16.0893  16.5495  16.6062  16.7260  17.1830  17.2601

          k = 0.3811 0.3737 0.0000 ( 14520 PWs)   bands (ev):

   -30.4474 -15.1661 -15.1477 -11.1183 -11.0739 -10.7102  -6.9526  -6.8409
    -6.7095  -6.5656  -6.3267  -6.1537  -6.1388  -1.0800  -1.0179  -0.7900
    -0.7540  -0.6082  -0.4438   3.2873   3.8906   4.3730   4.7305   4.7823
     4.8255   5.1019   5.3918   5.8458   6.0552   6.2885   6.5369   6.5609
     6.6515   6.7018   6.8062   7.5409   7.9176   8.2176   8.4425   8.5225
     8.5416   8.7887   8.8215   8.9391   8.9465   8.9773   9.2201   9.2853
     9.3268   9.4138   9.5680   9.9076  11.3486  11.4630  11.5719  13.0976
    14.0934  15.3703  15.9944  16.4476  16.6228  16.7856  16.9126  17.2164

          k = 0.3811-0.4982 0.0000 ( 14494 PWs)   bands (ev):

   -30.4453 -15.1509 -15.1326 -11.1524 -11.1093 -10.6712  -7.0143  -6.8137
    -6.4733  -6.4398  -6.3430  -6.3169  -6.1131  -1.0814  -1.0690  -1.0292
    -0.8433  -0.6654  -0.4366   3.1230   3.7534   4.1359   4.6835   4.6901
     4.7376   5.0928   5.3569   5.8433   6.1308   6.2220   6.4701   6.5166
     6.6292   6.6700   6.8061   7.5506   7.9460   8.3863   8.5930   8.6014
     8.7031   8.8707   8.9071   8.9836   9.0286   9.1068   9.2494   9.3224
     9.3923   9.4334   9.7693   9.9018  11.4527  11.6760  11.7641  12.9145
    14.0273  15.3900  15.7139  16.4486  16.6548  16.7100  17.0637  17.3651

          k =-0.5081 0.0000 0.0000 ( 14536 PWs)   bands (ev):

   -30.4568 -15.2279 -15.2108 -11.2473 -10.8656 -10.5361  -7.2722  -7.1825
    -7.1784  -6.4746  -6.4591  -6.3458  -5.9065  -0.8244  -0.4605  -0.2540
    -0.1683  -0.0543  -0.0295   3.9746   4.1357   5.1186   5.4511   5.5476
     5.5930   6.0363   6.0844   6.1102   6.1176   6.1195   6.1478   6.5717
     6.7751   6.8467   7.1685   7.2604   7.4310   7.6869   7.7946   7.8086
     7.8467   8.1031   8.1136   8.5932   8.6485   8.7344   8.9117   8.9485
     9.0759   9.2023   9.2067   9.3581   9.4206   9.7512   9.9480  14.3158
    15.1899  15.2348  16.1710  16.6779  16.7007  16.8416  16.9399  17.0483

          k =-0.5081 0.1246 0.0000 ( 14574 PWs)   bands (ev):

   -30.4547 -15.2142 -15.1971 -11.2395 -10.8336 -10.6407  -7.1988  -7.1431
    -7.0469  -6.5442  -6.4271  -6.3083  -5.9191  -0.8163  -0.4635  -0.4061
    -0.2884  -0.2533  -0.2186   3.8588   4.1031   5.0755   5.3264   5.4832
     5.5811   5.6228   5.6433   5.7886   5.9657   6.2229   6.4360   6.6480
     6.8035   6.9447   7.3029   7.3142   7.5119   7.6940   7.7376   7.8601
     7.9989   8.1028   8.3608   8.6232   8.6928   8.7696   8.8890   9.0463
     9.1260   9.1737   9.3954   9.5992   9.8767  10.2026  10.2576  14.0688
    14.8050  15.2757  16.3105  16.4237  16.8812  16.9467  16.9825  17.3138

          k =-0.5081 0.2491 0.0000 ( 14556 PWs)   bands (ev):

   -30.4498 -15.1806 -15.1635 -11.2205 -10.8672 -10.7525  -7.0449  -6.9933
    -6.7542  -6.7149  -6.3473  -6.2134  -5.9772  -0.8186  -0.7606  -0.6611
    -0.6597  -0.5596  -0.4355   3.5068   3.9652   4.8706   4.9921   5.0551
     5.0607   5.1677   5.4098   5.8354   5.8482   6.4909   6.5535   6.6288
     6.6828   6.7140   6.9909   7.5257   7.8455   7.9820   8.1602   8.1776
     8.3049   8.4761   8.6900   8.8110   8.8372   9.0031   9.0125   9.1035
     9.3256   9.3976   9.3985   9.5708  10.8686  10.9389  11.0755  13.4181
    14.2704  15.4659  16.4133  16.5442  16.6933  16.7266  17.2240  17.2408

          k =-0.5081 0.3737 0.0000 ( 14514 PWs)   bands (ev):

   -30.4448 -15.1464 -15.1295 -11.2015 -11.0667 -10.6656  -6.9421  -6.8903
    -6.7013  -6.4870  -6.2640  -6.1216  -6.1109  -1.1027  -1.0658  -1.0250
    -0.8062  -0.7747  -0.4289   3.1005   3.7092   4.3871   4.6595   4.7033
     4.7724   5.1078   5.3656   5.8172   6.0473   6.3835   6.4722   6.5162
     6.6572   6.7241   6.7556   7.5663   8.0894   8.3096   8.5483   8.6288
     8.6381   8.8077   8.8987   8.9890   9.0430   9.2320   9.2323   9.2539
     9.2567   9.4073   9.7629   9.8016  11.3144  11.6480  11.7483  12.8524
    13.9801  15.5980  15.9492  16.2882  16.5509  16.7751  17.0303  17.1998

          k =-0.5081-0.4982 0.0000 ( 14508 PWs)   bands (ev):

   -30.4427 -15.1321 -15.1153 -11.1937 -11.1433 -10.6275  -6.9646  -6.8979
    -6.4450  -6.3819  -6.3181  -6.2271  -6.0658  -1.2422  -1.2002  -1.1674
    -0.9013  -0.7797  -0.4225   2.9286   3.5731   4.1502   4.5233   4.6560
     4.7079   5.1013   5.3502   5.8134   6.1432   6.3143   6.3775   6.4771
     6.6285   6.6528   6.8032   7.5757   8.1270   8.5619   8.6555   8.7198
     8.7534   8.9888   9.0278   9.0721   9.0856   9.1128   9.2830   9.3693
     9.4152   9.4166   9.9107  10.0075  11.3876  11.9157  12.0009  12.6420
    13.9141  15.6241  15.6443  16.2508  16.4255  16.4950  16.9112  17.7028

     the Fermi energy is    10.0480 ev

!    total energy              =    -696.89607602 Ry
     Harris-Foulkes estimate   =    -696.89607602 Ry
     estimated scf accuracy    <       0.00000030 Ry

     The total energy is the sum of the following terms:

     one-electron contribution =    -203.11054340 Ry
     hartree contribution      =     186.66869898 Ry
     xc contribution           =    -148.93597113 Ry
     ewald contribution        =    -531.51533798 Ry
     smearing contrib. (-TS)   =      -0.00292249 Ry

     convergence has been achieved in  31 iterations

     Forces acting on atoms (cartesian axes, Ry/au):

     atom    1 type  2   force =     0.00000000    0.00000000   -0.00558301
     atom    2 type  2   force =     0.00000000    0.00000000    0.00558301
     atom    3 type  1   force =     0.00000000    0.00000000    0.00000000
     atom    4 type  4   force =     0.00000000    0.00000000    0.00254583
     atom    5 type  4   force =     0.00000000    0.00000000   -0.00254583
     atom    6 type  4   force =     0.00000000    0.00000000    0.00000000
     atom    7 type  3   force =     0.00000000    0.00000000    0.00000000
     atom    8 type  3   force =     0.00000000    0.00000000    0.00128386
     atom    9 type  3   force =     0.00000000    0.00000000   -0.00128386
     atom   10 type  3   force =     0.00000000    0.00000000    0.00100906
     atom   11 type  3   force =     0.00000000    0.00000000   -0.00100906
     atom   12 type  3   force =     0.00000000    0.00000000   -0.00475838
     atom   13 type  3   force =     0.00000000    0.00000000    0.00475838

     Total force =     0.011221     Total SCF correction =     0.000293


     Computing stress (Cartesian axis) and pressure

          total   stress  (Ry/bohr**3)                   (kbar)     P=      -35.45
  -0.00021660   0.00000000   0.00000000          -31.86        0.00        0.00
   0.00000000  -0.00023388   0.00000000            0.00      -34.41        0.00
   0.00000000   0.00000000  -0.00027251            0.00        0.00      -40.09


     number of scf cycles    =   2
     number of bfgs steps    =   1

     enthalpy old            =    -696.8698722591 Ry
     enthalpy new            =    -696.8960760228 Ry

     CASE: enthalpy_new < enthalpy_old

     new trust radius        =       0.0718984831 bohr
     new conv_thr            =       0.0000005583 Ry

     new unit-cell volume =   1114.70049 a.u.^3 (   165.18157 Ang^3 )
     density =      6.69721 g/cm^3

CELL_PARAMETERS (angstrom)
   3.751176140   0.000000000   0.000000000
   0.000000000   3.823019602   0.000000000
   0.000000000   0.000000000  11.518279276

ATOMIC_POSITIONS (angstrom)
Ba            1.8755870945        1.9115107747        9.4283661657
Ba            1.8755870945        1.9115107747        2.0899170068
Y             1.8755870945        1.9115107747        5.7591415862
Cu            0.0000000000        0.0000000000        7.4509847974
Cu            0.0000000000        0.0000000000        4.0672974009
Cu            0.0000000000        0.0000000000        0.0000000000
O             0.0000000000        1.9115107747        0.0000000000
O             1.8755870945        0.0000000000        7.1481294871
O             1.8755870945        0.0000000000        4.3701527112
O             0.0000000000        1.9115107747        7.1588490646
O             0.0000000000        1.9115107747        4.3594341079
O             0.0000000000        0.0000000000        9.6850523560
O             0.0000000000        0.0000000000        1.8332308165



     Writing output data file /n/holyscratch01/hoffman_lab/ruizhe/outdir/YBCO_ecut80.save/
     NEW-OLD atomic charge density approx. for the potential
     extrapolated charge  102.94110, renormalised to  106.00000

     total cpu time spent up to now is      432.7 secs

     Self-consistent Calculation

     iteration #  1     ecut=    80.00 Ry     beta= 0.50
     Davidson diagonalization with overlap
     ethr =  1.00E-06,  avg # of iterations = 12.3

     negative rho (up, down):  1.518E-02 0.000E+00

     total cpu time spent up to now is      448.0 secs

     total energy              =    -692.66819334 Ry
     Harris-Foulkes estimate   =    -703.54049991 Ry
     estimated scf accuracy    <       5.33428556 Ry

     iteration #  2     ecut=    80.00 Ry     beta= 0.50
     Davidson diagonalization with overlap
     ethr =  5.03E-03,  avg # of iterations =  5.8

     negative rho (up, down):  2.405E-01 0.000E+00

     total cpu time spent up to now is      459.0 secs

     total energy              =    -692.25335074 Ry
     Harris-Foulkes estimate   =    -724.44557787 Ry
     estimated scf accuracy    <    5528.48379179 Ry

     iteration #  3     ecut=    80.00 Ry     beta= 0.50
     Davidson diagonalization with overlap
     ethr =  5.03E-03,  avg # of iterations =  4.0

     negative rho (up, down):  1.767E-01 0.000E+00

     total cpu time spent up to now is      467.4 secs

     total energy              =    -658.87201171 Ry
     Harris-Foulkes estimate   =    -738.56343245 Ry
     estimated scf accuracy    <   35113.99024953 Ry

     iteration #  4     ecut=    80.00 Ry     beta= 0.50
     Davidson diagonalization with overlap
     ethr =  5.03E-03,  avg # of iterations =  4.2

     total cpu time spent up to now is      477.0 secs

     total energy              =    -681.02384832 Ry
     Harris-Foulkes estimate   =    -712.51312197 Ry
     estimated scf accuracy    <   30310.04667113 Ry

     iteration #  5     ecut=    80.00 Ry     beta= 0.50
     Davidson diagonalization with overlap
     ethr =  5.03E-03,  avg # of iterations =  3.1

     negative rho (up, down):  1.516E-04 0.000E+00

     total cpu time spent up to now is      485.1 secs

     total energy              =    -696.79349699 Ry
     Harris-Foulkes estimate   =    -697.29079588 Ry
     estimated scf accuracy    <       5.87976698 Ry

     iteration #  6     ecut=    80.00 Ry     beta= 0.50
     Davidson diagonalization with overlap
     ethr =  5.03E-03,  avg # of iterations =  4.0

     total cpu time spent up to now is      492.3 secs

     total energy              =    -694.69153971 Ry
     Harris-Foulkes estimate   =    -699.12881251 Ry
     estimated scf accuracy    <     830.71438598 Ry

     iteration #  7     ecut=    80.00 Ry     beta= 0.50
     Davidson diagonalization with overlap
     ethr =  5.03E-03,  avg # of iterations =  4.0

     total cpu time spent up to now is      499.9 secs

     total energy              =    -696.95959533 Ry
     Harris-Foulkes estimate   =    -697.00934149 Ry
     estimated scf accuracy    <       1.61087789 Ry

     iteration #  8     ecut=    80.00 Ry     beta= 0.50
     Davidson diagonalization with overlap
     ethr =  1.52E-03,  avg # of iterations =  1.0

     total cpu time spent up to now is      505.7 secs

     total energy              =    -696.94126653 Ry
     Harris-Foulkes estimate   =    -696.97437495 Ry
     estimated scf accuracy    <       0.69081823 Ry

     iteration #  9     ecut=    80.00 Ry     beta= 0.50
     Davidson diagonalization with overlap
     ethr =  6.52E-04,  avg # of iterations =  1.0

     total cpu time spent up to now is      511.3 secs

     total energy              =    -696.92874100 Ry
     Harris-Foulkes estimate   =    -696.94527241 Ry
     estimated scf accuracy    <       0.37765719 Ry

     iteration # 10     ecut=    80.00 Ry     beta= 0.50
     Davidson diagonalization with overlap
     ethr =  3.56E-04,  avg # of iterations =  1.1

     total cpu time spent up to now is      516.7 secs

     total energy              =    -696.88399007 Ry
     Harris-Foulkes estimate   =    -696.93010013 Ry
     estimated scf accuracy    <       0.28422270 Ry

     iteration # 11     ecut=    80.00 Ry     beta= 0.50
     Davidson diagonalization with overlap
     ethr =  2.68E-04,  avg # of iterations =  2.4

     total cpu time spent up to now is      522.6 secs

     total energy              =    -696.89670042 Ry
     Harris-Foulkes estimate   =    -696.90336971 Ry
     estimated scf accuracy    <       0.06769069 Ry

     iteration # 12     ecut=    80.00 Ry     beta= 0.50
     Davidson diagonalization with overlap
     ethr =  6.39E-05,  avg # of iterations =  6.4

     total cpu time spent up to now is      530.1 secs

     total energy              =    -696.89770114 Ry
     Harris-Foulkes estimate   =    -696.90068323 Ry
     estimated scf accuracy    <       0.45946170 Ry

     iteration # 13     ecut=    80.00 Ry     beta= 0.50
     Davidson diagonalization with overlap
     ethr =  6.39E-05,  avg # of iterations =  2.0

     total cpu time spent up to now is      536.1 secs

     total energy              =    -696.89630090 Ry
     Harris-Foulkes estimate   =    -696.90360443 Ry
     estimated scf accuracy    <       4.96449569 Ry

     iteration # 14     ecut=    80.00 Ry     beta= 0.50
     Davidson diagonalization with overlap
     ethr =  6.39E-05,  avg # of iterations =  2.0

     total cpu time spent up to now is      541.9 secs

     total energy              =    -696.89964991 Ry
     Harris-Foulkes estimate   =    -696.89998569 Ry
     estimated scf accuracy    <       0.16472510 Ry

     iteration # 15     ecut=    80.00 Ry     beta= 0.50
     Davidson diagonalization with overlap
     ethr =  6.39E-05,  avg # of iterations =  1.0

     total cpu time spent up to now is      547.5 secs

     total energy              =    -696.89848860 Ry
     Harris-Foulkes estimate   =    -696.89993739 Ry
     estimated scf accuracy    <       0.06436855 Ry

     iteration # 16     ecut=    80.00 Ry     beta= 0.50
     Davidson diagonalization with overlap
     ethr =  6.07E-05,  avg # of iterations =  3.0

     total cpu time spent up to now is      553.5 secs

     total energy              =    -696.89170721 Ry
     Harris-Foulkes estimate   =    -696.90776861 Ry
     estimated scf accuracy    <       2.35121804 Ry

     iteration # 17     ecut=    80.00 Ry     beta= 0.50
     Davidson diagonalization with overlap
     ethr =  6.07E-05,  avg # of iterations =  3.2

     total cpu time spent up to now is      560.0 secs

     total energy              =    -696.89974222 Ry
     Harris-Foulkes estimate   =    -696.89976899 Ry
     estimated scf accuracy    <       0.00195212 Ry

     iteration # 18     ecut=    80.00 Ry     beta= 0.50
     Davidson diagonalization with overlap
     ethr =  1.84E-06,  avg # of iterations =  4.4

     total cpu time spent up to now is      566.6 secs

     total energy              =    -696.89976933 Ry
     Harris-Foulkes estimate   =    -696.89978574 Ry
     estimated scf accuracy    <       0.00122350 Ry

     iteration # 19     ecut=    80.00 Ry     beta= 0.50
     Davidson diagonalization with overlap
     ethr =  1.15E-06,  avg # of iterations =  1.0

     total cpu time spent up to now is      571.9 secs

     total energy              =    -696.89977436 Ry
     Harris-Foulkes estimate   =    -696.89978044 Ry
     estimated scf accuracy    <       0.00069217 Ry

     iteration # 20     ecut=    80.00 Ry     beta= 0.50
     Davidson diagonalization with overlap
     ethr =  6.53E-07,  avg # of iterations =  1.0

     total cpu time spent up to now is      577.5 secs

     total energy              =    -696.89977746 Ry
     Harris-Foulkes estimate   =    -696.89977821 Ry
     estimated scf accuracy    <       0.00003982 Ry

     iteration # 21     ecut=    80.00 Ry     beta= 0.50
     Davidson diagonalization with overlap
     ethr =  3.76E-08,  avg # of iterations =  3.0

     total cpu time spent up to now is      583.9 secs

     total energy              =    -696.89977842 Ry
     Harris-Foulkes estimate   =    -696.89977913 Ry
     estimated scf accuracy    <       0.00012341 Ry

     iteration # 22     ecut=    80.00 Ry     beta= 0.50
     Davidson diagonalization with overlap
[...]

   -29.9587 -14.7706 -14.7381 -10.6029 -10.4505 -10.0305  -7.1794  -6.6486
    -6.4641  -6.2201  -5.9899  -5.7990  -5.7603  -0.0366   0.0662   0.2207
     0.3045   0.4437   0.5125   4.9231   5.1072   5.3058   5.4801   5.6217
     5.7859   5.9772   6.2296   6.6301   6.7582   6.9449   6.9899   7.0347
     7.1939   7.3918   7.7360   7.7464   7.8796   7.8954   8.0071   8.2323
     8.4595   8.8677   8.8868   8.8967   9.0549   9.1611   9.2981   9.4604
     9.5350   9.8225   9.8441   9.9158   9.9669  10.5559  11.3958  14.4009
    14.5535  15.8337  16.0025  16.1102  17.1206  17.3138  17.8006  17.8673

          k = 0.0000 0.3757 0.0000 ( 13414 PWs)   bands (ev):

   -29.9531 -14.7171 -14.6861 -10.6745 -10.4952 -10.0227  -6.8824  -6.8502
    -6.4331  -6.1483  -5.9478  -5.9449  -5.9125  -0.0103   0.1070   0.2565
     0.3532   0.5431   0.6177   4.5110   4.7555   4.8272   5.3821   5.8331
     5.8389   5.8715   6.0367   6.5889   6.6711   6.6912   6.7096   6.8349
     6.9714   7.2752   7.4429   7.5454   7.7583   7.7858   8.0498   8.2874
     8.5231   8.8292   8.9327   8.9784   9.1064   9.2944   9.5376   9.5962
     9.7382   9.8047   9.8169   9.8182  10.0843  10.5314  12.0116  14.7894
    15.4095  15.8306  16.0474  16.7572  16.9543  17.0288  17.0858  18.1604

          k = 0.0000-0.5010 0.0000 ( 13392 PWs)   bands (ev):

   -29.9508 -14.6945 -14.6642 -10.7594 -10.4474 -10.0194  -6.9411  -6.7346
    -6.4768  -6.0343  -6.0341  -6.0060  -5.9233   0.0071   0.1217   0.2728
     0.3692   0.5860   0.6633   4.3136   4.5858   4.7049   5.3584   5.7375
     5.8641   6.0174   6.0215   6.3594   6.5692   6.6851   6.7492   6.7994
     6.8937   7.1896   7.2125   7.5224   7.6385   7.7617   8.1527   8.2964
     8.4373   8.9660   8.9943   9.0344   9.0378   9.2687   9.5663   9.6737
     9.7640   9.8087   9.8156   9.9414  10.2141  10.4093  12.2159  15.0229
    15.5044  15.8081  16.5596  16.6724  16.8657  17.1905  17.4231  18.2878

          k = 0.1275 0.0000 0.0000 ( 13435 PWs)   bands (ev):

   -29.9637 -14.8185 -14.7861 -10.6976 -10.1810 -10.0581  -7.4794  -6.6285
    -6.4456  -6.2605  -6.0465  -5.6427  -5.5303  -0.0975  -0.0228   0.2210
     0.2545   0.3605   0.3805   5.2614   5.3129   5.4660   5.4757   5.8008
     5.8366   6.6607   6.7289   6.8097   6.8727   7.0882   7.3782   7.3898
     7.4520   7.7430   7.7765   7.8396   7.9825   8.1098   8.1415   8.1717
     8.3253   8.5476   8.6645   8.7219   8.8426   8.8916   9.2021   9.2025
     9.6339   9.8314   9.9488  10.0504  10.0797  10.1151  10.2863  13.6662
    14.0571  15.1310  15.2468  15.9367  16.0879  17.0263  17.2448  17.5491

          k = 0.1275 0.1252 0.0000 ( 13438 PWs)   bands (ev):

   -29.9614 -14.7982 -14.7662 -10.6593 -10.1943 -10.1639  -7.3437  -6.5854
    -6.4757  -6.2306  -6.0731  -5.6910  -5.5928  -0.0845  -0.0264   0.1266
     0.1272   0.4773   0.4984   5.1692   5.3100   5.4291   5.4799   5.6084
     5.9142   6.2598   6.5882   6.7509   6.7636   6.9945   7.1233   7.1364
     7.4850   7.6806   7.7545   7.8400   7.9514   8.0152   8.0718   8.2257
     8.6129   8.6186   8.7551   8.7666   8.8684   8.8945   9.0452   9.3527
     9.6119   9.8037  10.0362  10.0754  10.2822  10.4198  10.5803  13.9385
    14.1963  15.4351  15.4941  15.8424  16.1312  17.1198  17.2656  17.4034

          k = 0.1275 0.2505 0.0000 ( 13418 PWs)   bands (ev):

   -29.9559 -14.7482 -14.7174 -10.5618 -10.4434 -10.1632  -7.0425  -6.6134
    -6.4783  -6.1749  -6.0777  -5.8055  -5.7414  -0.0578  -0.0497   0.0773
     0.0900   0.5364   0.5761   4.8281   5.1019   5.3115   5.4609   5.4945
     5.5348   6.0515   6.2090   6.6247   6.6732   6.7622   6.7764   7.0091
     7.1614   7.5185   7.7996   7.8349   7.8407   7.9704   7.9799   8.1880
     8.6175   8.7184   8.8260   8.9939   9.1065   9.2441   9.3322   9.3924
     9.4984   9.6180  10.0832  10.2728  10.3678  10.7202  11.3976  14.4412
    14.6999  15.6609  16.0045  16.2648  16.2703  17.2851  17.3002  17.6839

          k = 0.1275 0.3757 0.0000 ( 13399 PWs)   bands (ev):

   -29.9503 -14.6969 -14.6674 -10.6652 -10.4557 -10.1528  -6.8058  -6.7408
    -6.3938  -6.1304  -6.0337  -5.9198  -5.8907  -0.0299  -0.0021   0.0971
     0.1451   0.4943   0.5165   4.4494   4.7080   4.8030   5.3670   5.5605
     5.6432   5.9671   6.0767   6.3072   6.3259   6.7240   6.8004   6.9166
     6.9495   7.2579   7.7220   7.7454   7.7766   7.8818   8.1557   8.2381
     8.5963   8.7921   8.9644   9.0505   9.1881   9.3974   9.4486   9.5572
     9.6498   9.7759  10.0283  10.2293  10.4594  10.8126  11.9841  14.7502
    15.2721  15.5071  16.2096  16.9518  17.0212  17.1716  17.4536  18.0543

          k = 0.1275-0.5010 0.0000 ( 13404 PWs)   bands (ev):

   -29.9480 -14.6752 -14.6463 -10.7494 -10.4087 -10.1484  -6.8939  -6.5773
    -6.4237  -6.0356  -6.0090  -6.0080  -5.9684  -0.0012   0.0365   0.1229
     0.2083   0.4300   0.4423   4.2774   4.5025   4.6709   5.3419   5.5817
     5.7432   5.9010   6.0459   6.1483   6.1958   6.6821   6.8462   6.9001
     6.9004   7.1463   7.7035   7.7104   7.7168   7.8264   8.1587   8.3593
     8.6437   8.7569   9.0178   9.0909   9.1057   9.3983   9.5290   9.6272
     9.7825   9.9127  10.0441  10.1914  10.4566  10.7918  12.1763  15.0102
    15.1754  15.4379  16.7493  16.7724  17.1435  17.4065  17.5919  18.2615

          k = 0.2549 0.0000 0.0000 ( 13448 PWs)   bands (ev):

   -29.9569 -14.7562 -14.7286 -10.5879 -10.4701 -10.0487  -7.1903  -6.7396
    -6.5384  -6.1478  -6.1168  -5.7895  -5.5456  -0.2249   0.0164   0.3313
     0.3350   0.3626   0.4316   4.8549   4.9945   5.3971   5.5996   5.8356
     5.9027   6.5658   6.6878   6.6903   6.7392   6.8015   7.0170   7.0275
     7.4452   7.7149   7.7414   7.8009   7.8427   7.9409   8.1942   8.2072
     8.2132   8.5126   8.6822   8.9168   8.9516   8.9576   9.1374   9.3538
     9.7158   9.7417   9.7451   9.8637   9.9366  10.2038  10.5173  14.2463
    14.5581  15.8558  15.8909  16.0308  16.6335  17.5246  17.5552  17.6840

          k = 0.2549 0.1252 0.0000 ( 13432 PWs)   bands (ev):

   -29.9546 -14.7379 -14.7106 -10.5510 -10.4639 -10.1676  -7.0541  -6.6832
    -6.5197  -6.1832  -6.1175  -5.7991  -5.5838  -0.2317   0.0185   0.0272
     0.1126   0.5272   0.5345   4.7678   4.9935   5.3903   5.5175   5.6083
     5.9560   6.2395   6.4399   6.5817   6.6636   6.6775   6.8162   7.0305
     7.4579   7.5042   7.8250   7.8409   7.9603   7.9779   8.0035   8.1872
     8.5053   8.6404   8.7050   8.9232   8.9823   9.1288   9.2460   9.2617
     9.5650   9.6330   9.9760  10.2863  10.2985  10.6685  10.6920  14.3281
    14.6874  15.6508  16.1736  16.2517  16.4509  17.3624  17.3721  17.8124

          k = 0.2549 0.2505 0.0000 ( 13425 PWs)   bands (ev):

   -29.9491 -14.6930 -14.6665 -10.4592 -10.4570 -10.4092  -6.7546  -6.5419
    -6.5244  -6.2795  -6.0588  -5.8245  -5.6920  -0.2894  -0.2410  -0.0392
     0.0277   0.4455   0.4552   4.4525   4.9059   5.3105   5.3316   5.3467
     5.4310   6.0543   6.1019   6.2235   6.3557   6.7494   6.8116   7.0123
     7.1729   7.4652   7.5164   7.7633   8.0125   8.1142   8.3169   8.4547
     8.5539   8.8712   9.0384   9.0673   9.1193   9.1742   9.4719   9.5007
     9.5098   9.6407  10.1723  10.3371  10.9886  11.2111  11.4034  14.3204
    15.0193  15.4235  16.1858  16.9318  16.9750  17.2847  17.5128  17.6562

          k = 0.2549 0.3757 0.0000 ( 13420 PWs)   bands (ev):

   -29.9436 -14.6472 -14.6215 -10.6429 -10.4280 -10.3549  -6.6945  -6.4660
    -6.3034  -6.2476  -6.0506  -5.8571  -5.8377  -0.3146  -0.3089  -0.0870
     0.0228   0.1897   0.2461   4.0820   4.6299   4.7028   5.2287   5.2987
     5.3864   5.6780   5.8581   6.2790   6.3045   6.7677   6.7836   6.9878
     6.9994   7.2315   7.3977   7.8427   8.0252   8.2757   8.5882   8.6768
     8.7059   8.9277   9.1248   9.2382   9.3432   9.4504   9.5003   9.6264
     9.7555   9.7698  10.1403  10.2818  11.3574  11.5330  11.9088  14.1637
    14.9888  15.5122  16.7012  16.7780  17.3451  17.5848  17.7446  17.9944

          k = 0.2549-0.5010 0.0000 ( 13428 PWs)   bands (ev):

   -29.9413 -14.6279 -14.6025 -10.7253 -10.4220 -10.3098  -6.7752  -6.2825
    -6.2318  -6.2171  -6.0437  -5.9531  -5.8738  -0.2278  -0.1724  -0.1650
    -0.1645   0.1003   0.1320   3.9278   4.4634   4.4850   5.2066   5.3268
     5.3739   5.5326   5.7670   6.2761   6.3030   6.7244   6.8162   6.9207
     7.0682   7.0968   7.3662   7.8766   8.0438   8.2948   8.6214   8.8595
     8.8784   8.9694   9.1540   9.2625   9.3074   9.4486   9.6155   9.7877
     9.8642   9.8875  10.0556  10.1918  11.4549  11.6136  12.0644  14.0879
    14.9536  15.5147  16.5433  17.2139  17.4631  17.8047  17.8406  18.1159

          k = 0.3824 0.0000 0.0000 ( 13438 PWs)   bands (ev):

   -29.9500 -14.6917 -14.6695 -10.7153 -10.4675 -10.0392  -6.9303  -6.8617
    -6.7409  -6.0848  -6.0626  -5.9331  -5.5359  -0.3020   0.0655   0.3176
     0.4273   0.4489   0.4777   4.4858   4.6516   5.3812   5.7906   5.8575
     5.9043   6.3923   6.5220   6.5337   6.5711   6.6861   6.6904   6.8023
     7.3718   7.3977   7.5738   7.6975   7.9130   8.1228   8.1371   8.1587
     8.2202   8.5284   8.6758   8.8924   9.0357   9.1663   9.4251   9.4623
     9.6299   9.6532   9.6630   9.7464   9.8871  10.2651  10.5728  14.6037
    15.2762  15.7845  16.5684  16.8153  17.2119  17.5935  17.6518  17.6649

          k = 0.3824 0.1252 0.0000 ( 13469 PWs)   bands (ev):

   -29.9477 -14.6757 -14.6535 -10.7072 -10.4322 -10.1552  -6.8269  -6.7559
    -6.7016  -6.1615  -6.0299  -5.9096  -5.5560  -0.3026   0.0390   0.0846
     0.1562   0.4345   0.4478   4.3742   4.6271   5.3658   5.6460   5.6848
     5.9485   6.1952   6.2299   6.2368   6.3520   6.5776   6.8582   6.9317
     7.3248   7.4038   7.7387   7.7927   7.8514   8.1160   8.1382   8.2838
     8.3498   8.5658   8.8576   8.9952   9.0619   9.2414   9.4716   9.4779
     9.5282   9.5733   9.7724  10.2054  10.3759  10.7015  10.8054  14.4693
    15.3131  15.5262  16.6343  16.9352  17.0604  17.5181  17.6967  17.9332

          k = 0.3824 0.2505 0.0000 ( 13436 PWs)   bands (ev):

   -29.9423 -14.6363 -14.6144 -10.6876 -10.4028 -10.3423  -6.6252  -6.6059
    -6.4535  -6.3482  -5.9543  -5.8522  -5.6315  -0.3612  -0.3326  -0.1433
     0.0424   0.1600   0.1986   4.0251   4.5044   5.2452   5.3782   5.3782
     5.4260   5.6281   5.9282   6.2456   6.2666   6.7889   6.8647   6.9946
     7.1580   7.2087   7.4329   7.8787   8.2190   8.2589   8.5639   8.5824
     8.7133   8.7887   9.0989   9.1865   9.3451   9.4351   9.4694   9.5533
     9.6013   9.6758  10.0850  10.2328  11.2896  11.4179  11.5130  13.9982
    14.9391  15.6868  16.7330  17.2063  17.2650  17.4177  17.8015  17.9384

          k = 0.3824 0.3757 0.0000 ( 13442 PWs)   bands (ev):

   -29.9369 -14.5962 -14.5746 -10.6685 -10.6174 -10.2449  -6.5791  -6.4659
    -6.3543  -6.1519  -5.9009  -5.7959  -5.7842  -0.5782  -0.5187  -0.2738
    -0.2527  -0.0824   0.0872   3.6256   4.2491   4.7379   5.1128   5.1661
     5.2265   5.3847   5.8171   6.2772   6.4530   6.6960   6.8346   6.9832
     7.0361   7.1019   7.2271   7.9706   8.3463   8.6009   8.8848   8.9763
     8.9847   9.1883   9.2938   9.3836   9.3842   9.4216   9.7166   9.7587
     9.8090   9.9017  10.0926  10.3599  11.8144  11.9615  12.0721  13.5149
    14.6973  15.8408  16.6219  17.1077  17.2800  17.4908  17.6495  17.8648

          k = 0.3824-0.5010 0.0000 ( 13428 PWs)   bands (ev):

   -29.9346 -14.5794 -14.5579 -10.7012 -10.6586 -10.2020  -6.6491  -6.4336
    -6.1059  -6.0588  -5.9198  -5.9176  -5.7732  -0.5804  -0.5674  -0.5234
    -0.3343  -0.1643   0.0900   3.4580   4.1101   4.4946   5.0738   5.0904
     5.1227   5.3771   5.7877   6.2901   6.5295   6.6312   6.7911   6.9161
     7.0285   7.0491   7.2227   7.9912   8.3814   8.7701   9.0271   9.0356
     9.1642   9.3085   9.3182   9.4277   9.5013   9.5490   9.7418   9.8716
     9.8798   9.9216  10.2365  10.3388  11.9173  12.1719  12.2636  13.3308
    14.6455  15.8680  16.3226  17.1187  17.2778  17.4537  17.7599  17.9954

          k =-0.5099 0.0000 0.0000 ( 13416 PWs)   bands (ev):

   -29.9471 -14.6644 -14.6445 -10.8080 -10.4139 -10.0353  -6.9365  -6.8399
    -6.8015  -6.0585  -6.0394  -5.9924  -5.5253  -0.3289   0.0898   0.3115
     0.4198   0.5001   0.5278   4.3428   4.5072   5.3870   5.8005   5.9176
     5.9545   6.3457   6.3730   6.4675   6.4891   6.5053   6.5389   6.9679
     7.1406   7.3105   7.5578   7.6940   7.9230   8.1282   8.1377   8.2105
     8.2514   8.5371   8.5946   9.0374   9.0777   9.2164   9.3793   9.4628
     9.5889   9.6396   9.6893   9.8526   9.8548  10.2803  10.5197  14.7323
    15.6276  15.7574  16.6818  17.3174  17.5231  17.6008  17.6138  17.7159

          k =-0.5099 0.1252 0.0000 ( 13450 PWs)   bands (ev):

   -29.9449 -14.6493 -14.6294 -10.7993 -10.3792 -10.1500  -6.8611  -6.7969
    -6.6600  -6.1343  -6.0060  -5.9568  -5.5389  -0.3243   0.0786   0.1464
     0.2868   0.2894   0.3299   4.2199   4.4722   5.3596   5.6875   5.8637
     5.9485   5.9844   6.0315   6.1649   6.3209   6.5828   6.7333   7.0486
     7.2650   7.3611   7.7005   7.7100   7.8654   8.1319   8.1670   8.2920
     8.4312   8.5932   8.7965   9.0730   9.1249   9.2461   9.3944   9.5117
     9.6013   9.6068   9.8264  10.1614  10.3768  10.6983  10.7828  14.4881
    15.3507  15.7060  16.9472  17.0326  17.5814  17.6290  17.7598  18.0131

          k =-0.5099 0.2505 0.0000 ( 13432 PWs)   bands (ev):

   -29.9395 -14.6123 -14.5924 -10.7783 -10.3956 -10.2913  -6.6892  -6.6495
    -6.3489  -6.3206  -5.9229  -5.8671  -5.6004  -0.3387  -0.2347  -0.1430
    -0.1414  -0.0027   0.1032   3.8536   4.3277   5.2335   5.3788   5.4392
     5.4445   5.4501   5.8233   6.2288   6.2322   6.8746   6.9015   6.9644
     7.1266   7.1751   7.3822   7.9290   8.2332   8.4106   8.5856   8.6413
     8.7578   8.8955   9.1541   9.2462   9.2781   9.4709   9.5215   9.5429
     9.7517   9.8658   9.8701  10.1385  11.3464  11.4334  11.5826  13.8358
    14.8531  15.9025  17.1124  17.1968  17.3824  17.4139  17.8431  17.9427

          k =-0.5099 0.3757 0.0000 ( 13458 PWs)   bands (ev):

   -29.9341 -14.5748 -14.5549 -10.7573 -10.6095 -10.1961  -6.5752  -6.5127
    -6.3473  -6.0682  -5.8386  -5.7713  -5.7496  -0.5982  -0.5715  -0.5210
    -0.2993  -0.2655   0.0976   3.4376   4.0654   4.7535   5.0587   5.0833
     5.1562   5.3899   5.8046   6.2340   6.4516   6.8008   6.8890   6.9163
     6.9210   7.1333   7.2068   8.0077   8.5312   8.7034   8.9811   9.0399
     9.0922   9.2710   9.3529   9.4455   9.4496   9.6609   9.7297   9.7468
     9.7581   9.9285  10.2323  10.2584  11.7797  12.1505  12.2532  13.2578
    14.5971  16.0550  16.5743  16.9862  17.1890  17.4856  17.7259  17.8643

          k =-0.5099-0.5010 0.0000 ( 13452 PWs)   bands (ev):

   -29.9318 -14.5590 -14.5392 -10.7486 -10.6912 -10.1542  -6.5944  -6.5259
    -6.0670  -5.9759  -5.9585  -5.7934  -5.7294  -0.7455  -0.7060  -0.6691
    -0.3661  -0.3151   0.1002   3.2625   3.9272   4.5098   4.9283   5.0380
     5.0927   5.3855   5.7975   6.2453   6.5532   6.7333   6.8170   6.8508
     6.8855   7.0579   7.2535   8.0259   8.5785   8.9898   9.0573   9.1272
     9.1479   9.4195   9.4937   9.5354   9.6122   9.6681   9.6846   9.8488
     9.8960   9.9154  10.3823  10.4543  11.8566  12.4169  12.5053  13.0396
    14.5443  16.0912  16.2446  16.9507  17.0924  17.1412  17.5743  18.0754

     the Fermi energy is    10.5552 ev

!    total energy              =    -696.90139569 Ry
     Harris-Foulkes estimate   =    -696.90139569 Ry
     estimated scf accuracy    <          4.5E-09 Ry

     The total energy is the sum of the following terms:

     one-electron contribution =    -190.89957500 Ry
     hartree contribution      =     182.39606949 Ry
     xc contribution           =    -149.15791555 Ry
     ewald contribution        =    -539.23722369 Ry
     smearing contrib. (-TS)   =      -0.00275094 Ry

     convergence has been achieved in  36 iterations

     Forces acting on atoms (cartesian axes, Ry/au):

     atom    1 type  2   force =     0.00000000    0.00000000   -0.00050132
     atom    2 type  2   force =     0.00000000    0.00000000    0.00050132
     atom    3 type  1   force =     0.00000000    0.00000000    0.00000000
     atom    4 type  4   force =     0.00000000    0.00000000   -0.00011478
     atom    5 type  4   force =     0.00000000    0.00000000    0.00011478
     atom    6 type  4   force =     0.00000000    0.00000000    0.00000000
     atom    7 type  3   force =     0.00000000    0.00000000    0.00000000
     atom    8 type  3   force =     0.00000000    0.00000000    0.00003057
     atom    9 type  3   force =     0.00000000    0.00000000   -0.00003057
     atom   10 type  3   force =     0.00000000    0.00000000    0.00010407
     atom   11 type  3   force =     0.00000000    0.00000000   -0.00010407
     atom   12 type  3   force =     0.00000000    0.00000000   -0.00007498
     atom   13 type  3   force =     0.00000000    0.00000000    0.00007498

     Total force =     0.000751     Total SCF correction =     0.000015


     Computing stress (Cartesian axis) and pressure

          total   stress  (Ry/bohr**3)                   (kbar)     P=       -0.08
  -0.00000026   0.00000000   0.00000000           -0.04        0.00        0.00
   0.00000000  -0.00000122   0.00000000            0.00       -0.18        0.00
   0.00000000   0.00000000  -0.00000012            0.00        0.00       -0.02


     Writing output data file /n/holyscratch01/hoffman_lab/ruizhe/outdir/YBCO_ecut80.save/
 
     init_run     :     10.98s CPU     11.51s WALL (       2 calls)
     electrons    :   3475.20s CPU   3683.57s WALL (      32 calls)
     update_pot   :    140.55s CPU    140.99s WALL (      30 calls)
     forces       :    104.80s CPU    108.55s WALL (      32 calls)
     stress       :    277.33s CPU    287.37s WALL (      32 calls)

     Called by init_run:
     wfcinit      :      3.24s CPU      3.36s WALL (       2 calls)
     potinit      :      2.50s CPU      2.51s WALL (       2 calls)
     hinit0       :      4.03s CPU      4.22s WALL (       2 calls)

     Called by electrons:
     c_bands      :   2473.24s CPU   2562.06s WALL (     574 calls)
     sum_band     :    687.13s CPU    749.58s WALL (     574 calls)
     v_of_rho     :      6.11s CPU      6.75s WALL (     606 calls)
     newd         :    316.42s CPU    373.89s WALL (     606 calls)
     mix_rho      :      5.43s CPU      5.52s WALL (     574 calls)

     Called by c_bands:
     init_us_2    :     25.05s CPU     25.44s WALL (   30350 calls)
     cegterg      :   2331.54s CPU   2411.72s WALL (   14350 calls)

     Called by sum_band:
     sum_band:bec :      0.85s CPU      0.86s WALL (   14350 calls)
     addusdens    :    249.57s CPU    306.42s WALL (     574 calls)

     Called by *egterg:
     h_psi        :   1518.47s CPU   1563.56s WALL (   47020 calls)
     s_psi        :     57.59s CPU     60.70s WALL (   47020 calls)
     g_psi        :      4.85s CPU      4.96s WALL (   32620 calls)
     cdiaghg      :    381.84s CPU    383.86s WALL (   46220 calls)

     Called by h_psi:
     h_psi:calbec :     85.00s CPU     93.70s WALL (   47020 calls)
     vloc_psi     :   1360.69s CPU   1385.46s WALL (   47020 calls)
     add_vuspsi   :     64.45s CPU     66.58s WALL (   47020 calls)

     General routines
     calbec       :    140.82s CPU    150.14s WALL (   65370 calls)
     fft          :     26.64s CPU     27.06s WALL (    3858 calls)
     ffts         :      0.85s CPU      0.87s WALL (    1180 calls)
     fftw         :   1526.47s CPU   1553.69s WALL ( 5133346 calls)
     interpolate  :      2.41s CPU      2.43s WALL (     606 calls)
 
     Parallel routines
     fft_scatt_xy :    152.56s CPU    155.03s WALL ( 5138384 calls)
     fft_scatt_yz :    711.92s CPU    725.31s WALL ( 5138384 calls)
 
     PWSCF        :      1h 7m CPU      1h10m WALL

 
   This run was terminated on:   1:19:11  13Apr2021            

=------------------------------------------------------------------------------=
   JOB DONE.
=------------------------------------------------------------------------------=
