
     Program PWSCF v.6.5 starts on 13Apr2021 at 22:45: 0 

     This program is part of the open-source Quantum ESPRESSO suite
     for quantum simulation of materials; please cite
         "P. Giannozzi et al., J. Phys.:Condens. Matter 21 395502 (2009);
         "P. Giannozzi et al., J. Phys.:Condens. Matter 29 465901 (2017);
          URL http://www.quantum-espresso.org", 
     in publications or presentations arising from this work. More details at
     http://www.quantum-espresso.org/quote

     Parallel version (MPI), running on    10 processors

     MPI processes distributed on     1 nodes
     R & G space division:  proc/nbgrp/npool/nimage =      10
     Reading input from YBCO_ecut60.pwi

     Current dimensions of program PWSCF are:
     Max number of different atomic species (ntypx) = 10
     Max number of k-points (npk) =  40000
     Max angular momentum in pseudopotentials (lmaxx) =  3
               file Y.pz-spn-rrkjus_psl.1.0.0.UPF: wavefunction(s)  4S renormalized
               file Ba.pz-spn-rrkjus_psl.1.0.0.UPF: wavefunction(s)  5S 6S renormalized
               file O.pz-rrkjus.UPF: wavefunction(s)  2S renormalized
               file Cu.pz-d-rrkjus.UPF: wavefunction(s)  3D renormalized

     Subspace diagonalization in iterative solution of the eigenvalue problem:
     one sub-group per band group will be used
     scalapack distributed-memory algorithm (size of sub-group:  3*  3 procs)

     Message from routine setup:
     using ibrav=0 with symmetry is DISCOURAGED, use correct ibrav instead
 
     Parallelization info
     --------------------
     sticks:   dense  smooth     PW     G-vecs:    dense   smooth      PW
     Min         309     103     29                39295     7561    1179
     Max         310     104     30                39300     7569    1190
     Sum        3093    1031    293               392963    75649   11819
 


     bravais-lattice index     =            0
     lattice parameter (alat)  =       7.2654  a.u.
     unit-cell volume          =    1204.4104 (a.u.)^3
     number of atoms/cell      =           13
     number of atomic types    =            4
     number of electrons       =       106.00
     number of Kohn-Sham states=           64
     kinetic-energy cutoff     =      60.0000  Ry
     charge density cutoff     =     720.0000  Ry
     convergence threshold     =      1.0E-06
     mixing beta               =       0.5000
     number of iterations used =            8  plain     mixing
     Exchange-correlation= SLA PZ NOGX NOGC
                           (   1   1   0   0   0   0   0)
     nstep                     =          300


     celldm(1)=   7.265373  celldm(2)=   0.000000  celldm(3)=   0.000000
     celldm(4)=   0.000000  celldm(5)=   0.000000  celldm(6)=   0.000000

     crystal axes: (cart. coord. in units of alat)
               a(1) = (   1.000000   0.000000   0.000000 )  
               a(2) = (   0.000000   1.021193   0.000000 )  
               a(3) = (   0.000000   0.000000   3.075338 )  

     reciprocal axes: (cart. coord. in units 2 pi/alat)
               b(1) = (  1.000000  0.000000  0.000000 )  
               b(2) = (  0.000000  0.979247  0.000000 )  
               b(3) = (  0.000000  0.000000  0.325168 )  


     PseudoPot. # 1 for Y  read from file:
     ./pseudo/Y.pz-spn-rrkjus_psl.1.0.0.UPF
     MD5 check sum: ea98a87c201a6887fec0b907919e69e1
     Pseudo is Ultrasoft + core correction, Zval = 11.0
     Generated using "atomic" code by A. Dal Corso v.6.2.2
     Using radial grid of 1223 points,  6 beta functions with: 
                l(1) =   0
                l(2) =   0
                l(3) =   1
                l(4) =   1
                l(5) =   2
                l(6) =   2
     Q(r) pseudized with 0 coefficients 


     PseudoPot. # 2 for Ba read from file:
     ./pseudo/Ba.pz-spn-rrkjus_psl.1.0.0.UPF
     MD5 check sum: 687b47877062a240b7e905a3e0e5c78b
     Pseudo is Ultrasoft + core correction, Zval = 10.0
     Generated using "atomic" code by A. Dal Corso v.6.2.2
     Using radial grid of 1251 points,  7 beta functions with: 
                l(1) =   0
                l(2) =   0
                l(3) =   0
                l(4) =   1
                l(5) =   1
                l(6) =   2
                l(7) =   2
     Q(r) pseudized with 0 coefficients 


     PseudoPot. # 3 for O  read from file:
     ./pseudo/O.pz-rrkjus.UPF
     MD5 check sum: 039abfcbbabbdfc0eb99fd57dcb11de2
     Pseudo is Ultrasoft, Zval =  6.0
     Generated by new atomic code, or converted to UPF format
     Using radial grid of 1269 points,  4 beta functions with: 
                l(1) =   0
                l(2) =   0
                l(3) =   1
                l(4) =   1
     Q(r) pseudized with 0 coefficients 


     PseudoPot. # 4 for Cu read from file:
     ./pseudo/Cu.pz-d-rrkjus.UPF
     MD5 check sum: 268b017640135c8b13c10cec7c6cb709
     Pseudo is Ultrasoft, Zval = 11.0
     Generated by new atomic code, or converted to UPF format
     Using radial grid of  899 points,  3 beta functions with: 
                l(1) =   2
                l(2) =   2
                l(3) =   1
     Q(r) pseudized with 0 coefficients 


     atomic species   valence    mass     pseudopotential
        Y             11.00    88.90585     Y ( 1.00)
        Ba            10.00   137.32700     Ba( 1.00)
        O              6.00    15.99900     O ( 1.00)
        Cu            11.00    63.55000     Cu( 1.00)

      8 Sym. Ops., with inversion, found



   Cartesian axes

     site n.     atom                  positions (alat units)
         1           Ba  tau(   1) = (   0.4999997   0.5105967   2.5199052  )
         2           Ba  tau(   2) = (   0.4999997   0.5105967   0.5554339  )
         3           Y   tau(   3) = (   0.4999997   0.5105967   1.5376696  )
         4           Cu  tau(   4) = (   0.0000000   0.0000000   1.9887540  )
         5           Cu  tau(   5) = (   0.0000000   0.0000000   1.0865848  )
         6           Cu  tau(   6) = (   0.0000000   0.0000000   0.0000000  )
         7           O   tau(   7) = (   0.0000000   0.5105967   0.0000000  )
         8           O   tau(   8) = (   0.4999997   0.0000000   1.9087183  )
         9           O   tau(   9) = (   0.4999997   0.0000000   1.1666205  )
        10           O   tau(  10) = (   0.0000000   0.5105967   1.9117875  )
        11           O   tau(  11) = (   0.0000000   0.5105967   1.1635516  )
        12           O   tau(  12) = (   0.0000000   0.0000000   2.5858066  )
        13           O   tau(  13) = (   0.0000000   0.0000000   0.4895325  )

     number of k points=    25  Gaussian smearing, width (Ry)=  0.0100
                       cart. coord. in units 2pi/alat
        k(    1) = (   0.0000000   0.0000000   0.0000000), wk =   0.0312500
        k(    2) = (   0.0000000   0.1224059   0.0000000), wk =   0.0625000
        k(    3) = (   0.0000000   0.2448117   0.0000000), wk =   0.0625000
        k(    4) = (   0.0000000   0.3672176   0.0000000), wk =   0.0625000
        k(    5) = (   0.0000000  -0.4896234   0.0000000), wk =   0.0312500
        k(    6) = (   0.1250000   0.0000000   0.0000000), wk =   0.0625000
        k(    7) = (   0.1250000   0.1224059   0.0000000), wk =   0.1250000
        k(    8) = (   0.1250000   0.2448117   0.0000000), wk =   0.1250000
        k(    9) = (   0.1250000   0.3672176   0.0000000), wk =   0.1250000
        k(   10) = (   0.1250000  -0.4896234   0.0000000), wk =   0.0625000
        k(   11) = (   0.2500000   0.0000000   0.0000000), wk =   0.0625000
        k(   12) = (   0.2500000   0.1224059   0.0000000), wk =   0.1250000
        k(   13) = (   0.2500000   0.2448117   0.0000000), wk =   0.1250000
        k(   14) = (   0.2500000   0.3672176   0.0000000), wk =   0.1250000
        k(   15) = (   0.2500000  -0.4896234   0.0000000), wk =   0.0625000
        k(   16) = (   0.3750000   0.0000000   0.0000000), wk =   0.0625000
        k(   17) = (   0.3750000   0.1224059   0.0000000), wk =   0.1250000
        k(   18) = (   0.3750000   0.2448117   0.0000000), wk =   0.1250000
        k(   19) = (   0.3750000   0.3672176   0.0000000), wk =   0.1250000
        k(   20) = (   0.3750000  -0.4896234   0.0000000), wk =   0.0625000
        k(   21) = (  -0.5000000   0.0000000   0.0000000), wk =   0.0312500
        k(   22) = (  -0.5000000   0.1224059   0.0000000), wk =   0.0625000
        k(   23) = (  -0.5000000   0.2448117   0.0000000), wk =   0.0625000
        k(   24) = (  -0.5000000   0.3672176   0.0000000), wk =   0.0625000
        k(   25) = (  -0.5000000  -0.4896234   0.0000000), wk =   0.0312500

     Dense  grid:   392963 G-vectors     FFT dimensions: (  64,  64, 192)

     Smooth grid:    75649 G-vectors     FFT dimensions: (  36,  40, 120)

     Estimated max dynamical RAM per process >     223.51 MB

     Estimated total dynamical RAM >       2.18 GB

     Initial potential from superposition of free atoms

     starting charge  105.96668, renormalised to  106.00000
     Starting wfcs are   69 randomized atomic wfcs

     total cpu time spent up to now is        4.9 secs

     Self-consistent Calculation

     iteration #  1     ecut=    60.00 Ry     beta= 0.50
     Davidson diagonalization with overlap
     ethr =  1.00E-02,  avg # of iterations =  4.9

     total cpu time spent up to now is        9.0 secs

     total energy              =    -693.31479191 Ry
     Harris-Foulkes estimate   =    -698.55521008 Ry
     estimated scf accuracy    <       7.75528356 Ry

     iteration #  2     ecut=    60.00 Ry     beta= 0.50
     Davidson diagonalization with overlap
     ethr =  7.32E-03,  avg # of iterations =  2.4

     negative rho (up, down):  1.800E-01 0.000E+00

     total cpu time spent up to now is       12.5 secs

     total energy              =    -693.70229682 Ry
     Harris-Foulkes estimate   =    -699.65361195 Ry
     estimated scf accuracy    <     703.37848834 Ry

     iteration #  3     ecut=    60.00 Ry     beta= 0.50
     Davidson diagonalization with overlap
     ethr =  7.32E-03,  avg # of iterations =  3.6

     negative rho (up, down):  3.587E-01 0.000E+00

     total cpu time spent up to now is       16.6 secs

     total energy              =    -681.86781889 Ry
     Harris-Foulkes estimate   =    -714.10438748 Ry
     estimated scf accuracy    <   28331.45501506 Ry

     iteration #  4     ecut=    60.00 Ry     beta= 0.50
     Davidson diagonalization with overlap
     ethr =  7.32E-03,  avg # of iterations =  4.0

     negative rho (up, down):  1.247E-03 0.000E+00

     total cpu time spent up to now is       21.2 secs

     total energy              =    -670.69035357 Ry
     Harris-Foulkes estimate   =    -730.89802152 Ry
     estimated scf accuracy    <   48742.72551882 Ry

     iteration #  5     ecut=    60.00 Ry     beta= 0.50
     Davidson diagonalization with overlap
     ethr =  7.32E-03,  avg # of iterations =  3.1

     negative rho (up, down):  7.367E-03 0.000E+00

     total cpu time spent up to now is       25.1 secs

     total energy              =    -695.81835206 Ry
     Harris-Foulkes estimate   =    -698.54406072 Ry
     estimated scf accuracy    <      62.88265630 Ry

     iteration #  6     ecut=    60.00 Ry     beta= 0.50
     Davidson diagonalization with overlap
     ethr =  7.32E-03,  avg # of iterations =  4.0

     total cpu time spent up to now is       28.7 secs

     total energy              =    -693.34863118 Ry
     Harris-Foulkes estimate   =    -700.20384370 Ry
     estimated scf accuracy    <    1340.71792002 Ry

     iteration #  7     ecut=    60.00 Ry     beta= 0.50
     Davidson diagonalization with overlap
     ethr =  7.32E-03,  avg # of iterations =  3.8

     total cpu time spent up to now is       32.5 secs

     total energy              =    -696.89553130 Ry
     Harris-Foulkes estimate   =    -696.93835130 Ry
     estimated scf accuracy    <       6.60398975 Ry

     iteration #  8     ecut=    60.00 Ry     beta= 0.50
     Davidson diagonalization with overlap
     ethr =  6.23E-03,  avg # of iterations =  1.2

     total cpu time spent up to now is       35.1 secs

     total energy              =    -696.89271185 Ry
     Harris-Foulkes estimate   =    -696.90997959 Ry
     estimated scf accuracy    <       4.65214891 Ry

     iteration #  9     ecut=    60.00 Ry     beta= 0.50
     Davidson diagonalization with overlap
     ethr =  4.39E-03,  avg # of iterations =  1.0

     total cpu time spent up to now is       37.7 secs

     total energy              =    -696.85055857 Ry
     Harris-Foulkes estimate   =    -696.89805996 Ry
     estimated scf accuracy    <       2.60983191 Ry

     iteration # 10     ecut=    60.00 Ry     beta= 0.50
     Davidson diagonalization with overlap
     ethr =  2.46E-03,  avg # of iterations =  1.0

     total cpu time spent up to now is       40.4 secs

     total energy              =    -696.86741168 Ry
     Harris-Foulkes estimate   =    -696.86946720 Ry
     estimated scf accuracy    <       0.86841837 Ry

     iteration # 11     ecut=    60.00 Ry     beta= 0.50
     Davidson diagonalization with overlap
     ethr =  8.19E-04,  avg # of iterations =  1.3

     total cpu time spent up to now is       43.2 secs

     total energy              =    -696.86875258 Ry
     Harris-Foulkes estimate   =    -696.86988066 Ry
     estimated scf accuracy    <       0.71393387 Ry

     iteration # 12     ecut=    60.00 Ry     beta= 0.50
     Davidson diagonalization with overlap
     ethr =  6.74E-04,  avg # of iterations =  1.2

     total cpu time spent up to now is       46.0 secs

     total energy              =    -696.86834855 Ry
     Harris-Foulkes estimate   =    -696.86931105 Ry
     estimated scf accuracy    <       0.31652106 Ry

     iteration # 13     ecut=    60.00 Ry     beta= 0.50
     Davidson diagonalization with overlap
     ethr =  2.99E-04,  avg # of iterations =  1.8

     total cpu time spent up to now is       48.9 secs

     total energy              =    -696.86781292 Ry
     Harris-Foulkes estimate   =    -696.86925972 Ry
     estimated scf accuracy    <       0.28756854 Ry

     iteration # 14     ecut=    60.00 Ry     beta= 0.50
     Davidson diagonalization with overlap
     ethr =  2.71E-04,  avg # of iterations =  2.0

     total cpu time spent up to now is       51.8 secs

     total energy              =    -696.86517496 Ry
     Harris-Foulkes estimate   =    -696.87289081 Ry
     estimated scf accuracy    <       5.73937736 Ry

     iteration # 15     ecut=    60.00 Ry     beta= 0.50
     Davidson diagonalization with overlap
     ethr =  2.71E-04,  avg # of iterations =  2.0

     total cpu time spent up to now is       54.8 secs

     total energy              =    -696.86878862 Ry
     Harris-Foulkes estimate   =    -696.86895607 Ry
     estimated scf accuracy    <       0.02296935 Ry

     iteration # 16     ecut=    60.00 Ry     beta= 0.50
     Davidson diagonalization with overlap
     ethr =  2.17E-05,  avg # of iterations =  6.6

     total cpu time spent up to now is       58.9 secs

     total energy              =    -696.86891065 Ry
     Harris-Foulkes estimate   =    -696.86899980 Ry
     estimated scf accuracy    <       0.01859314 Ry

     iteration # 17     ecut=    60.00 Ry     beta= 0.50
     Davidson diagonalization with overlap
     ethr =  1.75E-05,  avg # of iterations =  1.0

     total cpu time spent up to now is       61.6 secs

     total energy              =    -696.86891333 Ry
     Harris-Foulkes estimate   =    -696.86894237 Ry
     estimated scf accuracy    <       0.01123304 Ry

     iteration # 18     ecut=    60.00 Ry     beta= 0.50
     Davidson diagonalization with overlap
     ethr =  1.06E-05,  avg # of iterations =  1.2

     total cpu time spent up to now is       64.4 secs

     total energy              =    -696.86893004 Ry
     Harris-Foulkes estimate   =    -696.86893402 Ry
     estimated scf accuracy    <       0.00005621 Ry

     iteration # 19     ecut=    60.00 Ry     beta= 0.50
     Davidson diagonalization with overlap
     ethr =  5.30E-08,  avg # of iterations =  4.0

     total cpu time spent up to now is       67.9 secs

     total energy              =    -696.86893399 Ry
     Harris-Foulkes estimate   =    -696.86893881 Ry
     estimated scf accuracy    <       0.00124584 Ry

     iteration # 20     ecut=    60.00 Ry     beta= 0.50
     Davidson diagonalization with overlap
     ethr =  5.30E-08,  avg # of iterations =  3.0

     total cpu time spent up to now is       71.1 secs

     total energy              =    -696.86893625 Ry
     Harris-Foulkes estimate   =    -696.86893720 Ry
     estimated scf accuracy    <       0.00015082 Ry

     iteration # 21     ecut=    60.00 Ry     beta= 0.50
     Davidson diagonalization with overlap
     ethr =  5.30E-08,  avg # of iterations =  1.0

     total cpu time spent up to now is       73.8 secs

     total energy              =    -696.86893664 Ry
     Harris-Foulkes estimate   =    -696.86893668 Ry
     estimated scf accuracy    <       0.00000576 Ry

     iteration # 22     ecut=    60.00 Ry     beta= 0.50
     Davidson diagonalization with overlap
     ethr =  5.43E-09,  avg # of iterations =  2.1

     total cpu time spent up to now is       76.7 secs

     total energy              =    -696.86893676 Ry
     Harris-Foulkes estimate   =    -696.86893694 Ry
     estimated scf accuracy    <       0.00004514 Ry

     iteration # 23     ecut=    60.00 Ry     beta= 0.50
     Davidson diagonalization with overlap
     ethr =  5.43E-09,  avg # of iterations =  1.0

     total cpu time spent up to now is       79.5 secs

     total energy              =    -696.86893666 Ry
     Harris-Foulkes estimate   =    -696.86893678 Ry
     estimated scf accuracy    <       0.00001926 Ry

     iteration # 24     ecut=    60.00 Ry     beta= 0.50
     Davidson diagonalization with overlap
     ethr =  5.43E-09,  avg # of iterations =  3.0

     total cpu time spent up to now is       82.6 secs

     total energy              =    -696.86893675 Ry
     Harris-Foulkes estimate   =    -696.86893679 Ry
     estimated scf accuracy    <       0.00001065 Ry

     iteration # 25     ecut=    60.00 Ry     beta= 0.50
     Davidson diagonalization with overlap
     ethr =  5.43E-09,  avg # of iterations =  1.0

     total cpu time spent up to now is       85.3 secs

     total energy              =    -696.86893676 Ry
     Harris-Foulkes estimate   =    -696.86893677 Ry
     estimated scf accuracy    <       0.00000367 Ry

     iteration # 26     ecut=    60.00 Ry     beta= 0.50
     Davidson diagonalization with overlap
     ethr =  3.46E-09,  avg # of iterations =  1.0

     total cpu time spent up to now is       88.0 secs

     End of self-consistent calculation

          k = 0.0000 0.0000 0.0000 (  9393 PWs)   bands (ev):

   -31.3898 -16.1980 -16.1746 -11.8901 -11.4412 -11.4207  -8.4000  -7.5022
    -7.4714  -7.2122  -6.9331  -6.5348  -6.4561  -1.3816  -1.3378  -1.1672
    -1.1405  -1.0269  -0.9801   4.5780   4.6210   4.6301   4.7970   4.8768
     4.9283   5.7524   5.8767   5.9311   5.9954   6.2172   6.5710   6.5870
     6.6040   6.7232   6.7370   6.7814   6.8980   6.9830   7.0605   7.0926
     7.3876   7.4943   7.6513   7.8008   7.8387   7.8420   8.0616   8.0996
     8.4655   8.5166   8.6714   8.8574   8.8774   9.0230   9.0397  11.9460
    12.6581  13.4678  13.5448  14.3018  14.5994  15.0608  15.3369  15.6566

          k = 0.0000 0.1224 0.0000 (  9401 PWs)   bands (ev):

   -31.3882 -16.1830 -16.1600 -11.8627 -11.5239 -11.4183  -8.2945  -7.5195
    -7.4345  -7.1985  -6.9564  -6.5887  -6.5216  -1.3847  -1.3241  -1.1587
    -1.1197  -0.9984  -0.9505   4.4871   4.5368   4.6762   4.7297   4.8865
     4.9167   5.3407   5.7156   5.7973   6.0061   6.1736   6.3842   6.3938
     6.4726   6.5147   6.7424   6.7641   7.0087   7.0560   7.1093   7.1385
     7.5773   7.5797   7.6134   7.6617   7.8029   7.8905   8.1239   8.2051
     8.4488   8.5772   8.6668   8.7809   8.9412   9.1233   9.2706  12.2837
    12.8238  13.7768  13.7818  14.4339  14.5756  15.2917  15.5361  15.7626

          k = 0.0000 0.2448 0.0000 (  9418 PWs)   bands (ev):

   -31.3844 -16.1464 -16.1243 -11.7938 -11.7064 -11.4127  -8.0412  -7.5909
    -7.3453  -7.1781  -6.9857  -6.7152  -6.6791  -1.3773  -1.2894  -1.1395
    -1.0802  -0.9276  -0.8771   4.1392   4.2932   4.4673   4.6666   4.8101
     4.9192   5.0694   5.3241   5.7501   5.9868   6.0186   6.0682   6.0781
     6.2246   6.3804   6.7356   6.7506   6.8618   6.8726   7.0850   7.2171
     7.4236   7.7422   7.7787   7.8181   7.9744   7.9931   8.1390   8.3344
     8.4011   8.5850   8.6148   8.7351   8.8380   9.2547  10.0797  13.0774
    13.2144  14.3756  14.5205  14.5820  14.6459  15.5905  15.7429  15.9542

          k = 0.0000 0.3672 0.0000 (  9438 PWs)   bands (ev):

   -31.3806 -16.1091 -16.0879 -11.8700 -11.7210 -11.4070  -7.7605  -7.6992
    -7.3102  -7.1311  -6.9814  -6.8496  -6.8375  -1.3514  -1.2531  -1.1225
    -1.0538  -0.8538  -0.8005   3.7459   3.9397   4.0202   4.6074   4.9736
     5.0071   5.0167   5.1586   5.6857   5.7507   5.7963   5.9318   5.9559
     6.0154   6.2876   6.4622   6.5662   6.7667   6.9094   7.0068   7.2904
     7.5015   7.6930   7.8246   7.8519   7.8987   8.1335   8.3956   8.4553
     8.5652   8.5756   8.5915   8.6555   8.9409   9.2280  10.6664  13.5328
    14.0268  14.4690  14.5578  15.1859  15.4083  15.4741  15.5567  16.2761

          k = 0.0000-0.4896 0.0000 (  9450 PWs)   bands (ev):

   -31.3790 -16.0935 -16.0727 -11.9335 -11.6895 -11.4047  -7.7522  -7.6002
    -7.3706  -7.0253  -6.9783  -6.9722  -6.8874  -1.3349  -1.2379  -1.1161
    -1.0471  -0.8224  -0.7677   3.5571   3.7849   3.9037   4.5922   4.8888
     5.0083   5.1606   5.1980   5.4575   5.6823   5.8435   5.8702   5.9410
     5.9416   6.2125   6.2516   6.5468   6.7480   6.8184   7.0927   7.3069
     7.4069   7.8199   7.8304   7.8723   7.9127   8.1103   8.4225   8.5027
     8.5437   8.5624   8.6680   8.7766   9.0625   9.0890  10.8631  13.7660
    14.1378  14.4486  15.0257  15.2031  15.2788  15.5430  15.8666  16.2797

          k = 0.1250 0.0000 0.0000 (  9442 PWs)   bands (ev):

   -31.3878 -16.1796 -16.1574 -11.8590 -11.5138 -11.4383  -8.2948  -7.4996
    -7.4944  -7.1827  -6.9842  -6.5856  -6.4676  -1.4110  -1.3693  -1.1334
    -1.1073  -1.0005  -0.9858   4.4422   4.5022   4.6649   4.6781   4.9400
     4.9400   5.8141   5.8488   5.8948   5.9331   6.1316   6.3969   6.4165
     6.4317   6.7249   6.7426   6.8182   6.9710   7.0942   7.0958   7.1549
     7.2879   7.5394   7.5558   7.6365   7.7368   7.8524   8.1082   8.1509
     8.4251   8.6854   8.7549   8.7595   8.8596   8.9083   9.0036  12.2651
    12.8323  13.7439  13.8614  14.5548  14.5591  15.3732  15.5787  15.7495

          k = 0.1250 0.1224 0.0000 (  9422 PWs)   bands (ev):

   -31.3862 -16.1652 -16.1433 -11.8320 -11.5245 -11.5063  -8.1902  -7.5046
    -7.4589  -7.1679  -7.0118  -6.6250  -6.5229  -1.3962  -1.3685  -1.2114
    -1.2033  -0.9145  -0.9038   4.3625   4.4929   4.6206   4.6808   4.7601
     5.0113   5.3329   5.6666   5.8887   5.9483   6.0442   6.1550   6.1784
     6.4938   6.6623   6.7657   6.8134   6.9644   6.9988   7.0270   7.1805
     7.5350   7.6047   7.6168   7.7197   7.8059   7.8185   7.9290   8.2142
     8.4496   8.6259   8.8332   8.8797   9.0049   9.1648   9.3067  12.5343
    12.9641  14.0390  14.0864  14.4512  14.6515  15.5002  15.7030  15.7764

          k = 0.1250 0.2448 0.0000 (  9445 PWs)   bands (ev):

   -31.3824 -16.1299 -16.1088 -11.7642 -11.7015 -11.5026  -7.9388  -7.5622
    -7.3537  -7.1475  -7.0480  -6.7192  -6.6622  -1.3756  -1.3628  -1.2683
    -1.2442  -0.8712  -0.8510   4.0423   4.2824   4.4749   4.6394   4.6728
     4.6964   5.1533   5.3168   5.6855   5.7487   5.8815   5.9894   6.0581
     6.1967   6.5167   6.8154   6.8402   6.8834   6.9658   6.9771   7.1467
     7.5291   7.6190   7.7588   7.8421   8.0265   8.1209   8.1649   8.2110
     8.3802   8.4704   8.8702   9.0510   9.1175   9.4400  10.0837  13.1534
    13.3397  14.2948  14.5489  14.7824  14.8339  15.7269  15.7440  15.9069

          k = 0.1250 0.3672 0.0000 (  9455 PWs)   bands (ev):

   -31.3786 -16.0940 -16.0738 -11.8638 -11.6926 -11.4955  -7.6627  -7.6589
    -7.2710  -7.1231  -7.0442  -6.8273  -6.8132  -1.3561  -1.3205  -1.2574
    -1.2095  -0.9052  -0.8986   3.6859   3.8986   3.9957   4.5842   4.7182
     4.8147   5.0808   5.2131   5.3903   5.3986   5.8766   5.9324   5.9977
     6.0245   6.2852   6.7699   6.7780   6.8312   6.8716   7.1295   7.2112
     7.5084   7.6898   7.8671   7.9082   7.9863   8.2250   8.3152   8.4218
     8.4980   8.6255   8.7803   9.0481   9.2064   9.5211  10.6454  13.4826
    13.9494  14.1476  14.6692  15.3644  15.4205  15.6647  15.9086  16.3225

          k = 0.1250-0.4896 0.0000 (  9468 PWs)   bands (ev):

   -31.3770 -16.0789 -16.0591 -11.9268 -11.6617 -11.4925  -7.7135  -7.4878
    -7.3282  -7.0341  -6.9981  -6.9777  -6.8522  -1.3321  -1.2980  -1.2336
    -1.1711  -0.9582  -0.9439   3.5255   3.7081   3.8713   4.5690   4.7389
     4.9139   5.0224   5.1862   5.2243   5.2778   5.8765   5.9063   5.9478
     6.0487   6.1805   6.7355   6.7503   6.8002   6.8295   7.1275   7.3186
     7.5898   7.6245   7.9003   7.9137   7.9502   8.2264   8.3888   8.4864
     8.6387   8.7300   8.7470   9.0488   9.2048   9.4995  10.8324  13.7088
    13.9074  14.0549  15.2073  15.2117  15.6074  15.7222  16.0205  16.4364

          k = 0.2500 0.0000 0.0000 (  9450 PWs)   bands (ev):

   -31.3829 -16.1346 -16.1155 -11.7809 -11.7181 -11.4312  -8.0492  -7.5794
    -7.5112  -7.1235  -7.0755  -6.7056  -6.4838  -1.5131  -1.3356  -1.0490
    -1.0427  -1.0246  -0.9624   4.0398   4.1747   4.6222   4.7902   4.9825
     5.0287   5.7592   5.7625   5.7939   5.8166   5.9320   6.0665   6.0952
     6.4017   6.7002   6.7666   6.7818   6.8216   6.9270   7.1506   7.1991
     7.1996   7.4388   7.5499   7.8307   7.8641   7.8953   8.0095   8.2677
     8.4792   8.5560   8.5951   8.6694   8.7074   8.9099   9.2161  12.9234
    13.2899  14.4709  14.4784  14.5882  15.1091  15.7394  16.0506  16.0794

          k = 0.2500 0.1224 0.0000 (  9457 PWs)   bands (ev):

   -31.3813 -16.1215 -16.1026 -11.7549 -11.7141 -11.5105  -7.9470  -7.5282
    -7.4988  -7.1187  -7.1040  -6.7125  -6.5184  -1.5132  -1.3292  -1.2868
    -1.2253  -0.9003  -0.8849   3.9589   4.1694   4.6095   4.6980   4.7713
     5.0838   5.3220   5.5620   5.6676   5.7353   5.8557   5.9311   6.0905
     6.4528   6.4910   6.8417   6.8686   6.9302   6.9596   7.0143   7.1515
     7.4028   7.5385   7.6034   7.8524   7.8981   8.0118   8.1119   8.1509
     8.4135   8.4450   8.7969   8.9995   9.0428   9.3874   9.4148  13.0379
    13.3777  14.2738  14.7488  14.7748  14.9832  15.6957  15.8226  16.0311

          k = 0.2500 0.2448 0.0000 (  9468 PWs)   bands (ev):

   -31.3776 -16.0895 -16.0712 -11.7101 -11.6899 -11.6807  -7.7037  -7.5012
    -7.3864  -7.1923  -7.0711  -6.7307  -6.6190  -1.5449  -1.5047  -1.3629
    -1.3120  -0.9698  -0.9474   3.6701   4.0812   4.4768   4.5032   4.5065
     4.6491   5.1675   5.2170   5.3072   5.4189   5.9049   5.9459   6.0780
     6.1791   6.4762   6.5328   6.8226   6.9778   7.1145   7.3312   7.3892
     7.4381   7.7577   7.8694   7.9612   8.0342   8.1007   8.3008   8.3165
     8.3882   8.4580   8.9124   9.1040   9.7005   9.9126  10.0965  13.0876
    13.6844  14.0302  14.6903  15.3795  15.5146  15.6208  15.9161  16.0192

          k = 0.2500 0.3672 0.0000 (  9471 PWs)   bands (ev):

   -31.3738 -16.0571 -16.0392 -11.8487 -11.6914 -11.6214  -7.5717  -7.4362
    -7.1990  -7.1961  -7.0784  -6.7706  -6.7528  -1.5677  -1.5643  -1.3993
    -1.3037  -1.1779  -1.1131   3.3288   3.8247   3.9016   4.3914   4.4631
     4.6235   4.7836   4.9752   5.3300   5.3939   5.8464   5.9821   5.9987
     6.0574   6.2605   6.4408   6.8634   7.0001   7.2858   7.5192   7.5725
     7.7012   7.8147   7.9985   8.0398   8.2419   8.3066   8.3200   8.4445
     8.5893   8.6004   8.8489   9.1104  10.0545  10.2141  10.5861  12.9524
    13.6023  14.1995  15.1125  15.2279  15.7020  15.9317  16.1102  16.2677

          k = 0.2500-0.4896 0.0000 (  9452 PWs)   bands (ev):

   -31.3722 -16.0434 -16.0259 -11.9105 -11.6874 -11.5919  -7.6171  -7.2315
    -7.2191  -7.1857  -6.9786  -6.9325  -6.7635  -1.5126  -1.4644  -1.4479
    -1.4376  -1.2533  -1.2048   3.1869   3.6812   3.6906   4.3718   4.4836
     4.6135   4.6376   4.8878   5.3093   5.4021   5.8662   5.9314   5.9349
     6.1140   6.1550   6.4205   6.8763   7.0195   7.3083   7.5543   7.7504
     7.8512   7.8784   8.0259   8.0588   8.1326   8.3189   8.4561   8.5900
     8.6760   8.7068   8.7695   9.0579  10.1504  10.2886  10.7410  12.8805
    13.5443  14.2115  15.0245  15.6478  15.8248  16.0684  16.1228  16.4009

          k = 0.3750 0.0000 0.0000 (  9472 PWs)   bands (ev):

   -31.3780 -16.0885 -16.0727 -11.9005 -11.6977 -11.4241  -7.7999  -7.6721
    -7.5980  -7.1004  -7.0914  -6.8234  -6.4853  -1.5685  -1.2943  -1.0783
    -0.9870  -0.9605  -0.9380   3.6802   3.8400   4.6163   4.9691   5.0188
     5.0636   5.5851   5.6458   5.6693   5.7216   5.7563   5.7880   5.8877
     6.3380   6.4514   6.6121   6.6814   6.8168   7.0745   7.0789   7.1895
     7.2251   7.4407   7.5894   7.7632   7.9544   8.0152   8.2772   8.3158
     8.4735   8.4736   8.5031   8.5135   8.6681   8.9715   9.2495  13.3678
    13.9726  14.3941  15.1139  15.3501  15.6130  15.8767  15.9508  16.1297

          k = 0.3750 0.1224 0.0000 (  9457 PWs)   bands (ev):

   -31.3764 -16.0768 -16.0611 -11.8951 -11.6730 -11.5018  -7.7036  -7.6054
    -7.5674  -7.1543  -7.0655  -6.8015  -6.5037  -1.5661  -1.3034  -1.2598
    -1.1948  -0.9814  -0.9668   3.5792   3.8158   4.5964   4.8137   4.8526
     5.0956   5.2948   5.3328   5.3569   5.4933   5.7310   5.9720   6.0058
     6.3085   6.4017   6.7696   6.8096   6.8920   7.0394   7.1205   7.2517
     7.2654   7.4532   7.7605   7.8762   7.9689   8.0953   8.2991   8.3196
     8.3847   8.4410   8.6160   8.9217   9.1011   9.4232   9.4954  13.2537
    13.9778  14.1669  15.0943  15.4173  15.5755  15.8149  16.0287  16.2794

          k = 0.3750 0.2448 0.0000 (  9478 PWs)   bands (ev):

   -31.3727 -16.0483 -16.0328 -11.8822 -11.6751 -11.6111  -7.4963  -7.4900
    -7.4104  -7.2818  -7.0081  -6.7470  -6.5714  -1.6044  -1.5873  -1.4386
    -1.2872  -1.2083  -1.1640   3.2618   3.6989   4.4249   4.5250   4.5476
     4.6548   4.7540   5.0190   5.3414   5.3718   5.9214   5.9263   6.0912
     6.1474   6.2266   6.4615   6.8946   7.1989   7.2331   7.4635   7.5017
     7.6894   7.6905   7.9329   8.0729   8.2305   8.2928   8.3302   8.3952
     8.4455   8.4806   8.8529   8.9766   9.9799  10.1165  10.1828  12.8235
    13.5525  14.3586  15.1429  15.5858  15.6061  15.8459  16.2163  16.2599

          k = 0.3750 0.3672 0.0000 (  9489 PWs)   bands (ev):

   -31.3690 -16.0194 -16.0042 -11.8696 -11.8321 -11.5460  -7.4772  -7.3566
    -7.2517  -7.1631  -6.9725  -6.7088  -6.6916  -1.7875  -1.7408  -1.5427
    -1.5207  -1.3855  -1.2571   2.8940   3.4614   3.9346   4.2876   4.3404
     4.3560   4.6279   4.8806   5.3360   5.5331   5.7572   5.9747   6.0190
     6.0913   6.1515   6.2446   6.9425   7.2880   7.6000   7.7762   7.8595
     7.8655   8.1237   8.1403   8.2483   8.2685   8.3037   8.4948   8.5684
     8.6169   8.6885   8.8464   9.1517  10.5114  10.6159  10.7176  12.3730
    13.2761  14.4999  15.0974  15.5083  15.6455  15.7910  15.9530  16.2302

          k = 0.3750-0.4896 0.0000 (  9446 PWs)   bands (ev):

   -31.3674 -16.0074 -15.9922 -11.8943 -11.8634 -11.5179  -7.5161  -7.3406
    -7.0976  -7.0077  -6.9665  -6.8689  -6.6685  -1.7874  -1.7845  -1.7518
    -1.5918  -1.4399  -1.2512   2.7393   3.3329   3.7126   4.2185   4.2504
     4.2965   4.6219   4.8408   5.3301   5.6110   5.6868   5.9115   5.9937
     6.0782   6.1111   6.2352   6.9525   7.3161   7.7615   7.9041   7.9309
     8.0428   8.1713   8.2324   8.2659   8.3829   8.4068   8.5102   8.6211
     8.6743   8.7042   9.0082   9.1632  10.6156  10.8197  10.9006  12.1998
    13.2058  14.5198  14.8361  15.5131  15.6694  15.7504  16.0411  16.4025

          k =-0.5000 0.0000 0.0000 (  9438 PWs)   bands (ev):

   -31.3760 -16.0691 -16.0547 -11.9710 -11.6616 -11.4211  -7.7248  -7.6767
    -7.6520  -7.0934  -7.0922  -6.8721  -6.4821  -1.5835  -1.2734  -1.0929
    -1.0053  -0.9224  -0.9008   3.5418   3.7022   4.6245   4.9780   5.0881
     5.1264   5.5267   5.5852   5.5877   5.6112   5.6118   5.6489   6.0210
     6.2170   6.2833   6.6056   6.6758   6.8138   7.0650   7.1768   7.1783
     7.2233   7.4519   7.4947   7.9222   7.9854   8.0532   8.2345   8.2882
     8.4005   8.4414   8.4982   8.6263   8.7204   8.9880   9.1844  13.5203
    14.3436  14.3650  15.2508  15.7722  15.8093  15.8615  15.9396  16.1572

          k =-0.5000 0.1224 0.0000 (  9434 PWs)   bands (ev):

   -31.3744 -16.0580 -16.0436 -11.9653 -11.6374 -11.4981  -7.6583  -7.6177
    -7.5757  -7.1479  -7.0638  -6.8391  -6.4948  -1.5766  -1.2743  -1.2195
    -1.1073  -1.0879  -1.0593   3.4323   3.6694   4.5946   4.8623   5.0125
     5.0937   5.1392   5.1423   5.2732   5.4743   5.6863   5.9001   6.0959
     6.2471   6.3701   6.7207   6.7497   6.9083   7.0641   7.1149   7.2298
     7.3687   7.4576   7.7292   7.9493   8.0253   8.1048   8.2135   8.3543
     8.4291   8.4695   8.6957   8.8824   9.0922   9.4245   9.4607  13.2943
    13.9640  14.4203  15.3808  15.4695  15.8820  16.0492  16.0741  16.2711

          k =-0.5000 0.2448 0.0000 (  9456 PWs)   bands (ev):

   -31.3707 -16.0310 -16.0167 -11.9514 -11.6701 -11.5769  -7.5325  -7.4726
    -7.3448  -7.2808  -6.9931  -6.7556  -6.5499  -1.5751  -1.5171  -1.4363
    -1.4315  -1.3404  -1.2510   3.0994   3.5333   4.4214   4.5305   4.5783
     4.6052   4.6734   4.9113   5.3272   5.3567   5.9243   5.9991   6.0688
     6.1154   6.1698   6.4312   6.9245   7.2416   7.3463   7.5092   7.5274
     7.6545   7.8315   8.0032   8.1383   8.1699   8.3130   8.3321   8.4086
     8.6263   8.6685   8.6690   8.8625  10.0397  10.1262  10.2407  12.6823
    13.4514  14.5899  15.4808  15.5956  15.7312  15.7995  16.1576  16.2585

          k =-0.5000 0.3672 0.0000 (  9486 PWs)   bands (ev):

   -31.3670 -16.0037 -15.9895 -11.9376 -11.8265 -11.5133  -7.4437  -7.4160
    -7.2110  -7.1283  -6.9196  -6.6805  -6.6662  -1.8072  -1.7824  -1.7464
    -1.5560  -1.5389  -1.2449   2.7161   3.2890   3.9489   4.1987   4.2640
     4.3311   4.6342   4.8451   5.3212   5.5248   5.8369   5.9155   5.9807
     6.0974   6.1761   6.1827   6.9674   7.4488   7.6769   7.8639   7.9567
     7.9769   8.1150   8.1927   8.3030   8.3934   8.5222   8.5349   8.5419
     8.5438   8.6926   8.9964   9.0595  10.4806  10.7920  10.8848  12.1443
    13.1623  14.7070  15.0583  15.3714  15.5638  15.8196  16.0102  16.2273

          k =-0.5000-0.4896 0.0000 (  9504 PWs)   bands (ev):

   -31.3654 -15.9922 -15.9781 -11.9319 -11.8876 -11.4860  -7.4728  -7.4058
    -7.0419  -6.9941  -6.8869  -6.8445  -6.6271  -1.9260  -1.9006  -1.8701
    -1.6403  -1.5410  -1.2397   2.5543   3.1609   3.7270   4.0670   4.2199
     4.2690   4.6307   4.8224   5.3157   5.6120   5.7718   5.8291   5.9548
     6.0742   6.1061   6.2210   6.9776   7.4848   7.8835   7.9802   8.0744
     8.0847   8.3000   8.3089   8.3548   8.3785   8.4357   8.6259   8.6513
     8.6614   8.6994   9.1312   9.2473  10.5556  11.0486  11.1267  11.9438
    13.0911  14.7296  14.7635  15.3378  15.4860  15.5118  15.9073  16.4371

     the Fermi energy is     9.2822 ev

!    total energy              =    -696.86893660 Ry
     Harris-Foulkes estimate   =    -696.86893677 Ry
     estimated scf accuracy    <       0.00000043 Ry

     The total energy is the sum of the following terms:

     one-electron contribution =    -214.89006746 Ry
     hartree contribution      =     189.81934714 Ry
     xc contribution           =    -148.54169197 Ry
     ewald contribution        =    -523.25327088 Ry
     smearing contrib. (-TS)   =      -0.00325342 Ry

     convergence has been achieved in  26 iterations

     Forces acting on atoms (cartesian axes, Ry/au):

     atom    1 type  2   force =     0.00000000    0.00000000   -0.00760873
     atom    2 type  2   force =     0.00000000    0.00000000    0.00760873
     atom    3 type  1   force =     0.00000000    0.00000000    0.00000000
     atom    4 type  4   force =     0.00000000    0.00000000    0.00043761
     atom    5 type  4   force =     0.00000000    0.00000000   -0.00043761
     atom    6 type  4   force =     0.00000000    0.00000000    0.00000000
     atom    7 type  3   force =     0.00000000    0.00000000    0.00000000
     atom    8 type  3   force =     0.00000000    0.00000000   -0.00333893
     atom    9 type  3   force =     0.00000000    0.00000000    0.00333893
     atom   10 type  3   force =     0.00000000    0.00000000   -0.00441421
     atom   11 type  3   force =     0.00000000    0.00000000    0.00441421
     atom   12 type  3   force =     0.00000000    0.00000000    0.00760597
     atom   13 type  3   force =     0.00000000    0.00000000   -0.00760597

     Total force =     0.017121     Total SCF correction =     0.000675


     Computing stress (Cartesian axis) and pressure

          total   stress  (Ry/bohr**3)                   (kbar)     P=      -95.36
  -0.00064038   0.00000000   0.00000000          -94.20        0.00        0.00
   0.00000000  -0.00067950   0.00000000            0.00      -99.96        0.00
   0.00000000   0.00000000  -0.00062488            0.00        0.00      -91.92


     BFGS Geometry Optimization

     number of scf cycles    =   1
     number of bfgs steps    =   0

     enthalpy new            =    -696.8689365958 Ry

     new trust radius        =       0.1179084179 bohr
     new conv_thr            =       0.0000010000 Ry

     new unit-cell volume =   1146.79648 a.u.^3 (   169.93770 Ang^3 )
     density =      6.50977 g/cm^3

CELL_PARAMETERS (angstrom)
   3.783118658   0.000000000   0.000000000
   0.000000000   3.859454818   0.000000000
   0.000000000   0.000000000  11.638950513

ATOMIC_POSITIONS (angstrom)
Ba            1.8915583449        1.9297283921        9.5328911896
Ba            1.8915583449        1.9297283921        2.1060632613
Y             1.8915583449        1.9297283921        5.8194772255
Cu            0.0000000000        0.0000000000        7.5268833619
Cu            0.0000000000        0.0000000000        4.1120701046
Cu            0.0000000000        0.0000000000        0.0000000000
O             0.0000000000        1.9297283921        0.0000000000
O             1.8915583449        0.0000000000        7.2220121918
O             1.8915583449        0.0000000000        4.4169412747
O             0.0000000000        1.9297283921        7.2330677239
O             0.0000000000        1.9297283921        4.4058867271
O             0.0000000000        0.0000000000        9.7902275479
O             0.0000000000        0.0000000000        1.8487269030



     Writing output data file /n/holyscratch01/hoffman_lab/ruizhe/outdir/YBCO_ecut60.save/
     NEW-OLD atomic charge density approx. for the potential
     extrapolated charge  100.67634, renormalised to  106.00000

     total cpu time spent up to now is       98.9 secs

     Self-consistent Calculation

     iteration #  1     ecut=    60.00 Ry     beta= 0.50
     Davidson diagonalization with overlap
     ethr =  1.00E-06,  avg # of iterations = 12.7

     negative rho (up, down):  1.451E-02 0.000E+00

     total cpu time spent up to now is      107.9 secs

     total energy              =    -690.32008682 Ry
     Harris-Foulkes estimate   =    -708.93306496 Ry
     estimated scf accuracy    <       8.12862696 Ry

     iteration #  2     ecut=    60.00 Ry     beta= 0.50
     Davidson diagonalization with overlap
     ethr =  7.67E-03,  avg # of iterations =  6.5

     negative rho (up, down):  3.921E-01 0.000E+00

     total cpu time spent up to now is      113.7 secs

     total energy              =    -690.30784766 Ry
     Harris-Foulkes estimate   =    -735.61682047 Ry
     estimated scf accuracy    <    5432.58648029 Ry

     iteration #  3     ecut=    60.00 Ry     beta= 0.50
     Davidson diagonalization with overlap
     ethr =  7.67E-03,  avg # of iterations =  4.0

     negative rho (up, down):  5.606E-02 0.000E+00

     total cpu time spent up to now is      118.3 secs

     total energy              =    -643.85716847 Ry
     Harris-Foulkes estimate   =    -761.17930027 Ry
     estimated scf accuracy    <   45803.89783954 Ry

     iteration #  4     ecut=    60.00 Ry     beta= 0.50
     Davidson diagonalization with overlap
     ethr =  7.67E-03,  avg # of iterations =  4.8

     total cpu time spent up to now is      123.7 secs

     total energy              =    -690.37463229 Ry
     Harris-Foulkes estimate   =    -703.73676207 Ry
     estimated scf accuracy    <   11217.41539190 Ry

     iteration #  5     ecut=    60.00 Ry     beta= 0.50
     Davidson diagonalization with overlap
     ethr =  7.67E-03,  avg # of iterations =  3.1

     negative rho (up, down):  1.526E-03 0.000E+00

     total cpu time spent up to now is      127.6 secs

     total energy              =    -696.03843789 Ry
     Harris-Foulkes estimate   =    -698.12339702 Ry
     estimated scf accuracy    <     158.13201291 Ry

     iteration #  6     ecut=    60.00 Ry     beta= 0.50
     Davidson diagonalization with overlap
     ethr =  7.67E-03,  avg # of iterations =  4.0

     total cpu time spent up to now is      131.3 secs

     total energy              =    -692.77213398 Ry
     Harris-Foulkes estimate   =    -701.03999107 Ry
     estimated scf accuracy    <    1640.82928589 Ry

     iteration #  7     ecut=    60.00 Ry     beta= 0.50
     Davidson diagonalization with overlap
     ethr =  7.67E-03,  avg # of iterations =  3.6

     total cpu time spent up to now is      135.1 secs

     total energy              =    -696.98301303 Ry
     Harris-Foulkes estimate   =    -697.27746293 Ry
     estimated scf accuracy    <       4.89402998 Ry

     iteration #  8     ecut=    60.00 Ry     beta= 0.50
     Davidson diagonalization with overlap
     ethr =  4.62E-03,  avg # of iterations =  1.1

     total cpu time spent up to now is      137.7 secs

     total energy              =    -696.96217836 Ry
     Harris-Foulkes estimate   =    -697.05411240 Ry
     estimated scf accuracy    <       1.79928264 Ry

     iteration #  9     ecut=    60.00 Ry     beta= 0.50
     Davidson diagonalization with overlap
     ethr =  1.70E-03,  avg # of iterations =  1.0

     total cpu time spent up to now is      140.3 secs

     total energy              =    -696.95307694 Ry
     Harris-Foulkes estimate   =    -696.98108739 Ry
     estimated scf accuracy    <       0.55151562 Ry

     iteration # 10     ecut=    60.00 Ry     beta= 0.50
     Davidson diagonalization with overlap
     ethr =  5.20E-04,  avg # of iterations =  1.2

     total cpu time spent up to now is      142.9 secs

     total energy              =    -696.87072526 Ry
     Harris-Foulkes estimate   =    -696.95672154 Ry
     estimated scf accuracy    <       0.43657902 Ry

     iteration # 11     ecut=    60.00 Ry     beta= 0.50
     Davidson diagonalization with overlap
     ethr =  4.12E-04,  avg # of iterations =  2.6

     total cpu time spent up to now is      145.9 secs

     total energy              =    -696.88737087 Ry
     Harris-Foulkes estimate   =    -696.90186495 Ry
     estimated scf accuracy    <       0.10718904 Ry

     iteration # 12     ecut=    60.00 Ry     beta= 0.50
     Davidson diagonalization with overlap
     ethr =  1.01E-04,  avg # of iterations =  6.4

     total cpu time spent up to now is      149.9 secs

     total energy              =    -696.89105461 Ry
     Harris-Foulkes estimate   =    -696.89675832 Ry
     estimated scf accuracy    <       1.19892252 Ry

     iteration # 13     ecut=    60.00 Ry     beta= 0.50
     Davidson diagonalization with overlap
     ethr =  1.01E-04,  avg # of iterations =  2.6

     total cpu time spent up to now is      152.9 secs

     total energy              =    -696.88075397 Ry
     Harris-Foulkes estimate   =    -696.90734742 Ry
     estimated scf accuracy    <      12.96719346 Ry

     iteration # 14     ecut=    60.00 Ry     beta= 0.50
     Davidson diagonalization with overlap
     ethr =  1.01E-04,  avg # of iterations =  2.0

     total cpu time spent up to now is      155.8 secs

     total energy              =    -696.88837513 Ry
     Harris-Foulkes estimate   =    -696.90305372 Ry
     estimated scf accuracy    <       8.70634177 Ry

     iteration # 15     ecut=    60.00 Ry     beta= 0.50
     Davidson diagonalization with overlap
     ethr =  1.01E-04,  avg # of iterations =  2.0

     total cpu time spent up to now is      158.6 secs

     total energy              =    -696.89474937 Ry
     Harris-Foulkes estimate   =    -696.89573814 Ry
     estimated scf accuracy    <       0.10457960 Ry

     iteration # 16     ecut=    60.00 Ry     beta= 0.50
     Davidson diagonalization with overlap
     ethr =  9.87E-05,  avg # of iterations =  1.0

     total cpu time spent up to now is      161.2 secs

     total energy              =    -696.89500551 Ry
     Harris-Foulkes estimate   =    -696.89512784 Ry
     estimated scf accuracy    <       0.00457723 Ry

     iteration # 17     ecut=    60.00 Ry     beta= 0.50
     Davidson diagonalization with overlap
     ethr =  4.32E-06,  avg # of iterations =  3.9

     total cpu time spent up to now is      164.5 secs

     total energy              =    -696.89510249 Ry
     Harris-Foulkes estimate   =    -696.89515256 Ry
     estimated scf accuracy    <       0.00292907 Ry

     iteration # 18     ecut=    60.00 Ry     beta= 0.50
     Davidson diagonalization with overlap
     ethr =  2.76E-06,  avg # of iterations =  3.7

     total cpu time spent up to now is      167.7 secs

     total energy              =    -696.89508431 Ry
     Harris-Foulkes estimate   =    -696.89518753 Ry
     estimated scf accuracy    <       0.01234231 Ry

     iteration # 19     ecut=    60.00 Ry     beta= 0.50
     Davidson diagonalization with overlap
     ethr =  2.76E-06,  avg # of iterations =  3.0

     total cpu time spent up to now is      170.7 secs

     total energy              =    -696.89511407 Ry
     Harris-Foulkes estimate   =    -696.89514973 Ry
     estimated scf accuracy    <       0.00129582 Ry

     iteration # 20     ecut=    60.00 Ry     beta= 0.50
     Davidson diagonalization with overlap
     ethr =  1.22E-06,  avg # of iterations =  1.0

     total cpu time spent up to now is      173.3 secs

     total energy              =    -696.89512600 Ry
     Harris-Foulkes estimate   =    -696.89514539 Ry
     estimated scf accuracy    <       0.00034904 Ry

     iteration # 21     ecut=    60.00 Ry     beta= 0.50
     Davidson diagonalization with overlap
     ethr =  3.29E-07,  avg # of iterations =  3.0

     total cpu time spent up to now is      176.3 secs

     total energy              =    -696.89513569 Ry
     Harris-Foulkes estimate   =    -696.89514034 Ry
     estimated scf accuracy    <       0.00092820 Ry

     iteration # 22     ecut=    60.00 Ry     beta= 0.50
     Davidson diagonalization with overlap
     ethr =  3.29E-07,  avg # of iterations =  1.0

     total cpu time spent up to now is      178.9 secs

     total energy              =    -696.89513358 Ry
     Harris-Foulkes estimate   =    -696.89513692 Ry
     estimated scf accuracy    <       0.00028396 Ry

     iteration # 23     ecut=    60.00 Ry     beta= 0.50
     Davidson diagonalization with overlap
     ethr =  2.68E-07,  avg # of iterations =  2.9

     total cpu time spent up to now is      181.9 secs

     total energy              =    -696.89513581 Ry
     Harris-Foulkes estimate   =    -696.89514023 Ry
     estimated scf accuracy    <       0.00155658 Ry

     iteration # 24     ecut=    60.00 Ry     beta= 0.50
     Davidson diagonalization with overlap
     ethr =  2.68E-07,  avg # of iterations =  1.0

     total cpu time spent up to now is      184.5 secs

     total energy              =    -696.89513674 Ry
     Harris-Foulkes estimate   =    -696.89513723 Ry
     estimated scf accuracy    <       0.00024072 Ry

     iteration # 25     ecut=    60.00 Ry     beta= 0.50
     Davidson diagonalization with overlap
     ethr =  2.27E-07,  avg # of iterations =  1.0

     total cpu time spent up to now is      187.1 secs

     total energy              =    -696.89513722 Ry
     Harris-Foulkes estimate   =    -696.89513734 Ry
     estimated scf accuracy    <       0.00004123 Ry

     iteration # 26     ecut=    60.00 Ry     beta= 0.50
     Davidson diagonalization with overlap
     ethr =  3.89E-08,  avg # of iterations =  1.6

     total cpu time spent up to now is      189.8 secs

     total energy              =    -696.89513741 Ry
     Harris-Foulkes estimate   =    -696.89513742 Ry
     estimated scf accuracy    <       0.00001370 Ry

     iteration # 27     ecut=    60.00 Ry     beta= 0.50
     Davidson diagonalization with overlap
     ethr =  1.29E-08,  avg # of iterations =  1.4

     total cpu time spent up to now is      192.4 secs

     total energy              =    -696.89513747 Ry
     Harris-Foulkes estimate   =    -696.89513747 Ry
     estimated scf accuracy    <       0.00000151 Ry

     iteration # 28     ecut=    60.00 Ry     beta= 0.50
     Davidson diagonalization with overlap
     ethr =  1.42E-09,  avg # of iterations =  1.9

     total cpu time spent up to now is      195.2 secs

     End of self-consistent calculation

          k = 0.0000 0.0000 0.0000 (  9393 PWs)   bands (ev):

   -30.4710 -15.3898 -15.3601 -11.1656 -10.5584 -10.5372  -7.9645  -6.9719
    -6.8641  -6.6918  -6.3764  -5.9421  -5.8776  -0.5871  -0.5370  -0.3516
    -0.3207  -0.2088  -0.1540   5.0619   5.0748   5.0755   5.2656   5.3691
     5.4213   6.2370   6.4292   6.4724   6.5652   6.7757   7.1573   7.1805
     7.1942   7.3157   7.3254   7.3908   7.4943   7.5865   7.6676   7.7177
     8.0147   8.1729   8.2940   8.4476   8.4787   8.5522   8.7072   8.7541
     9.1482   9.2023   9.4296   9.5713   9.5907   9.7576   9.7719  12.8189
    13.4286  14.2312  14.3879  15.2619  15.4798  16.0490  16.3098  16.7289

          k = 0.0000 0.1245 0.0000 (  9401 PWs)   bands (ev):

   -30.4689 -15.3708 -15.3416 -11.1295 -10.6726 -10.5343  -7.8358  -6.9321
    -6.8998  -6.6652  -6.3939  -6.0061  -5.9523  -0.5934  -0.5204  -0.3399
    -0.2917  -0.1744  -0.1181   4.9725   4.9826   5.1235   5.2031   5.3764
     5.4088   5.8652   6.2456   6.2895   6.5724   6.7252   6.9512   6.9590
     7.0485   7.0844   7.3434   7.3560   7.6367   7.6719   7.7449   7.7706
     8.2079   8.2268   8.2342   8.3321   8.4504   8.5442   8.7756   8.9130
     9.1290   9.2976   9.3713   9.4964   9.6623   9.8561  10.0420  13.1547
    13.6079  14.5514  14.6368  15.3768  16.2891  16.5051  16.7804  16.8326

          k = 0.0000 0.2490 0.0000 (  9418 PWs)   bands (ev):

   -30.4638 -15.3242 -15.2963 -11.0380 -10.9143 -10.5271  -7.5446  -7.0302
    -6.8369  -6.6147  -6.3961  -6.1559  -6.1275  -0.5874  -0.4777  -0.3141
    -0.2378  -0.0885  -0.0282   4.5953   4.7401   4.9457   5.1482   5.2635
     5.4030   5.5710   5.8281   6.2483   6.5468   6.5480   6.6047   6.6216
     6.7770   6.9486   7.3274   7.3372   7.4716   7.4823   7.7010   7.8465
     8.0612   8.4136   8.4136   8.4699   8.6354   8.6696   8.8156   9.0220
     9.0735   9.3183   9.3391   9.4353   9.5495  10.0065  10.8984  13.9299
    14.0487  15.2821  15.3892  15.3974  15.5219  16.4948  16.6702  17.0295

          k = 0.0000 0.3736 0.0000 (  9438 PWs)   bands (ev):

   -30.4587 -15.2765 -15.2499 -11.1231 -10.9391 -10.5199  -7.2477  -7.2025
    -6.7792  -6.5588  -6.3621  -6.3022  -6.3009  -0.5560  -0.4326  -0.2917
    -0.2024   0.0017   0.0665   4.1838   4.3792   4.4576   5.0915   5.4500
     5.4785   5.4897   5.6582   6.1988   6.2697   6.3172   6.4467   6.5059
     6.5553   6.8531   7.0436   7.1338   7.3544   7.4857   7.6257   7.9214
     8.1318   8.3452   8.4653   8.5124   8.5849   8.8203   9.0991   9.1457
     9.2509   9.2833   9.3523   9.3534   9.6546   9.9898  11.5201  14.3506
    14.9089  15.3433  15.4624  16.0988  16.3016  16.3397  16.4662  17.3014

          k = 0.0000-0.4981 0.0000 (  9450 PWs)   bands (ev):

   -30.4566 -15.2564 -15.2304 -11.2025 -10.8956 -10.5169  -7.2815  -7.0988
    -6.8091  -6.4591  -6.4280  -6.3601  -6.3420  -0.5352  -0.4138  -0.2833
    -0.1936   0.0404   0.1074   3.9839   4.2150   4.3353   5.0764   5.3635
     5.4805   5.6550   5.6615   5.9651   6.1993   6.3736   6.3849   6.4769
     6.4849   6.7741   6.8139   7.1136   7.3321   7.3764   7.7180   7.9369
     8.0206   8.4737   8.4937   8.5374   8.5891   8.7917   9.1316   9.1837
     9.2736   9.3062   9.3727   9.4846   9.7664   9.8678  11.7289  14.5810
    15.0057  15.3218  15.9324  16.1308  16.1722  16.4998  16.7492  17.2794

          k = 0.1270 0.0000 0.0000 (  9442 PWs)   bands (ev):

   -30.4684 -15.3668 -15.3387 -11.1254 -10.6635 -10.5547  -7.8379  -7.0056
    -6.8615  -6.6458  -6.4357  -6.0029  -5.8920  -0.6275  -0.5733  -0.3110
    -0.2808  -0.1728  -0.1522   4.9190   4.9525   5.1078   5.1564   5.4307
     5.4317   6.3027   6.3969   6.4309   6.4904   6.6866   6.9675   6.9846
     7.0049   7.3120   7.3407   7.4257   7.5978   7.7142   7.7292   7.7857
     7.8978   8.1661   8.2180   8.2889   8.3882   8.4941   8.7792   8.8125
     9.1413   9.3947   9.4578   9.5142   9.5747   9.6302   9.7316  13.1273
    13.6187  14.5169  14.7209  15.4381  15.5120  16.3925  16.5716  16.7763

          k = 0.1270 0.1245 0.0000 (  9422 PWs)   bands (ev):

   -30.4663 -15.3485 -15.3209 -11.0898 -10.6766 -10.6498  -7.7093  -6.9619
    -6.8850  -6.6197  -6.4624  -6.0495  -5.9545  -0.6097  -0.5745  -0.4054
    -0.3997  -0.0633  -0.0485   4.8351   4.9474   5.0674   5.1604   5.2390
     5.5091   5.8549   6.1868   6.3836   6.5098   6.5828   6.7122   6.7335
     7.0634   7.2489   7.3513   7.4120   7.5898   7.6225   7.6611   7.8142
     8.1668   8.2306   8.2759   8.3563   8.4607   8.4771   8.5903   8.8793
     9.1568   9.3211   9.5738   9.6057   9.7262   9.9129  10.0798  13.3997
    13.7614  14.8250  14.9587  15.3276  15.5752  16.5052  16.6752  16.7062

          k = 0.1270 0.2490 0.0000 (  9445 PWs)   bands (ev):

   -30.4612 -15.3037 -15.2772 -10.9996 -10.9077 -10.6477  -7.4171  -6.9968
    -6.8498  -6.5722  -6.4758  -6.1614  -6.1086  -0.5905  -0.5711  -0.4665
    -0.4386  -0.0109   0.0180   4.4948   4.7346   4.9534   5.1154   5.1292
     5.1733   5.6565   5.8154   6.2140   6.2773   6.3909   6.5442   6.5979
     6.7466   7.0947   7.4112   7.4284   7.4840   7.5733   7.5804   7.7782
     8.1675   8.2629   8.4095   8.5127   8.6865   8.8075   8.8524   8.9033
     9.0565   9.1451   9.5965   9.7698   9.8856  10.2156  10.9029  13.9866
    14.1953  15.1572  15.4591  15.6436  15.6547  16.6772  16.6831  16.9341

          k = 0.1270 0.3736 0.0000 (  9455 PWs)   bands (ev):

   -30.4561 -15.2578 -15.2325 -11.1145 -10.9023 -10.6382  -7.1609  -7.1161
    -6.7450  -6.5391  -6.4416  -6.2786  -6.2736  -0.5668  -0.5183  -0.4494
    -0.3915  -0.0525  -0.0408   4.1202   4.3367   4.4352   5.0610   5.1913
     5.2794   5.5729   5.7101   5.9027   5.9188   6.4016   6.4554   6.5368
     6.5772   6.8485   7.3408   7.3636   7.4243   7.4644   7.7558   7.8257
     8.1379   8.3452   8.5341   8.5713   8.6730   8.9198   9.0156   9.1118
     9.1843   9.3216   9.4950   9.7556   9.9869  10.3150  11.4971  14.3027
    14.7944  14.9983  15.5786  16.2678  16.3665  16.5274  16.8630  17.3600

          k = 0.1270-0.4981 0.0000 (  9468 PWs)   bands (ev):

   -30.4540 -15.2385 -15.2137 -11.1934 -10.8594 -10.6342  -7.2376  -6.9544
    -6.7595  -6.4314  -6.4279  -6.4200  -6.3206  -0.5348  -0.4875  -0.4216
    -0.3420  -0.1177  -0.1003   3.9510   4.1331   4.3037   5.0447   5.2091
     5.3818   5.5134   5.6847   5.7335   5.7881   6.3889   6.4395   6.4896
     6.6016   6.7371   7.3130   7.3167   7.3862   7.4229   7.7564   7.9401
     8.2304   8.2532   8.5767   8.5847   8.6304   8.9235   9.0941   9.1714
     9.3447   9.4443   9.4541   9.7488   9.9871  10.2997  11.6949  14.5343
    14.7298  14.9015  16.0970  16.1237  16.5915  16.7032  16.9041  17.4269

          k = 0.2541 0.0000 0.0000 (  9450 PWs)   bands (ev):

   -30.4620 -15.3100 -15.2862 -11.0230 -10.9295 -10.5459  -7.5598  -7.1018
    -6.9266  -6.5467  -6.5130  -6.1461  -5.9119  -0.7460  -0.5347  -0.2101
    -0.2090  -0.1808  -0.1192   4.4929   4.6254   5.1070   5.2386   5.4674
     5.5194   6.2898   6.2952   6.3146   6.3200   6.4740   6.6139   6.6347
     6.9750   7.2851   7.3496   7.3924   7.4271   7.5422   7.7684   7.8285
     7.8293   8.0810   8.2247   8.4843   8.5012   8.5444   8.6821   8.9428
     9.2352   9.2433   9.2922   9.3675   9.4247   9.6672   9.9687  13.7614
    14.1132  15.2865  15.3469  15.4938  16.0370  16.7950  16.9657  17.0172

          k = 0.2541 0.1245 0.0000 (  9457 PWs)   bands (ev):

   -30.4599 -15.2935 -15.2700 -10.9888 -10.9239 -10.6541  -7.4313  -7.0464
    -6.9104  -6.5718  -6.5192  -6.1545  -5.9499  -0.7474  -0.5281  -0.4974
    -0.4190  -0.0331  -0.0227   4.4100   4.6240   5.0926   5.1514   5.2467
     5.5769   5.8404   6.0655   6.1957   6.2673   6.3845   6.4412   6.6532
     7.0278   7.0631   7.4330   7.4662   7.5407   7.5777   7.6149   7.7815
     8.0488   8.1783   8.2599   8.5060   8.5503   8.6733   8.7895   8.8308
     9.0915   9.1451   9.5221   9.7199   9.8123  10.1635  10.1898  13.8675
    14.2173  15.1330  15.5722  15.7217  15.8366  16.7251  16.7810  16.9750

          k = 0.2541 0.2490 0.0000 (  9468 PWs)   bands (ev):

   -30.4549 -15.2532 -15.2304 -10.9200 -10.9021 -10.8766  -7.1408  -6.9282
    -6.8921  -6.6591  -6.4662  -6.1773  -6.0598  -0.7913  -0.7537  -0.5695
    -0.5080  -0.1151  -0.0976   4.1067   4.5410   4.9393   4.9563   4.9779
     5.1295   5.6728   5.7124   5.8219   5.9376   6.4223   6.4935   6.6298
     6.7412   7.0440   7.1124   7.4114   7.5886   7.7247   7.9304   8.0233
     8.0636   8.4309   8.5493   8.6345   8.6931   8.7692   8.9879   9.0214
     9.0543   9.1706   9.6496   9.8352  10.5016  10.7199  10.9157  13.8858
    14.5285  14.8849  15.5900  16.3220  16.3848  16.6360  16.7992  16.9821

          k = 0.2541 0.3736 0.0000 (  9471 PWs)   bands (ev):

   -30.4499 -15.2120 -15.1900 -11.0940 -10.8918 -10.8086  -7.0571  -6.8457
    -6.6791  -6.6377  -6.4586  -6.2190  -6.2063  -0.8251  -0.8131  -0.6086
    -0.4998  -0.3616  -0.2926   3.7451   4.2690   4.3412   4.8456   4.9173
     5.0992   5.2779   5.4661   5.8599   5.9006   6.3794   6.5153   6.5538
     6.6153   6.8269   7.0011   7.4590   7.6100   7.8906   8.1547   8.2059
     8.3157   8.4925   8.6824   8.7317   8.9271   9.0067   9.0172   9.1554
     9.2910   9.3005   9.5777   9.8352  10.8747  11.0430  11.4319  13.7217
    14.4275  15.0471  16.0507  16.1305  16.6878  16.9197  17.0227  17.2856

          k = 0.2541-0.4981 0.0000 (  9452 PWs)   bands (ev):

   -30.4478 -15.1947 -15.1730 -11.1713 -10.8864 -10.7676  -7.1277  -6.6339
    -6.6293  -6.6121  -6.4314  -6.3670  -6.2206  -0.7481  -0.6896  -0.6818
    -0.6706  -0.4398  -0.3973   3.5946   4.1060   4.1251   4.8241   4.9423
     5.0859   5.1270   5.3770   5.8451   5.9022   6.4095   6.4578   6.4850
     6.6645   6.7302   6.9768   7.4731   7.6315   7.9108   8.1889   8.3972
     8.4809   8.5609   8.7100   8.7492   8.8302   9.0125   9.1665   9.3152
     9.3840   9.4182   9.4942   9.7595  10.9751  11.1244  11.5938  13.6385
    14.3722  15.0544  15.9067  16.5814  16.7978  17.1095  17.1158  17.4089

          k = 0.3811 0.0000 0.0000 (  9472 PWs)   bands (ev):

   -30.4556 -15.2516 -15.2323 -11.1582 -10.9117 -10.5369  -7.2982  -7.2126
    -7.0933  -6.4950  -6.4735  -6.2870  -5.9117  -0.8080  -0.4850  -0.2407
    -0.1464  -0.1009  -0.0749   4.1191   4.2804   5.1051   5.4254   5.5001
     5.5403   6.0959   6.1586   6.1702   6.2440   6.2881   6.3045   6.4190
     6.9065   7.0293   7.1792   7.2656   7.4364   7.6935   7.7050   7.8107
     7.8522   8.0795   8.2290   8.4309   8.6143   8.6924   8.9640   8.9815
     9.1557   9.1758   9.2107   9.2644   9.3871   9.7321  10.0140  14.1774
    14.8183  15.2676  16.0562  16.2129  16.5242  16.8853  16.8955  17.0163

          k = 0.3811 0.1245 0.0000 (  9457 PWs)   bands (ev):

   -30.4535 -15.2370 -15.2178 -11.1508 -10.8790 -10.6426  -7.1838  -7.1289
    -7.0573  -6.5650  -6.4427  -6.2621  -5.9310  -0.8056  -0.5043  -0.4512
    -0.3842  -0.1249  -0.1167   4.0133   4.2575   5.0785   5.2846   5.3160
     5.5843   5.8091   5.8462   5.8563   5.9887   6.2590   6.5219   6.5427
     6.8693   6.9782   7.3424   7.3996   7.4931   7.6650   7.7446   7.8729
     7.9031   8.0903   8.4219   8.5306   8.6349   8.7651   8.9820   9.0052
     9.0868   9.1346   9.3218   9.6407   9.8833  10.2008  10.2876  14.0455
    14.8250  15.0198  16.0296  16.3561  16.4546  16.8248  16.9498  17.2605

          k = 0.3811 0.2490 0.0000 (  9478 PWs)   bands (ev):

   -30.4485 -15.2014 -15.1825 -11.1331 -10.8708 -10.7962  -6.9755  -6.9706
    -6.8545  -6.7342  -6.3721  -6.2007  -6.0040  -0.8576  -0.8458  -0.6593
    -0.4805  -0.3924  -0.3513   3.6785   4.1413   4.8796   4.9915   5.0030
     5.1447   5.2409   5.5206   5.8533   5.8726   6.4650   6.4785   6.6538
     6.7170   6.7711   7.0304   7.4925   7.8251   7.8413   8.1035   8.1373
     8.3145   8.3500   8.6216   8.7515   8.9067   8.9675   9.0216   9.1044
     9.1234   9.1995   9.5954   9.6975  10.8024  10.9320  11.0112  13.5752
    14.3752  15.2246  16.0889  16.5515  16.6088  16.7275  17.1827  17.2616

          k = 0.3811 0.3736 0.0000 (  9489 PWs)   bands (ev):

   -30.4436 -15.1652 -15.1466 -11.1160 -11.0707 -10.7073  -6.9502  -6.8376
    -6.7102  -6.5640  -6.3231  -6.1544  -6.1387  -1.0791  -1.0166  -0.7889
    -0.7541  -0.6064  -0.4422   3.2893   3.8931   4.3745   4.7326   4.7848
     4.8277   5.1011   5.3942   5.8471   6.0563   6.2901   6.5387   6.5616
     6.6523   6.7033   6.8068   7.5419   7.9175   8.2188   8.4429   8.5248
     8.5426   8.7899   8.8226   8.9411   8.9481   8.9798   9.2203   9.2841
     9.3274   9.4152   9.5686   9.9081  11.3494  11.4636  11.5725  13.0943
    14.0970  15.3712  15.9957  16.4489  16.6256  16.7857  16.9156  17.2169

          k = 0.3811-0.4981 0.0000 (  9446 PWs)   bands (ev):

   -30.4415 -15.1501 -15.1316 -11.1492 -11.1070 -10.6683  -7.0120  -6.8103
    -6.4722  -6.4413  -6.3393  -6.3167  -6.1130  -1.0811  -1.0674  -1.0272
    -0.8428  -0.6643  -0.4349   3.1252   3.7563   4.1376   4.6857   4.6921
     4.7398   5.0920   5.3594   5.8447   6.1328   6.2227   6.4720   6.5175
     6.6321   6.6711   6.8052   7.5515   7.9459   8.3877   8.5938   8.6027
     8.7060   8.8719   8.9081   8.9845   9.0303   9.1081   9.2498   9.3252
     9.3905   9.4332   9.7705   9.9015  11.4538  11.6767  11.7649  12.9110
    14.0309  15.3904  15.7154  16.4499  16.6579  16.7131  17.0654  17.3646

          k =-0.5081 0.0000 0.0000 (  9438 PWs)   bands (ev):

   -30.4529 -15.2268 -15.2095 -11.2451 -10.8624 -10.5332  -7.2732  -7.1790
    -7.1765  -6.4727  -6.4548  -6.3453  -5.9063  -0.8250  -0.4588  -0.2539
    -0.1669  -0.0541  -0.0290   3.9750   4.1365   5.1174   5.4519   5.5489
     5.5958   6.0358   6.0855   6.1113   6.1178   6.1179   6.1492   6.5749
     6.7769   6.8470   7.1721   7.2602   7.4316   7.6865   7.7954   7.8116
     7.8477   8.1033   8.1145   8.5951   8.6508   8.7353   8.9131   8.9495
     9.0773   9.2022   9.2088   9.3579   9.4236   9.7515   9.9495  14.3142
    15.1930  15.2376  16.1730  16.6817  16.7043  16.8458  16.9439  17.0443

          k =-0.5081 0.1245 0.0000 (  9434 PWs)   bands (ev):

   -30.4509 -15.2131 -15.1958 -11.2372 -10.8304 -10.6378  -7.1998  -7.1396
    -7.0450  -6.5423  -6.4228  -6.3079  -5.9191  -0.8169  -0.4618  -0.4061
    -0.2869  -0.2528  -0.2179   3.8594   4.1039   5.0749   5.3290   5.4848
     5.5818   5.6260   5.6450   5.7878   5.9665   6.2224   6.4351   6.6509
     6.8039   6.9454   7.3041   7.3174   7.5125   7.6942   7.7392   7.8600
     8.0016   8.1037   8.3605   8.6250   8.6950   8.7702   8.8898   9.0476
     9.1273   9.1759   9.3984   9.5995   9.8765  10.2028  10.2586  14.0664
    14.8081  15.2784  16.3107  16.4259  16.8851  16.9504  16.9850  17.3163

          k =-0.5081 0.2490 0.0000 (  9456 PWs)   bands (ev):

   -30.4459 -15.1796 -15.1624 -11.2183 -10.8642 -10.7495  -7.0415  -6.9944
    -6.7524  -6.7128  -6.3433  -6.2131  -5.9775  -0.8188  -0.7605  -0.6604
    -0.6583  -0.5579  -0.4339   3.5080   3.9664   4.8727   4.9929   5.0571
     5.0641   5.1671   5.4118   5.8360   5.8492   6.4910   6.5561   6.6284
     6.6840   6.7140   6.9935   7.5268   7.8464   7.9817   8.1625   8.1779
     8.3058   8.4780   8.6917   8.8134   8.8362   9.0032   9.0133   9.1055
     9.3286   9.3987   9.3998   9.5712  10.8684  10.9393  11.0761  13.4148
    14.2739  15.4678  16.4153  16.5447  16.6949  16.7302  17.2261  17.2429

          k =-0.5081 0.3736 0.0000 (  9486 PWs)   bands (ev):

   -30.4410 -15.1455 -15.1285 -11.1994 -11.0635 -10.6626  -6.9387  -6.8880
    -6.7025  -6.4852  -6.2601  -6.1221  -6.1108  -1.1025  -1.0643  -1.0232
    -0.8043  -0.7752  -0.4272   3.1023   3.7114   4.3885   4.6616   4.7054
     4.7751   5.1070   5.3679   5.8186   6.0478   6.3862   6.4737   6.5178
     6.6575   6.7267   6.7546   7.5674   8.0890   8.3102   8.5493   8.6299
     8.6401   8.8091   8.9001   8.9904   9.0454   9.2334   9.2353   9.2525
     9.2572   9.4068   9.7640   9.8020  11.3153  11.6482  11.7489  12.8486
    13.9837  15.5988  15.9502  16.2894  16.5542  16.7784  17.0323  17.2006

          k =-0.5081-0.4981 0.0000 (  9504 PWs)   bands (ev):

   -30.4389 -15.1313 -15.1142 -11.1915 -11.1400 -10.6246  -6.9622  -6.8946
    -6.4467  -6.3801  -6.3186  -6.2231  -6.0658  -1.2420  -1.1986  -1.1655
    -0.8993  -0.7802  -0.4208   2.9306   3.5757   4.1520   4.5254   4.6580
     4.7103   5.1005   5.3527   5.8150   6.1438   6.3171   6.3791   6.4788
     6.6314   6.6532   6.8023   7.5768   8.1267   8.5620   8.6571   8.7218
     8.7546   8.9901   9.0290   9.0745   9.0865   9.1161   9.2849   9.3675
     9.4143   9.4171   9.9118  10.0075  11.3889  11.9161  12.0016  12.6380
    13.9177  15.6244  15.6454  16.2515  16.4286  16.4985  16.9131  17.7022

     the Fermi energy is    10.0486 ev

!    total energy              =    -696.89513735 Ry
     Harris-Foulkes estimate   =    -696.89513748 Ry
     estimated scf accuracy    <       0.00000031 Ry

     The total energy is the sum of the following terms:

     one-electron contribution =    -202.96459590 Ry
     hartree contribution      =     186.60170864 Ry
     xc contribution           =    -148.93703390 Ry
     ewald contribution        =    -531.59229155 Ry
     smearing contrib. (-TS)   =      -0.00292464 Ry

     convergence has been achieved in  28 iterations

     Forces acting on atoms (cartesian axes, Ry/au):

     atom    1 type  2   force =     0.00000000    0.00000000   -0.00837217
     atom    2 type  2   force =     0.00000000    0.00000000    0.00837217
     atom    3 type  1   force =     0.00000000    0.00000000    0.00000000
     atom    4 type  4   force =     0.00000000    0.00000000    0.00272322
     atom    5 type  4   force =     0.00000000    0.00000000   -0.00272322
     atom    6 type  4   force =     0.00000000    0.00000000    0.00000000
     atom    7 type  3   force =     0.00000000    0.00000000    0.00000000
     atom    8 type  3   force =     0.00000000    0.00000000    0.00131304
     atom    9 type  3   force =     0.00000000    0.00000000   -0.00131304
     atom   10 type  3   force =     0.00000000    0.00000000    0.00114554
     atom   11 type  3   force =     0.00000000    0.00000000   -0.00114554
     atom   12 type  3   force =     0.00000000    0.00000000   -0.00486629
     atom   13 type  3   force =     0.00000000    0.00000000    0.00486629

     Total force =     0.014438     Total SCF correction =     0.000146


     Computing stress (Cartesian axis) and pressure

          total   stress  (Ry/bohr**3)                   (kbar)     P=      -35.37
  -0.00022314   0.00000000   0.00000000          -32.82        0.00        0.00
   0.00000000  -0.00023166   0.00000000            0.00      -34.08        0.00
   0.00000000   0.00000000  -0.00026647            0.00        0.00      -39.20


     number of scf cycles    =   2
     number of bfgs steps    =   1

     enthalpy old            =    -696.8689365958 Ry
     enthalpy new            =    -696.8951373462 Ry

     CASE: enthalpy_new < enthalpy_old

     new trust radius        =       0.0706495585 bohr
     new conv_thr            =       0.0000008372 Ry

     new unit-cell volume =   1114.56404 a.u.^3 (   165.16135 Ang^3 )
     density =      6.69803 g/cm^3

CELL_PARAMETERS (angstrom)
   3.749860623   0.000000000   0.000000000
   0.000000000   3.824137517   0.000000000
   0.000000000   0.000000000  11.517541730

ATOMIC_POSITIONS (angstrom)
Ba            1.8749293363        1.9120697323        9.4267878595
Ba            1.8749293363        1.9120697323        2.0907577671
Y             1.8749293363        1.9120697323        5.7587728133
Cu            0.0000000000        0.0000000000        7.4505184828
Cu            0.0000000000        0.0000000000        4.0670261697
Cu            0.0000000000        0.0000000000        0.0000000000
O             0.0000000000        1.9120697323        0.0000000000
O             1.8749293363        0.0000000000        7.1476837289
O             1.8749293363        0.0000000000        4.3698609236
O             0.0000000000        1.9120697323        7.1584827006
O             0.0000000000        1.9120697323        4.3590629260
O             0.0000000000        0.0000000000        9.6843334523
O             0.0000000000        0.0000000000        1.8332121743



     Writing output data file /n/holyscratch01/hoffman_lab/ruizhe/outdir/YBCO_ecut60.save/
     NEW-OLD atomic charge density approx. for the potential
     extrapolated charge  102.93552, renormalised to  106.00000

     total cpu time spent up to now is      205.7 secs

     Self-consistent Calculation

     iteration #  1     ecut=    60.00 Ry     beta= 0.50
     Davidson diagonalization with overlap
     ethr =  1.00E-06,  avg # of iterations = 12.2

     negative rho (up, down):  2.830E-04 0.000E+00

     total cpu time spent up to now is      213.9 secs

     total energy              =    -692.66721002 Ry
     Harris-Foulkes estimate   =    -703.55264535 Ry
     estimated scf accuracy    <       5.31302527 Ry

     iteration #  2     ecut=    60.00 Ry     beta= 0.50
     Davidson diagonalization with overlap
     ethr =  5.01E-03,  avg # of iterations =  5.6

     negative rho (up, down):  4.108E-01 0.000E+00

     total cpu time spent up to now is      219.5 secs

     total energy              =    -689.55446443 Ry
     Harris-Foulkes estimate   =    -722.86329692 Ry
     estimated scf accuracy    <    2411.09576029 Ry

     iteration #  3     ecut=    60.00 Ry     beta= 0.50
     Davidson diagonalization with overlap
     ethr =  5.01E-03,  avg # of iterations =  4.4

     negative rho (up, down):  7.767E-02 0.000E+00

     total cpu time spent up to now is      224.2 secs

     total energy              =    -656.22485740 Ry
     Harris-Foulkes estimate   =    -746.48045444 Ry
     estimated scf accuracy    <   48562.01398189 Ry

     iteration #  4     ecut=    60.00 Ry     beta= 0.50
     Davidson diagonalization with overlap
     ethr =  5.01E-03,  avg # of iterations =  4.2

     total cpu time spent up to now is      229.1 secs

     total energy              =    -688.83849481 Ry
     Harris-Foulkes estimate   =    -704.55714563 Ry
     estimated scf accuracy    <   14343.02794341 Ry

     iteration #  5     ecut=    60.00 Ry     beta= 0.50
     Davidson diagonalization with overlap
     ethr =  5.01E-03,  avg # of iterations =  3.0

     total cpu time spent up to now is      232.9 secs

     total energy              =    -696.58274468 Ry
     Harris-Foulkes estimate   =    -697.39446743 Ry
     estimated scf accuracy    <      59.12656836 Ry

     iteration #  6     ecut=    60.00 Ry     beta= 0.50
     Davidson diagonalization with overlap
     ethr =  5.01E-03,  avg # of iterations =  4.0

     total cpu time spent up to now is      236.3 secs

     total energy              =    -696.36337424 Ry
     Harris-Foulkes estimate   =    -697.76606857 Ry
     estimated scf accuracy    <     216.33421215 Ry

     iteration #  7     ecut=    60.00 Ry     beta= 0.50
     Davidson diagonalization with overlap
     ethr =  5.01E-03,  avg # of iterations =  3.1

     total cpu time spent up to now is      239.4 secs

     total energy              =    -696.95275076 Ry
     Harris-Foulkes estimate   =    -697.00399718 Ry
     estimated scf accuracy    <       1.36498892 Ry

     iteration #  8     ecut=    60.00 Ry     beta= 0.50
     Davidson diagonalization with overlap
     ethr =  1.29E-03,  avg # of iterations =  1.0

     total cpu time spent up to now is      241.9 secs

     total energy              =    -696.93881886 Ry
     Harris-Foulkes estimate   =    -696.97220294 Ry
     estimated scf accuracy    <       0.52454477 Ry

     iteration #  9     ecut=    60.00 Ry     beta= 0.50
     Davidson diagonalization with overlap
     ethr =  4.95E-04,  avg # of iterations =  1.4

     total cpu time spent up to now is      244.6 secs

     total energy              =    -696.93022876 Ry
     Harris-Foulkes estimate   =    -696.94448105 Ry
     estimated scf accuracy    <       0.37024887 Ry

     iteration # 10     ecut=    60.00 Ry     beta= 0.50
     Davidson diagonalization with overlap
     ethr =  3.49E-04,  avg # of iterations =  1.0

     total cpu time spent up to now is      247.1 secs

     total energy              =    -696.88285135 Ry
     Harris-Foulkes estimate   =    -696.93190886 Ry
     estimated scf accuracy    <       0.29592676 Ry

     iteration # 11     ecut=    60.00 Ry     beta= 0.50
     Davidson diagonalization with overlap
     ethr =  2.79E-04,  avg # of iterations =  3.4

     total cpu time spent up to now is      250.2 secs

     total energy              =    -696.89571645 Ry
     Harris-Foulkes estimate   =    -696.90301654 Ry
     estimated scf accuracy    <       0.04734426 Ry

     iteration # 12     ecut=    60.00 Ry     beta= 0.50
     Davidson diagonalization with overlap
     ethr =  4.47E-05,  avg # of iterations =  6.4

     total cpu time spent up to now is      254.4 secs

     total energy              =    -696.89363779 Ry
     Harris-Foulkes estimate   =    -696.90090503 Ry
     estimated scf accuracy    <       0.31851158 Ry

     iteration # 13     ecut=    60.00 Ry     beta= 0.50
     Davidson diagonalization with overlap
     ethr =  4.47E-05,  avg # of iterations =  2.7

     total cpu time spent up to now is      257.4 secs

     total energy              =    -696.88973737 Ry
     Harris-Foulkes estimate   =    -696.90925331 Ry
     estimated scf accuracy    <      14.15582013 Ry

     iteration # 14     ecut=    60.00 Ry     beta= 0.50
     Davidson diagonalization with overlap
     ethr =  4.47E-05,  avg # of iterations =  2.2

     total cpu time spent up to now is      260.4 secs

     total energy              =    -696.89638586 Ry
     Harris-Foulkes estimate   =    -696.90198939 Ry
     estimated scf accuracy    <       3.61539798 Ry

     iteration # 15     ecut=    60.00 Ry     beta= 0.50
     Davidson diagonalization with overlap
     ethr =  4.47E-05,  avg # of iterations =  2.0

     total cpu time spent up to now is      263.2 secs

     total energy              =    -696.89885426 Ry
     Harris-Foulkes estimate   =    -696.89902010 Ry
     estimated scf accuracy    <       0.02185753 Ry

     iteration # 16     ecut=    60.00 Ry     beta= 0.50
     Davidson diagonalization with overlap
     ethr =  2.06E-05,  avg # of iterations =  1.0

     total cpu time spent up to now is      265.8 secs

     total energy              =    -696.89870458 Ry
     Harris-Foulkes estimate   =    -696.89890711 Ry
     estimated scf accuracy    <       0.00620740 Ry

     iteration # 17     ecut=    60.00 Ry     beta= 0.50
     Davidson diagonalization with overlap
     ethr =  5.86E-06,  avg # of iterations =  1.6

     total cpu time spent up to now is      268.5 secs

     total energy              =    -696.89881487 Ry
     Harris-Foulkes estimate   =    -696.89884219 Ry
     estimated scf accuracy    <       0.00106238 Ry

     iteration # 18     ecut=    60.00 Ry     beta= 0.50
     Davidson diagonalization with overlap
     ethr =  1.00E-06,  avg # of iterations =  3.1

     total cpu time spent up to now is      271.5 secs

     total energy              =    -696.89883999 Ry
     Harris-Foulkes estimate   =    -696.89885396 Ry
     estimated scf accuracy    <       0.00213859 Ry

     iteration # 19     ecut=    60.00 Ry     beta= 0.50
     Davidson diagonalization with overlap
     ethr =  1.00E-06,  avg # of iterations =  1.0

     total cpu time spent up to now is      274.1 secs

     total energy              =    -696.89883807 Ry
     Harris-Foulkes estimate   =    -696.89884532 Ry
     estimated scf accuracy    <       0.00099654 Ry

     iteration # 20     ecut=    60.00 Ry     beta= 0.50
     Davidson diagonalization with overlap
     ethr =  9.40E-07,  avg # of iterations =  1.8

     total cpu time spent up to now is      276.9 secs

     total energy              =    -696.89884437 Ry
     Harris-Foulkes estimate   =    -696.89884519 Ry
     estimated scf accuracy    <       0.00013504 Ry

     iteration # 21     ecut=    60.00 Ry     beta= 0.50
     Davidson diagonalization with overlap
     ethr =  1.27E-07,  avg # of iterations =  1.7

     total cpu time spent up to now is      279.6 secs

     total energy              =    -696.89884494 Ry
     Harris-Foulkes estimate   =    -696.89884604 Ry
     estimated scf accuracy    <       0.00019295 Ry

     iteration # 22     ecut=    60.00 Ry     beta= 0.50
     Davidson diagonalization with overlap
     ethr =  1.27E-07,  avg # of iterations =  1.0

     total cpu time spent up to now is      282.2 secs

     total energy              =    -696.89884488 Ry
     Harris-Foulkes estimate   =    -696.89884522 Ry
     estimated scf accuracy    <       0.00005917 Ry

     iteration # 23     ecut=    60.00 Ry     beta= 0.50
     Davidson diagonalization with overlap
     ethr =  5.58E-08,  avg # of iterations =  1.6

     total cpu time spent up to now is      284.9 secs

     total energy              =    -696.89884518 Ry
     Harris-Foulkes estimate   =    -696.89884521 Ry
     estimated scf accuracy    <       0.00001048 Ry

     iteration # 24     ecut=    60.00 Ry     beta= 0.50
     Davidson diagonalization with overlap
     ethr =  9.89E-09,  avg # of iterations =  2.5

     total cpu time spent up to now is      287.8 secs

     total energy              =    -696.89884524 Ry
     Harris-Foulkes estimate   =    -696.89884527 Ry
     estimated scf accuracy    <       0.00000833 Ry

     iteration # 25     ecut=    60.00 Ry     beta= 0.50
     Davidson diagonalization with overlap
     ethr =  7.86E-09,  avg # of iterations =  2.0

     total cpu time spent up to now is      290.6 secs

     total energy              =    -696.89884509 Ry
     Harris-Foulkes estimate   =    -696.89884544 Ry
     estimated scf accuracy    <       0.00020693 Ry

     iteration # 26     ecut=    60.00 Ry     beta= 0.50
     Davidson diagonalization with overlap
     ethr =  7.86E-09,  avg # of iterations =  2.0

     total cpu time spent up to now is      293.4 secs

     total energy              =    -696.89884524 Ry
     Harris-Foulkes estimate   =    -696.89884526 Ry
     estimated scf accuracy    <       0.00000313 Ry

     iteration # 27     ecut=    60.00 Ry     beta= 0.50
     Davidson diagonalization with overlap
     ethr =  2.95E-09,  avg # of iterations =  1.0

[...]

   -29.9597 -14.7707 -14.7383 -10.6045 -10.4524 -10.0324  -7.1807  -6.6495
    -6.4636  -6.2212  -5.9921  -5.7983  -5.7595  -0.0368   0.0658   0.2205
     0.3042   0.4433   0.5120   4.9221   5.1055   5.3054   5.4803   5.6209
     5.7854   5.9763   6.2296   6.6294   6.7588   6.9443   6.9886   7.0349
     7.1932   7.3911   7.7352   7.7454   7.8789   7.8951   8.0060   8.2306
     8.4588   8.8667   8.8857   8.8956   9.0549   9.1597   9.2978   9.4599
     9.5342   9.8208   9.8429   9.9148   9.9652  10.5550  11.3953  14.4000
    14.5521  15.8322  15.8850  16.0029  16.1102  17.1192  17.3130  17.8004

          k = 0.0000 0.3757 0.0000 (  8710 PWs)   bands (ev):

   -29.9541 -14.7172 -14.6863 -10.6766 -10.4968 -10.0246  -6.8837  -6.8511
    -6.4328  -6.1486  -5.9492  -5.9448  -5.9120  -0.0105   0.1066   0.2561
     0.3527   0.5428   0.6172   4.5101   4.7537   4.8244   5.3826   5.8326
     5.8378   5.8714   6.0348   6.5885   6.6708   6.6897   6.7103   6.8353
     6.9707   7.2732   7.4418   7.5460   7.7578   7.7858   8.0492   8.2853
     8.5240   8.8283   8.9324   8.9766   9.1044   9.2938   9.5366   9.5966
     9.7370   9.8050   9.8156   9.8157  10.0842  10.5312  12.0110  14.7878
    15.4085  15.8286  16.0464  16.7570  16.9547  17.0284  17.0837  18.1606

          k = 0.0000-0.5010 0.0000 (  8730 PWs)   bands (ev):

   -29.9518 -14.6946 -14.6643 -10.7614 -10.4490 -10.0213  -6.9420  -6.7360
    -6.4765  -6.0342  -6.0336  -6.0052  -5.9253   0.0069   0.1212   0.2722
     0.3685   0.5857   0.6627   4.3130   4.5833   4.7018   5.3590   5.7375
     5.8637   6.0154   6.0192   6.3598   6.5675   6.6859   6.7496   6.7994
     6.8930   7.1874   7.2113   7.5235   7.6382   7.7616   8.1520   8.2943
     8.4381   8.9658   8.9921   9.0322   9.0377   9.2681   9.5654   9.6724
     9.7627   9.8090   9.8127   9.9418  10.2144  10.4097  12.2152  15.0210
    15.5041  15.8062  16.5593  16.6687  16.8653  17.1904  17.4235  18.2885

          k = 0.1275 0.0000 0.0000 (  8711 PWs)   bands (ev):

   -29.9647 -14.8186 -14.7862 -10.6992 -10.1828 -10.0599  -7.4808  -6.6281
    -6.4470  -6.2622  -6.0481  -5.6422  -5.5296  -0.0976  -0.0229   0.2212
     0.2545   0.3601   0.3801   5.2615   5.3123   5.4654   5.4760   5.8004
     5.8358   6.6606   6.7294   6.8098   6.8725   7.0884   7.3769   7.3888
     7.4519   7.7427   7.7764   7.8401   7.9813   8.1082   8.1405   8.1696
     8.3249   8.5471   8.6630   8.7201   8.8421   8.8888   9.2004   9.2018
     9.6323   9.8289   9.9481  10.0492  10.0788  10.1143  10.2846  13.6657
    14.0552  15.1311  15.2452  15.9345  16.0867  17.0254  17.2449  17.5502

          k = 0.1275 0.1252 0.0000 (  8714 PWs)   bands (ev):

   -29.9624 -14.7983 -14.7664 -10.6610 -10.1961 -10.1657  -7.3450  -6.5849
    -6.4768  -6.2323  -6.0749  -5.6904  -5.5921  -0.0846  -0.0266   0.1266
     0.1272   0.4769   0.4980   5.1691   5.3093   5.4284   5.4802   5.6076
     5.9134   6.2597   6.5883   6.7504   6.7640   6.9937   7.1232   7.1350
     7.4847   7.6802   7.7536   7.8399   7.9502   8.0138   8.0701   8.2249
     8.6122   8.6184   8.7535   8.7650   8.8669   8.8932   9.0448   9.3520
     9.6110   9.8029  10.0348  10.0737  10.2804  10.4182  10.5796  13.9382
    14.1943  15.4352  15.4924  15.8404  16.1303  17.1190  17.2653  17.4038

          k = 0.1275 0.2505 0.0000 (  8734 PWs)   bands (ev):

   -29.9569 -14.7483 -14.7176 -10.5635 -10.4453 -10.1650  -7.0438  -6.6143
    -6.4777  -6.1762  -6.0797  -5.8048  -5.7407  -0.0578  -0.0499   0.0770
     0.0898   0.5359   0.5756   4.8270   5.1002   5.3114   5.4609   5.4937
     5.5344   6.0503   6.2090   6.6237   6.6719   6.7627   6.7749   7.0092
     7.1610   7.5168   7.7990   7.8337   7.8403   7.9692   7.9795   8.1875
     8.6165   8.7171   8.8257   8.9926   9.1065   9.2430   9.3318   9.3915
     9.4985   9.6173  10.0826  10.2712  10.3661  10.7187  11.3971  14.4405
    14.6982  15.6586  16.0036  16.2651  16.2702  17.2835  17.2993  17.6837

          k = 0.1275 0.3757 0.0000 (  8719 PWs)   bands (ev):

   -29.9513 -14.6970 -14.6676 -10.6672 -10.4573 -10.1545  -6.8067  -6.7421
    -6.3935  -6.1309  -6.0357  -5.9190  -5.8901  -0.0301  -0.0023   0.0967
     0.1448   0.4938   0.5160   4.4478   4.7070   4.8003   5.3673   5.5600
     5.6423   5.9671   6.0747   6.3062   6.3244   6.7246   6.7996   6.9167
     6.9488   7.2558   7.7215   7.7449   7.7757   7.8816   8.1548   8.2374
     8.5960   8.7911   8.9642   9.0500   9.1867   9.3968   9.4477   9.5575
     9.6489   9.7762  10.0276  10.2284  10.4579  10.8118  11.9835  14.7492
    15.2707  15.5048  16.2094  16.9513  17.0204  17.1719  17.4517  18.0538

          k = 0.1275-0.5010 0.0000 (  8708 PWs)   bands (ev):

   -29.9490 -14.6753 -14.6465 -10.7514 -10.4103 -10.1501  -6.8948  -6.5788
    -6.4235  -6.0352  -6.0100  -6.0089  -5.9676  -0.0015   0.0362   0.1225
     0.2077   0.4298   0.4418   4.2761   4.5008   4.6678   5.3423   5.5812
     5.7422   5.9010   6.0437   6.1473   6.1942   6.6828   6.8457   6.8994
     6.9008   7.1440   7.7023   7.7098   7.7165   7.8263   8.1580   8.3583
     8.6443   8.7554   9.0177   9.0907   9.1043   9.3978   9.5282   9.6262
     9.7826   9.9130  10.0423  10.1917  10.4551  10.7914  12.1756  15.0100
    15.1735  15.4356  16.7491  16.7719  17.1406  17.4058  17.5924  18.2602

          k = 0.2549 0.0000 0.0000 (  8700 PWs)   bands (ev):

   -29.9579 -14.7563 -14.7288 -10.5897 -10.4716 -10.0505  -7.1917  -6.7390
    -6.5402  -6.1497  -6.1178  -5.7889  -5.5450  -0.2249   0.0161   0.3313
     0.3349   0.3626   0.4311   4.8543   4.9936   5.3977   5.5987   5.8351
     5.9016   6.5662   6.6872   6.6905   6.7392   6.8019   7.0159   7.0267
     7.4449   7.7147   7.7408   7.7999   7.8425   7.9403   8.1921   8.2068
     8.2112   8.5119   8.6813   8.9172   8.9496   8.9571   9.1369   9.3525
     9.7139   9.7407   9.7448   9.8628   9.9341  10.2028  10.5159  14.2462
    14.5554  15.8535  15.8906  16.0285  16.6324  17.5231  17.5562  17.6832

          k = 0.2549 0.1252 0.0000 (  8713 PWs)   bands (ev):

   -29.9556 -14.7380 -14.7108 -10.5528 -10.4654 -10.1694  -7.0554  -6.6826
    -6.5214  -6.1843  -6.1194  -5.7984  -5.5832  -0.2316   0.0181   0.0273
     0.1125   0.5270   0.5341   4.7671   4.9926   5.3908   5.5165   5.6075
     5.9550   6.2394   6.4402   6.5811   6.6622   6.6773   6.8150   7.0306
     7.4576   7.5032   7.8245   7.8394   7.9592   7.9777   8.0022   8.1868
     8.5045   8.6394   8.7042   8.9217   8.9828   9.1279   9.2456   9.2605
     9.5644   9.6324   9.9753  10.2848  10.2970  10.6678  10.6901  14.3279
    14.6850  15.6485  16.1733  16.2498  16.4509  17.3612  17.3708  17.8129

          k = 0.2549 0.2505 0.0000 (  8720 PWs)   bands (ev):

   -29.9501 -14.6932 -14.6667 -10.4607 -10.4588 -10.4110  -6.7559  -6.5430
    -6.5238  -6.2811  -6.0605  -5.8238  -5.6914  -0.2892  -0.2409  -0.0394
     0.0272   0.4452   0.4547   4.4514   4.9048   5.3096   5.3301   5.3464
     5.4313   6.0526   6.1011   6.2225   6.3552   6.7497   6.8096   7.0123
     7.1723   7.4642   7.5140   7.7630   8.0122   8.1141   8.3155   8.4551
     8.5528   8.8705   9.0374   9.0677   9.1189   9.1728   9.4717   9.5001
     9.5095   9.6404  10.1716  10.3364  10.9875  11.2096  11.4029  14.3201
    15.0171  15.4213  16.1860  16.9303  16.9748  17.2833  17.5131  17.6551

          k = 0.2549 0.3757 0.0000 (  8730 PWs)   bands (ev):

   -29.9446 -14.6473 -14.6217 -10.6449 -10.4295 -10.3567  -6.6954  -6.4669
    -6.3032  -6.2494  -6.0518  -5.8564  -5.8372  -0.3145  -0.3088  -0.0871
     0.0223   0.1895   0.2455   4.0801   4.6277   4.7025   5.2270   5.2974
     5.3872   5.6764   5.8569   6.2774   6.3040   6.7682   6.7819   6.9869
     6.9989   7.2298   7.3964   7.8420   8.0250   8.2753   8.5887   8.6761
     8.7046   8.9271   9.1249   9.2373   9.3426   9.4504   9.4999   9.6258
     9.7558   9.7697  10.1394  10.2817  11.3566  11.5322  11.9081  14.1637
    14.9864  15.5101  16.7012  16.7775  17.3437  17.5834  17.7452  17.9943

          k = 0.2549-0.5010 0.0000 (  8716 PWs)   bands (ev):

   -29.9423 -14.6280 -14.6027 -10.7274 -10.4235 -10.3115  -6.7762  -6.2823
    -6.2337  -6.2189  -6.0432  -5.9531  -5.8730  -0.2280  -0.1723  -0.1653
    -0.1643   0.1000   0.1314   3.9257   4.4630   4.4824   5.2049   5.3256
     5.3746   5.5311   5.7657   6.2744   6.3024   6.7250   6.8146   6.9197
     7.0659   7.0969   7.3650   7.8758   8.0436   8.2938   8.6221   8.8586
     8.8770   8.9695   9.1541   9.2619   9.3072   9.4479   9.6154   9.7874
     9.8636   9.8877  10.0547  10.1922  11.4542  11.6130  12.0637  14.0882
    14.9511  15.5126  16.5427  17.2137  17.4621  17.8035  17.8396  18.1157

          k = 0.3824 0.0000 0.0000 (  8692 PWs)   bands (ev):

   -29.9510 -14.6919 -14.6698 -10.7166 -10.4694 -10.0410  -6.9313  -6.8612
    -6.7427  -6.0856  -6.0648  -5.9324  -5.5355  -0.3019   0.0650   0.3178
     0.4270   0.4489   0.4776   4.4846   4.6504   5.3820   5.7895   5.8561
     5.9037   6.3927   6.5224   6.5339   6.5711   6.6854   6.6902   6.8018
     7.3709   7.3966   7.5746   7.6972   7.9130   8.1215   8.1368   8.1568
     8.2180   8.5279   8.6753   8.8916   9.0342   9.1659   9.4246   9.4613
     9.6285   9.6534   9.6619   9.7447   9.8849  10.2644  10.5722  14.6032
    15.2739  15.7823  16.5652  16.8144  17.2111  17.5944  17.6514  17.6637

          k = 0.3824 0.1252 0.0000 (  8705 PWs)   bands (ev):

   -29.9487 -14.6759 -14.6538 -10.7085 -10.4341 -10.1570  -6.8269  -6.7564
    -6.7034  -6.1624  -6.0320  -5.9089  -5.5556  -0.3025   0.0388   0.0845
     0.1561   0.4344   0.4476   4.3730   4.6259   5.3664   5.6451   5.6837
     5.9472   6.1949   6.2292   6.2358   6.3521   6.5776   6.8584   6.9306
     7.3239   7.4033   7.7378   7.7921   7.8504   8.1159   8.1376   8.2825
     8.3492   8.5646   8.8575   8.9948   9.0605   9.2410   9.4706   9.4773
     9.5271   9.5733   9.7721  10.2038  10.3745  10.7010  10.8044  14.4691
    15.3108  15.5239  16.6342  16.9329  17.0595  17.5168  17.6964  17.9326

          k = 0.3824 0.2505 0.0000 (  8735 PWs)   bands (ev):

   -29.9433 -14.6365 -14.6147 -10.6888 -10.4047 -10.3442  -6.6247  -6.6076
    -6.4544  -6.3492  -5.9563  -5.8515  -5.6310  -0.3611  -0.3323  -0.1434
     0.0419   0.1599   0.1984   4.0237   4.5032   5.2438   5.3764   5.3779
     5.4264   5.6267   5.9269   6.2442   6.2665   6.7890   6.8626   6.9946
     7.1573   7.2078   7.4310   7.8780   8.2187   8.2588   8.5647   8.5817
     8.7118   8.7882   9.0983   9.1856   9.3445   9.4352   9.4686   9.5532
     9.6010   9.6752  10.0846  10.2322  11.2891  11.4172  11.5121  13.9985
    14.9366  15.6845  16.7331  17.2051  17.2635  17.4177  17.8009  17.9384

          k = 0.3824 0.3757 0.0000 (  8754 PWs)   bands (ev):

   -29.9379 -14.5964 -14.5749 -10.6697 -10.6194 -10.2468  -6.5802  -6.4675
    -6.3538  -6.1527  -5.9029  -5.7951  -5.7836  -0.5778  -0.5187  -0.2737
    -0.2526  -0.0827   0.0866   3.6238   4.2474   4.7376   5.1107   5.1639
     5.2252   5.3855   5.8158   6.2767   6.4515   6.6938   6.8349   6.9822
     7.0353   7.1004   7.2264   7.9694   8.3461   8.6005   8.8846   8.9770
     8.9841   9.1868   9.2931   9.3834   9.3836   9.4213   9.7165   9.7588
     9.8091   9.9012  10.0921  10.3597  11.8139  11.9612  12.0718  13.5156
    14.6946  15.8387  16.6215  17.1076  17.2784  17.4906  17.6493  17.8644

          k = 0.3824-0.5010 0.0000 (  8776 PWs)   bands (ev):

   -29.9356 -14.5796 -14.5582 -10.7033 -10.6598 -10.2038  -6.6501  -6.4352
    -6.1057  -6.0583  -5.9198  -5.9197  -5.7724  -0.5797  -0.5675  -0.5235
    -0.3340  -0.1647   0.0894   3.4560   4.1081   4.4942   5.0715   5.0891
     5.1205   5.3779   5.7864   6.2895   6.5276   6.6296   6.7915   6.9148
     7.0276   7.0469   7.2228   7.9898   8.3810   8.7695   9.0267   9.0351
     9.1646   9.3082   9.3183   9.4261   9.5010   9.5487   9.7415   9.8717
     9.8792   9.9216  10.2361  10.3389  11.9166  12.1718  12.2636  13.3317
    14.6429  15.8659  16.3221  17.1188  17.2757  17.4535  17.7599  17.9950

          k =-0.5098 0.0000 0.0000 (  8682 PWs)   bands (ev):

   -29.9481 -14.6646 -14.6448 -10.8092 -10.4158 -10.0371  -6.9358  -6.8416
    -6.8026  -6.0593  -6.0416  -5.9917  -5.5250  -0.3288   0.0892   0.3118
     0.4197   0.5000   0.5276   4.3414   4.5059   5.3879   5.7991   5.9161
     5.9539   6.3463   6.3732   6.4671   6.4898   6.5043   6.5395   6.9675
     7.1395   7.3098   7.5588   7.6937   7.9231   8.1279   8.1359   8.2083
     8.2499   8.5372   8.5931   9.0370   9.0763   9.2158   9.3788   9.4616
     9.5877   9.6381   9.6879   9.8525   9.8527  10.2795  10.5198  14.7318
    15.6254  15.7551  16.6780  17.3160  17.5221  17.6016  17.6147  17.7147

          k =-0.5098 0.1252 0.0000 (  8708 PWs)   bands (ev):

   -29.9459 -14.6495 -14.6297 -10.8005 -10.3812 -10.1519  -6.8603  -6.7986
    -6.6611  -6.1351  -6.0082  -5.9561  -5.5386  -0.3242   0.0781   0.1467
     0.2867   0.2893   0.3297   4.2186   4.4708   5.3603   5.6866   5.8624
     5.9470   5.9837   6.0303   6.1652   6.3210   6.5828   6.7338   7.0475
     7.2643   7.3605   7.6998   7.7094   7.8645   8.1315   8.1670   8.2914
     8.4296   8.5915   8.7967   9.0726   9.1236   9.2455   9.3940   9.5113
     9.6008   9.6054   9.8262  10.1600  10.3753  10.6978  10.7823  14.4882
    15.3482  15.7036  16.9472  17.0303  17.5802  17.6276  17.7592  18.0121

          k =-0.5098 0.2505 0.0000 (  8728 PWs)   bands (ev):

   -29.9405 -14.6126 -14.5927 -10.7795 -10.3975 -10.2932  -6.6908  -6.6488
    -6.3499  -6.3215  -5.9251  -5.8664  -5.6001  -0.3388  -0.2341  -0.1430
    -0.1416  -0.0027   0.1026   3.8521   4.3264   5.2321   5.3784   5.4373
     5.4433   5.4504   5.8220   6.2273   6.2320   6.8741   6.9019   6.9622
     7.1260   7.1747   7.3803   7.9279   8.2327   8.4103   8.5865   8.6411
     8.7571   8.8940   9.1538   9.2452   9.2780   9.4710   9.5213   9.5417
     9.7515   9.8653   9.8697  10.1381  11.3460  11.4327  11.5821  13.8365
    14.8505  15.9001  17.1122  17.1967  17.3824  17.4120  17.8421  17.9422

          k =-0.5098 0.3757 0.0000 (  8774 PWs)   bands (ev):

   -29.9351 -14.5750 -14.5552 -10.7585 -10.6116 -10.1981  -6.5767  -6.5137
    -6.3466  -6.0690  -5.8404  -5.7705  -5.7495  -0.5975  -0.5715  -0.5211
    -0.2993  -0.2654   0.0969   3.4358   4.0638   4.7532   5.0575   5.0810
     5.1537   5.3906   5.8034   6.2335   6.4502   6.7982   6.8896   6.9156
     6.9199   7.1312   7.2068   8.0062   8.5307   8.7029   8.9807   9.0402
     9.0930   9.2698   9.3524   9.4438   9.4492   9.6604   9.7298   9.7470
     9.7580   9.9284  10.2319  10.2582  11.7791  12.1506  12.2532  13.2587
    14.5944  16.0526  16.5740  16.9867  17.1868  17.4852  17.7259  17.8640

          k =-0.5098-0.5010 0.0000 (  8788 PWs)   bands (ev):

   -29.9328 -14.5592 -14.5395 -10.7498 -10.6933 -10.1561  -6.5955  -6.5275
    -6.0665  -5.9750  -5.9593  -5.7956  -5.7287  -0.7447  -0.7060  -0.6692
    -0.3660  -0.3152   0.0995   3.2605   3.9253   4.5094   4.9271   5.0356
     5.0901   5.3862   5.7963   6.2447   6.5516   6.7305   6.8164   6.8515
     6.8844   7.0558   7.2534   8.0244   8.5779   8.9894   9.0572   9.1252
     9.1488   9.4201   9.4931   9.5354   9.6120   9.6682   9.6827   9.8490
     9.8963   9.9152  10.3818  10.4542  11.8557  12.4172  12.5055  13.0407
    14.5417  16.0888  16.2442  16.9516  17.0901  17.1411  17.5742  18.0747

     the Fermi energy is    10.5543 ev

!    total energy              =    -696.90044450 Ry
     Harris-Foulkes estimate   =    -696.90044450 Ry
     estimated scf accuracy    <          4.0E-09 Ry

     The total energy is the sum of the following terms:

     one-electron contribution =    -191.01829871 Ry
     hartree contribution      =     182.45302254 Ry
     xc contribution           =    -149.15839270 Ry
     ewald contribution        =    -539.17402699 Ry
     smearing contrib. (-TS)   =      -0.00274864 Ry

     convergence has been achieved in  34 iterations

     Forces acting on atoms (cartesian axes, Ry/au):

     atom    1 type  2   force =     0.00000000    0.00000000   -0.00012580
     atom    2 type  2   force =     0.00000000    0.00000000    0.00012580
     atom    3 type  1   force =     0.00000000    0.00000000    0.00000000
     atom    4 type  4   force =     0.00000000    0.00000000    0.00000815
     atom    5 type  4   force =     0.00000000    0.00000000   -0.00000815
     atom    6 type  4   force =     0.00000000    0.00000000    0.00000000
     atom    7 type  3   force =     0.00000000    0.00000000    0.00000000
     atom    8 type  3   force =     0.00000000    0.00000000    0.00003231
     atom    9 type  3   force =     0.00000000    0.00000000   -0.00003231
     atom   10 type  3   force =     0.00000000    0.00000000   -0.00002176
     atom   11 type  3   force =     0.00000000    0.00000000    0.00002176
     atom   12 type  3   force =     0.00000000    0.00000000   -0.00002669
     atom   13 type  3   force =     0.00000000    0.00000000    0.00002669

     Total force =     0.000190     Total SCF correction =     0.000004


     Computing stress (Cartesian axis) and pressure

          total   stress  (Ry/bohr**3)                   (kbar)     P=       -0.25
  -0.00000281   0.00000000   0.00000000           -0.41        0.00        0.00
   0.00000000  -0.00000203   0.00000000            0.00       -0.30        0.00
   0.00000000   0.00000000  -0.00000030            0.00        0.00       -0.04


     Writing output data file /n/holyscratch01/hoffman_lab/ruizhe/outdir/YBCO_ecut60.save/
 
     init_run     :      6.23s CPU      6.42s WALL (       2 calls)
     electrons    :   1377.50s CPU   1455.02s WALL (      26 calls)
     update_pot   :     70.51s CPU     70.74s WALL (      24 calls)
     forces       :     51.24s CPU     53.00s WALL (      26 calls)
     stress       :    130.14s CPU    135.02s WALL (      26 calls)

     Called by init_run:
     wfcinit      :      1.43s CPU      1.47s WALL (       2 calls)
     potinit      :      1.57s CPU      1.58s WALL (       2 calls)
     hinit0       :      2.67s CPU      2.69s WALL (       2 calls)

     Called by electrons:
     c_bands      :    989.54s CPU   1009.43s WALL (     464 calls)
     sum_band     :    275.61s CPU    306.11s WALL (     464 calls)
     v_of_rho     :      2.48s CPU      2.50s WALL (     489 calls)
     newd         :    111.98s CPU    139.54s WALL (     489 calls)
     mix_rho      :      2.40s CPU      2.43s WALL (     464 calls)

     Called by c_bands:
     init_us_2    :     14.32s CPU     15.41s WALL (   24550 calls)
     cegterg      :    921.52s CPU    937.73s WALL (   11600 calls)

     Called by sum_band:
     sum_band:bec :      0.62s CPU      0.62s WALL (   11600 calls)
     addusdens    :    137.87s CPU    165.15s WALL (     464 calls)

     Called by *egterg:
     h_psi        :    486.87s CPU    500.86s WALL (   38652 calls)
     s_psi        :     33.36s CPU     33.59s WALL (   38652 calls)
     g_psi        :      2.64s CPU      2.66s WALL (   27002 calls)
     cdiaghg      :    242.61s CPU    243.76s WALL (   37977 calls)

     Called by h_psi:
     h_psi:calbec :     43.93s CPU     44.57s WALL (   38652 calls)
     vloc_psi     :    403.33s CPU    416.40s WALL (   38652 calls)
     add_vuspsi   :     36.03s CPU     36.30s WALL (   38652 calls)

     General routines
     calbec       :     66.20s CPU     67.12s WALL (   53502 calls)
     fft          :      5.89s CPU      5.93s WALL (    3115 calls)
     ffts         :      0.28s CPU      0.28s WALL (     953 calls)
     fftw         :    443.85s CPU    457.86s WALL ( 4173504 calls)
     interpolate  :      0.93s CPU      0.94s WALL (     489 calls)
 
     Parallel routines
     fft_scatt_xy :     75.78s CPU     78.29s WALL ( 4177572 calls)
     fft_scatt_yz :    212.26s CPU    218.94s WALL ( 4177572 calls)
 
     PWSCF        :  27m23.20s CPU  28m49.86s WALL

 
   This run was terminated on:  23:13:50  13Apr2021            

=------------------------------------------------------------------------------=
   JOB DONE.
=------------------------------------------------------------------------------=
