
     Program PWSCF v.6.5 starts on 20May2021 at 14:18:26 

     This program is part of the open-source Quantum ESPRESSO suite
     for quantum simulation of materials; please cite
         "P. Giannozzi et al., J. Phys.:Condens. Matter 21 395502 (2009);
         "P. Giannozzi et al., J. Phys.:Condens. Matter 29 465901 (2017);
          URL http://www.quantum-espresso.org", 
     in publications or presentations arising from this work. More details at
     http://www.quantum-espresso.org/quote

     Parallel version (MPI), running on    20 processors

     MPI processes distributed on     4 nodes
     R & G space division:  proc/nbgrp/npool/nimage =      20
     Reading input from CBCO_first_relax.pwi

     Current dimensions of program PWSCF are:
     Max number of different atomic species (ntypx) = 10
     Max number of k-points (npk) =  40000
     Max angular momentum in pseudopotentials (lmaxx) =  3

     Subspace diagonalization in iterative solution of the eigenvalue problem:
     one sub-group per band group will be used
     scalapack distributed-memory algorithm (size of sub-group:  4*  4 procs)

     Message from routine setup:
     using ibrav=0 with symmetry is DISCOURAGED, use correct ibrav instead
 
     Parallelization info
     --------------------
     sticks:   dense  smooth     PW     G-vecs:    dense   smooth      PW
     Min         154      51     14                19644     3779     582
     Max         155      52     15                19651     3788     597
     Sum        3093    1031    293               392963    75649   11819
 


     bravais-lattice index     =            0
     lattice parameter (alat)  =       7.2654  a.u.
     unit-cell volume          =    1204.4104 (a.u.)^3
     number of atoms/cell      =           13
     number of atomic types    =            4
     number of electrons       =       105.00
     number of Kohn-Sham states=           64
     kinetic-energy cutoff     =      60.0000  Ry
     charge density cutoff     =     720.0000  Ry
     convergence threshold     =      1.0E-06
     mixing beta               =       0.5000
     number of iterations used =           10  local-TF  mixing
     Exchange-correlation= SLA PW PBE PBE
                           (   1   4   3   4   0   0   0)
     nstep                     =          300


     celldm(1)=   7.265373  celldm(2)=   0.000000  celldm(3)=   0.000000
     celldm(4)=   0.000000  celldm(5)=   0.000000  celldm(6)=   0.000000

     crystal axes: (cart. coord. in units of alat)
               a(1) = (   1.000000   0.000000   0.000000 )  
               a(2) = (   0.000000   1.021193   0.000000 )  
               a(3) = (   0.000000   0.000000   3.075338 )  

     reciprocal axes: (cart. coord. in units 2 pi/alat)
               b(1) = (  1.000000  0.000000  0.000000 )  
               b(2) = (  0.000000  0.979247  0.000000 )  
               b(3) = (  0.000000  0.000000  0.325168 )  


     PseudoPot. # 1 for Ca read from file:
     ./pseudo/Ca.pbe-nsp-van.UPF
     MD5 check sum: 6471098428ff4fa451746d08035ff179
     Pseudo is Ultrasoft + core correction, Zval = 10.0
     Generated by new atomic code, or converted to UPF format
     Using radial grid of  845 points,  6 beta functions with: 
                l(1) =   0
                l(2) =   0
                l(3) =   1
                l(4) =   1
                l(5) =   2
                l(6) =   2
     Q(r) pseudized with  6 coefficients,  rinner =    1.200   1.200   1.200
                                                       1.200   1.200

     PseudoPot. # 2 for Ba read from file:
     ./pseudo/Ba.pbe-nsp-van.UPF
     MD5 check sum: 2b9c31dd849566dd297d80989662b7a0
     Pseudo is Ultrasoft + core correction, Zval = 10.0
     Generated by new atomic code, or converted to UPF format
     Using radial grid of  907 points,  6 beta functions with: 
                l(1) =   0
                l(2) =   0
                l(3) =   1
                l(4) =   1
                l(5) =   2
                l(6) =   2
     Q(r) pseudized with  6 coefficients,  rinner =    1.200   1.200   1.200
                                                       1.200   1.200

     PseudoPot. # 3 for O  read from file:
     ./pseudo/O.pbe-van_ak.UPF
     MD5 check sum: 783ce7fe4c79b6a4916957118fed0856
     Pseudo is Ultrasoft, Zval =  6.0
     Generated by new atomic code, or converted to UPF format
     Using radial grid of  737 points,  4 beta functions with: 
                l(1) =   0
                l(2) =   0
                l(3) =   1
                l(4) =   1
     Q(r) pseudized with  8 coefficients,  rinner =    0.800   0.800   0.800


     PseudoPot. # 4 for Cu read from file:
     ./pseudo/Cu.pbe-n-van_ak.UPF
     MD5 check sum: 34e3282627ffb533726feb647e090d62
     Pseudo is Ultrasoft + core correction, Zval = 11.0
     Generated by new atomic code, or converted to UPF format
     Using radial grid of  867 points,  6 beta functions with: 
                l(1) =   0
                l(2) =   0
                l(3) =   1
                l(4) =   1
                l(5) =   2
                l(6) =   2
     Q(r) pseudized with  8 coefficients,  rinner =    1.400   1.400   1.400
                                                       1.400   1.400

     atomic species   valence    mass     pseudopotential
        Ca            10.00    40.07800     Ca( 1.00)
        Ba            10.00   137.32700     Ba( 1.00)
        O              6.00    15.99900     O ( 1.00)
        Cu            11.00    63.55000     Cu( 1.00)

      8 Sym. Ops., with inversion, found



   Cartesian axes

     site n.     atom                  positions (alat units)
         1           Ba  tau(   1) = (   0.4999997   0.5105967   2.5199052  )
         2           Ba  tau(   2) = (   0.4999997   0.5105967   0.5554339  )
         3           Ca  tau(   3) = (   0.4999997   0.5105967   1.5376696  )
         4           Cu  tau(   4) = (   0.0000000   0.0000000   1.9887540  )
         5           Cu  tau(   5) = (   0.0000000   0.0000000   1.0865848  )
         6           Cu  tau(   6) = (   0.0000000   0.0000000   0.0000000  )
         7           O   tau(   7) = (   0.0000000   0.5105967   0.0000000  )
         8           O   tau(   8) = (   0.4999997   0.0000000   1.9087183  )
         9           O   tau(   9) = (   0.4999997   0.0000000   1.1666205  )
        10           O   tau(  10) = (   0.0000000   0.5105967   1.9117875  )
        11           O   tau(  11) = (   0.0000000   0.5105967   1.1635516  )
        12           O   tau(  12) = (   0.0000000   0.0000000   2.5858066  )
        13           O   tau(  13) = (   0.0000000   0.0000000   0.4895325  )

     number of k points=    25  Gaussian smearing, width (Ry)=  0.0100
                       cart. coord. in units 2pi/alat
        k(    1) = (   0.0000000   0.0000000   0.0000000), wk =   0.0312500
        k(    2) = (   0.0000000   0.1224059   0.0000000), wk =   0.0625000
        k(    3) = (   0.0000000   0.2448117   0.0000000), wk =   0.0625000
        k(    4) = (   0.0000000   0.3672176   0.0000000), wk =   0.0625000
        k(    5) = (   0.0000000  -0.4896234   0.0000000), wk =   0.0312500
        k(    6) = (   0.1250000   0.0000000   0.0000000), wk =   0.0625000
        k(    7) = (   0.1250000   0.1224059   0.0000000), wk =   0.1250000
        k(    8) = (   0.1250000   0.2448117   0.0000000), wk =   0.1250000
        k(    9) = (   0.1250000   0.3672176   0.0000000), wk =   0.1250000
        k(   10) = (   0.1250000  -0.4896234   0.0000000), wk =   0.0625000
        k(   11) = (   0.2500000   0.0000000   0.0000000), wk =   0.0625000
        k(   12) = (   0.2500000   0.1224059   0.0000000), wk =   0.1250000
        k(   13) = (   0.2500000   0.2448117   0.0000000), wk =   0.1250000
        k(   14) = (   0.2500000   0.3672176   0.0000000), wk =   0.1250000
        k(   15) = (   0.2500000  -0.4896234   0.0000000), wk =   0.0625000
        k(   16) = (   0.3750000   0.0000000   0.0000000), wk =   0.0625000
        k(   17) = (   0.3750000   0.1224059   0.0000000), wk =   0.1250000
        k(   18) = (   0.3750000   0.2448117   0.0000000), wk =   0.1250000
        k(   19) = (   0.3750000   0.3672176   0.0000000), wk =   0.1250000
        k(   20) = (   0.3750000  -0.4896234   0.0000000), wk =   0.0625000
        k(   21) = (  -0.5000000   0.0000000   0.0000000), wk =   0.0312500
        k(   22) = (  -0.5000000   0.1224059   0.0000000), wk =   0.0625000
        k(   23) = (  -0.5000000   0.2448117   0.0000000), wk =   0.0625000
        k(   24) = (  -0.5000000   0.3672176   0.0000000), wk =   0.0625000
        k(   25) = (  -0.5000000  -0.4896234   0.0000000), wk =   0.0312500

     Dense  grid:   392963 G-vectors     FFT dimensions: (  64,  64, 192)

     Smooth grid:    75649 G-vectors     FFT dimensions: (  36,  40, 120)

     Estimated max dynamical RAM per process >     114.00 MB

     Estimated total dynamical RAM >       2.23 GB

     Initial potential from superposition of free atoms

     starting charge  104.92906, renormalised to  105.00000

     negative rho (up, down):  1.330E-04 0.000E+00
     Starting wfcs are   91 randomized atomic wfcs

     total cpu time spent up to now is        4.1 secs

     Self-consistent Calculation

     iteration #  1     ecut=    60.00 Ry     beta= 0.50
     Davidson diagonalization with overlap
     ethr =  1.00E-02,  avg # of iterations =  2.0

     negative rho (up, down):  1.252E-04 0.000E+00

     total cpu time spent up to now is        6.3 secs

     total energy              =    -843.87848703 Ry
     Harris-Foulkes estimate   =    -845.85823159 Ry
     estimated scf accuracy    <       6.30903140 Ry

     iteration #  2     ecut=    60.00 Ry     beta= 0.50
     Davidson diagonalization with overlap
     ethr =  6.01E-03,  avg # of iterations =  2.0

     negative rho (up, down):  1.198E-04 0.000E+00

     total cpu time spent up to now is        8.7 secs

     total energy              =    -844.69961821 Ry
     Harris-Foulkes estimate   =    -844.81149944 Ry
     estimated scf accuracy    <       0.41505339 Ry

     iteration #  3     ecut=    60.00 Ry     beta= 0.50
     Davidson diagonalization with overlap
     ethr =  3.95E-04,  avg # of iterations =  2.7

     negative rho (up, down):  1.119E-04 0.000E+00

     total cpu time spent up to now is       11.3 secs

     total energy              =    -844.72770928 Ry
     Harris-Foulkes estimate   =    -844.76572833 Ry
     estimated scf accuracy    <       0.12880322 Ry

     iteration #  4     ecut=    60.00 Ry     beta= 0.50
     Davidson diagonalization with overlap
     ethr =  1.23E-04,  avg # of iterations =  4.0

     negative rho (up, down):  1.074E-04 0.000E+00

     total cpu time spent up to now is       14.3 secs

     total energy              =    -844.73370541 Ry
     Harris-Foulkes estimate   =    -844.74093855 Ry
     estimated scf accuracy    <       0.02598397 Ry

     iteration #  5     ecut=    60.00 Ry     beta= 0.50
     Davidson diagonalization with overlap
     ethr =  2.47E-05,  avg # of iterations =  4.5

     negative rho (up, down):  1.067E-04 0.000E+00

     total cpu time spent up to now is       17.8 secs

     total energy              =    -844.73547903 Ry
     Harris-Foulkes estimate   =    -844.73889364 Ry
     estimated scf accuracy    <       0.01646570 Ry

     iteration #  6     ecut=    60.00 Ry     beta= 0.50
     Davidson diagonalization with overlap
     ethr =  1.57E-05,  avg # of iterations =  2.1

     negative rho (up, down):  1.067E-04 0.000E+00

     total cpu time spent up to now is       20.1 secs

     total energy              =    -844.73679026 Ry
     Harris-Foulkes estimate   =    -844.73706457 Ry
     estimated scf accuracy    <       0.00250011 Ry

     iteration #  7     ecut=    60.00 Ry     beta= 0.50
     Davidson diagonalization with overlap
     ethr =  2.38E-06,  avg # of iterations =  6.8

     negative rho (up, down):  1.071E-04 0.000E+00

     total cpu time spent up to now is       24.3 secs

     total energy              =    -844.73710325 Ry
     Harris-Foulkes estimate   =    -844.73723326 Ry
     estimated scf accuracy    <       0.00385410 Ry

     iteration #  8     ecut=    60.00 Ry     beta= 0.50
     Davidson diagonalization with overlap
     ethr =  2.38E-06,  avg # of iterations =  1.0

     negative rho (up, down):  1.081E-04 0.000E+00

     total cpu time spent up to now is       26.3 secs

     total energy              =    -844.73673493 Ry
     Harris-Foulkes estimate   =    -844.73714886 Ry
     estimated scf accuracy    <       0.00247285 Ry

     iteration #  9     ecut=    60.00 Ry     beta= 0.50
     Davidson diagonalization with overlap
     ethr =  2.36E-06,  avg # of iterations =  2.3

     negative rho (up, down):  1.080E-04 0.000E+00

     total cpu time spent up to now is       28.6 secs

     total energy              =    -844.73694637 Ry
     Harris-Foulkes estimate   =    -844.73696491 Ry
     estimated scf accuracy    <       0.00007893 Ry

     iteration # 10     ecut=    60.00 Ry     beta= 0.50
     Davidson diagonalization with overlap
     ethr =  7.52E-08,  avg # of iterations =  3.0

     negative rho (up, down):  1.079E-04 0.000E+00

     total cpu time spent up to now is       31.4 secs

     total energy              =    -844.73696413 Ry
     Harris-Foulkes estimate   =    -844.73696473 Ry
     estimated scf accuracy    <       0.00001192 Ry

     iteration # 11     ecut=    60.00 Ry     beta= 0.50
     Davidson diagonalization with overlap
     ethr =  1.14E-08,  avg # of iterations =  2.5

     negative rho (up, down):  1.079E-04 0.000E+00

     total cpu time spent up to now is       34.1 secs

     total energy              =    -844.73696441 Ry
     Harris-Foulkes estimate   =    -844.73696676 Ry
     estimated scf accuracy    <       0.00001415 Ry

     iteration # 12     ecut=    60.00 Ry     beta= 0.50
     Davidson diagonalization with overlap
     ethr =  1.14E-08,  avg # of iterations =  1.0

     negative rho (up, down):  1.078E-04 0.000E+00

     total cpu time spent up to now is       36.0 secs

     End of self-consistent calculation

          k = 0.0000 0.0000 0.0000 (  9393 PWs)   bands (ev):

   -29.0018 -16.8289 -16.8037 -10.6681 -10.0854 -10.0671  -9.0209  -8.6521
    -8.1096  -7.8432  -7.7321  -7.6588  -7.6309  -2.0388  -2.0024  -1.8732
    -1.8452  -1.7331  -1.6843   3.8240   4.4381   4.4599   4.4997   4.5107
     4.6563   5.0254   5.1424   5.1481   5.3483   5.6288   5.7367   5.7531
     5.8281   5.8576   6.0768   6.1748   6.2470   6.2641   6.2844   6.2853
     6.5028   6.7076   6.7811   7.2549   7.3500   7.4947   7.5413   7.6348
     7.8580   7.8944   7.9607   8.0057   8.1111   8.1245   8.1255  11.4359
    12.5071  12.9368  13.4259  14.0381  14.4068  15.1243  15.4472  15.6125

          k = 0.0000 0.1224 0.0000 (  9401 PWs)   bands (ev):

   -29.0005 -16.8136 -16.7889 -10.6299 -10.1970 -10.0655  -8.8955  -8.6166
    -8.1361  -7.8333  -7.7767  -7.7192  -7.6472  -2.0413  -1.9899  -1.8686
    -1.8297  -1.7043  -1.6546   3.7812   4.2370   4.2891   4.4550   4.4920
     4.5083   4.7473   4.9288   5.1699   5.3094   5.6028   5.6412   5.6544
     5.7369   5.8742   5.9783   6.1256   6.2199   6.3230   6.3261   6.3307
     6.7166   6.8390   6.9681   7.2273   7.3372   7.4228   7.4373   7.4953
     7.8915   7.9154   7.9680   8.0461   8.0506   8.3480   8.4767  11.7343
    12.7598  13.2240  13.5948  14.1733  14.6333  15.2573  15.3162  15.7770

          k = 0.0000 0.2448 0.0000 (  9418 PWs)   bands (ev):

   -28.9976 -16.7764 -16.7527 -10.5307 -10.4082 -10.0616  -8.6352  -8.5233
    -8.2343  -7.8934  -7.8800  -7.8012  -7.6622  -2.0332  -1.9578  -1.8598
    -1.8044  -1.6331  -1.5809   3.4841   3.7717   3.8652   3.9461   4.5072
     4.5552   4.5859   4.8271   5.1606   5.2060   5.2939   5.4139   5.4329
     5.5505   5.7718   5.8570   6.1525   6.2566   6.2906   6.4267   6.5662
     6.9364   6.9675   7.0674   7.1277   7.2584   7.4625   7.5042   7.5449
     7.8865   7.8915   7.9084   7.9533   8.0875   8.5258   9.3224  12.3927
    13.4440  13.9747  14.0923  14.2522  15.1654  15.2959  15.4213  15.9620

          k = 0.0000 0.3672 0.0000 (  9438 PWs)   bands (ev):

   -28.9946 -16.7384 -16.7157 -10.5769 -10.4193 -10.0577  -8.4087  -8.3763
    -8.3725  -8.0627  -7.9790  -7.8320  -7.6511  -2.0063  -1.9214  -1.8561
    -1.7947  -1.5593  -1.5042   2.9628   3.3643   3.5012   3.8605   4.2515
     4.5893   4.7356   4.8446   5.0706   5.0889   5.1470   5.1666   5.2276
     5.3839   5.5713   5.8408   6.0902   6.0990   6.3618   6.4788   6.7652
     6.7885   6.9790   7.0484   7.1715   7.3413   7.5387   7.7230   7.7426
     7.8113   7.9317   7.9507   7.9715   8.1296   8.5009   9.9181  13.0485
    14.0196  14.3527  14.8080  14.8818  14.9432  15.6318  15.8812  16.0886

          k = 0.0000-0.4896 0.0000 (  9450 PWs)   bands (ev):

   -28.9934 -16.7224 -16.7002 -10.6392 -10.3685 -10.0561  -8.4391  -8.3247
    -8.2643  -8.1535  -8.0199  -7.8717  -7.6412  -1.9884  -1.9032  -1.8582
    -1.7964  -1.5278  -1.4715   2.7523   3.2243   3.3611   3.8391   4.1385
     4.6453   4.8239   4.9149   4.9522   4.9804   5.0368   5.1380   5.1416
     5.3605   5.4911   5.8407   6.0187   6.0694   6.3041   6.4923   6.6815
     6.8444   6.9870   7.0731   7.3144   7.3260   7.5856   7.6578   7.8283
     7.8634   7.8949   7.9826   8.1390   8.1774   8.3800  10.1159  13.4124
    13.8310  14.7938  15.0304  15.1563  15.2746  15.7024  15.8504  15.8542

          k = 0.1250 0.0000 0.0000 (  9442 PWs)   bands (ev):

   -29.0002 -16.8102 -16.7864 -10.6267 -10.1847 -10.0834  -8.9012  -8.6778
    -8.1047  -7.8167  -7.7776  -7.6755  -7.6698  -2.0744  -2.0247  -1.8392
    -1.8120  -1.7096  -1.6941   3.7911   4.1258   4.2037   4.5271   4.5280
     4.7615   4.9995   5.0945   5.1130   5.2827   5.6250   5.6493   5.7527
     5.8469   5.8640   5.9889   6.0995   6.2691   6.3046   6.3109   6.3241
     6.4238   6.7671   6.8912   7.2071   7.2860   7.3500   7.5420   7.6216
     7.7847   7.9631   7.9643   7.9990   8.0413   8.0729   8.2950  11.6964
    12.7932  13.1772  13.6325  14.3556  14.6954  15.3161  15.4290  15.7666

          k = 0.1250 0.1224 0.0000 (  9422 PWs)   bands (ev):

   -28.9990 -16.7955 -16.7721 -10.5893 -10.2100 -10.1610  -8.7819  -8.6395
    -8.1245  -7.8084  -7.8036  -7.7228  -7.6965  -2.0615  -2.0239  -1.9125
    -1.9029  -1.6284  -1.6201   3.7495   4.1244   4.2160   4.2725   4.3257
     4.4963   4.8428   4.8795   5.1315   5.2909   5.4651   5.4930   5.6094
     5.8746   5.9146   6.0803   6.0968   6.1214   6.1338   6.3519   6.4803
     6.6821   6.8330   7.0514   7.1973   7.3522   7.3895   7.4729   7.4842
     7.5963   7.7961   8.0393   8.2161   8.2769   8.5164   8.5182  11.9236
    13.0034  13.4511  13.8025  14.3806  14.8348  15.1595  15.4079  15.7771

          k = 0.1250 0.2448 0.0000 (  9445 PWs)   bands (ev):

   -28.9961 -16.7597 -16.7372 -10.4924 -10.4028 -10.1663  -8.5383  -8.5278
    -8.2086  -7.8836  -7.8651  -7.7816  -7.7167  -2.0399  -2.0358  -1.9669
    -1.9369  -1.5874  -1.5716   3.4749   3.7424   3.8634   3.9434   4.1921
     4.3077   4.5543   4.8967   5.1588   5.1840   5.1944   5.2161   5.3119
     5.6510   5.8022   5.9137   6.0333   6.1689   6.4027   6.4196   6.7204
     6.7950   7.0502   7.1671   7.3101   7.3357   7.4189   7.4696   7.5968
     7.6746   7.6820   8.0402   8.2221   8.5418   8.8098   9.3284  12.4356
    13.5872  14.1659  14.1945  14.4100  15.0894  15.1925  15.2749  15.9295

          k = 0.1250 0.3672 0.0000 (  9455 PWs)   bands (ev):

   -28.9931 -16.7232 -16.7017 -10.5685 -10.3837 -10.1597  -8.4006  -8.3359
    -8.2817  -8.0273  -7.9602  -7.8052  -7.7042  -2.0211  -2.0022  -1.9610
    -1.9183  -1.6157  -1.6111   2.9746   3.3051   3.4825   3.8551   4.2444
     4.3008   4.4402   4.8402   4.9309   4.9350   5.1025   5.1376   5.1970
     5.5279   5.5652   5.8992   5.9908   6.1862   6.4170   6.6014   6.6986
     7.0008   7.0387   7.1340   7.2525   7.4167   7.5569   7.6793   7.7205
     7.8328   7.8728   8.0719   8.1797   8.5849   8.8843   9.9046  12.8406
    14.0174  14.4178  14.8544  15.0210  15.0524  15.2184  15.9523  16.1590

          k = 0.1250-0.4896 0.0000 (  9468 PWs)   bands (ev):

   -28.9919 -16.7079 -16.6868 -10.6302 -10.3342 -10.1568  -8.3984  -8.2861
    -8.2247  -8.0789  -7.9927  -7.8496  -7.6929  -1.9853  -1.9678  -1.9601
    -1.9113  -1.6551  -1.6468   2.7648   3.1574   3.3350   3.8320   4.2335
     4.2812   4.5095   4.7500   4.8045   4.8641   5.0516   5.0868   5.2140
     5.4753   5.5134   5.8952   5.9847   6.1886   6.4176   6.6026   6.7675
     6.8377   7.0606   7.1646   7.3356   7.4310   7.6433   7.6503   7.8365
     7.9625   7.9842   8.0895   8.1753   8.5539   8.8590  10.0944  12.9655
    13.9892  14.7501  14.7760  15.3727  15.4011  15.4036  15.9652  16.4845

          k = 0.2500 0.0000 0.0000 (  9450 PWs)   bands (ev):

   -28.9965 -16.7643 -16.7440 -10.5193 -10.4082 -10.0786  -8.7489  -8.6574
    -8.1384  -7.8706  -7.7849  -7.7612  -7.6702  -2.1726  -1.9884  -1.7649
    -1.7549  -1.7296  -1.6779   3.5232   3.7133   3.8742   4.5855   4.6054
     4.7731   4.9221   4.9639   5.0180   5.1086   5.3872   5.4420   5.6000
     5.7598   5.8244   5.9383   6.1879   6.2364   6.3324   6.3615   6.3813
     6.6185   6.8011   6.9413   7.0799   7.1330   7.4467   7.5453   7.5541
     7.7973   7.7991   7.8686   7.9351   8.0175   8.1576   8.5284  12.1940
    13.5482  13.8425  14.2191  15.0991  15.2236  15.4336  15.6659  15.9311

          k = 0.2500 0.1224 0.0000 (  9457 PWs)   bands (ev):

   -28.9953 -16.7511 -16.7311 -10.4841 -10.4039 -10.1763  -8.7022  -8.5459
    -8.1322  -7.8773  -7.7952  -7.7725  -7.6988  -2.1757  -1.9870  -1.9798
    -1.9207  -1.6247  -1.6051   3.4807   3.7128   3.8719   4.3042   4.3877
     4.4589   4.7789   4.8475   5.0185   5.1682   5.1773   5.2698   5.5862
     5.6999   5.7764   6.0251   6.0602   6.1535   6.3696   6.4184   6.5770
     6.7729   6.8147   7.0789   7.1929   7.2582   7.4364   7.5402   7.5853
     7.6334   7.6919   7.9461   8.2117   8.4280   8.6438   8.7977  12.2795
    13.6384  14.0901  14.3624  14.7859  15.0465  15.2383  15.6167  15.7104

          k = 0.2500 0.2448 0.0000 (  9468 PWs)   bands (ev):

   -28.9923 -16.7189 -16.6996 -10.4139 -10.3932 -10.3516  -8.5734  -8.3070
    -8.1541  -7.9030  -7.8382  -7.8175  -7.7202  -2.2210  -2.1938  -2.0412
    -1.9632  -1.6945  -1.6659   3.2701   3.6383   3.6778   3.8833   3.9523
     3.9994   4.5575   4.7666   4.8642   4.9066   5.1361   5.2390   5.3158
     5.5354   5.7716   5.8023   6.0014   6.0973   6.5927   6.7040   6.7220
     7.0760   7.2231   7.2262   7.3520   7.4842   7.5132   7.5543   7.6318
     7.6892   7.7275   8.0884   8.2429   9.1153   9.3060   9.3476  12.3410
    13.9844  14.2907  14.7220  14.8061  15.0455  15.2172  15.3680  15.6766

          k = 0.2500 0.3672 0.0000 (  9471 PWs)   bands (ev):

   -28.9894 -16.6862 -16.6675 -10.5488 -10.3677 -10.2919  -8.3927  -8.2432
    -8.1002  -7.9268  -7.9208  -7.8343  -7.7322  -2.2593  -2.2565  -2.0696
    -1.9705  -1.8766  -1.8196   2.9088   3.1301   3.3388   3.8071   3.8809
     3.9045   4.4072   4.4385   4.6903   4.8799   5.1508   5.2059   5.2524
     5.3748   5.5518   5.7528   6.0235   6.1473   6.7383   6.8873   6.9808
     7.2365   7.3063   7.3986   7.4510   7.5658   7.6725   7.7104   7.7909
     7.9049   7.9083   8.1063   8.1977   9.4498   9.6076   9.8638  12.1959
    14.1857  14.3762  14.7990  14.9045  15.4166  15.6696  15.7529  16.0141

          k = 0.2500-0.4896 0.0000 (  9452 PWs)   bands (ev):

   -28.9882 -16.6725 -16.6541 -10.6087 -10.3637 -10.2459  -8.2955  -8.2101
    -8.1872  -7.9265  -7.8545  -7.8235  -7.7966  -2.2272  -2.1818  -2.1186
    -2.1078  -1.9094  -1.8980   2.7318   2.9441   3.1868   3.7810   3.8795
     3.9121   4.3155   4.3456   4.6433   4.8422   5.1075   5.1808   5.3144
     5.3399   5.4483   5.7431   6.0269   6.1720   6.9136   6.9332   7.0434
     7.1835   7.3427   7.4066   7.4133   7.6562   7.8236   7.8417   7.8949
     7.9861   8.0194   8.0214   8.1704   9.5340   9.6850  10.0280  12.1038
    14.1662  14.3730  14.6361  15.5020  15.6014  15.6890  15.7036  16.2088

          k = 0.3750 0.0000 0.0000 (  9472 PWs)   bands (ev):

   -28.9927 -16.7173 -16.7008 -10.5877 -10.3983 -10.0737  -8.8318  -8.4271
    -8.2571  -7.9448  -7.8024  -7.7930  -7.6398  -2.2210  -1.9472  -1.8147
    -1.7143  -1.6666  -1.6436   3.1456   3.3025   3.8486   4.6745   4.6921
     4.7179   4.8222   4.8292   4.9071   4.9164   5.1318   5.2347   5.5195
     5.5790   5.8069   5.9493   6.1127   6.1862   6.3589   6.4027   6.4130
     6.6798   6.8457   6.9120   7.1364   7.2395   7.4655   7.4718   7.5604
     7.7263   7.8140   7.9348   7.9641   7.9777   8.2091   8.5380  12.6012
    14.4117  14.7214  14.8984  15.4095  15.4839  15.4847  15.5215  15.8182

          k = 0.3750 0.1224 0.0000 (  9457 PWs)   bands (ev):

   -28.9915 -16.7056 -16.6892 -10.5807 -10.3658 -10.1684  -8.7746  -8.3204
    -8.2252  -7.9290  -7.8399  -7.7908  -7.6471  -2.2208  -1.9929  -1.9351
    -1.8969  -1.6994  -1.6872   3.0878   3.2832   3.8413   4.3781   4.4317
     4.4851   4.7130   4.7588   4.8537   4.8558   4.9920   5.1612   5.5556
     5.5563   5.6433   6.0318   6.1509   6.1694   6.4076   6.4084   6.5792
     6.7110   7.0309   7.0609   7.2012   7.3533   7.4894   7.4896   7.6340
     7.7120   7.8886   7.9390   8.1706   8.4442   8.6824   8.8536  12.4704
    14.4094  14.6233  14.9394  15.0761  15.2197  15.4722  15.6732  15.8407

          k = 0.3750 0.2448 0.0000 (  9478 PWs)   bands (ev):

   -28.9886 -16.6773 -16.6612 -10.5642 -10.3616 -10.2822  -8.6159  -8.1503
    -8.0951  -7.9535  -7.8918  -7.8001  -7.6497  -2.2784  -2.2763  -2.1108
    -1.9601  -1.9002  -1.8786   2.8710   3.1888   3.6967   3.8101   3.9684
     4.0182   4.4005   4.5446   4.6339   4.8762   5.1388   5.2540   5.2877
     5.4628   5.5046   5.7780   6.0806   6.3191   6.6323   6.8393   6.9061
     7.0186   7.3061   7.3564   7.4243   7.5772   7.6015   7.6681   7.7660
     7.8718   7.9318   8.0129   8.1851   9.3137   9.4337   9.5734  12.0384
    14.1143  14.6611  14.8782  15.2294  15.4079  15.4326  15.5505  15.8825

          k = 0.3750 0.3672 0.0000 (  9489 PWs)   bands (ev):

   -28.9858 -16.6485 -16.6327 -10.5508 -10.5207 -10.1895  -8.3937  -8.1412
    -7.9973  -7.9592  -7.8650  -7.8291  -7.6365  -2.4686  -2.4281  -2.2428
    -2.1874  -2.0747  -1.9076   2.5515   2.9722   3.1187   3.6833   3.7410
     3.8662   4.0742   4.3747   4.5875   4.9343   5.1319   5.2121   5.2642
     5.3039   5.4600   5.5349   6.1385   6.4184   6.9554   7.1850   7.2123
     7.2661   7.4384   7.5391   7.6649   7.7032   7.7425   7.8771   7.9312
     8.0283   8.0883   8.1297   8.2461   9.8083  10.0160  10.1169  11.5794
    13.7880  14.7276  14.7454  15.2202  15.2383  15.4442  15.7015  16.1405

          k = 0.3750-0.4896 0.0000 (  9446 PWs)   bands (ev):

   -28.9846 -16.6365 -16.6208 -10.5875 -10.5381 -10.1476  -8.2113  -8.1844
    -8.0778  -7.9647  -7.8602  -7.7457  -7.6479  -2.4810  -2.4623  -2.4454
    -2.2702  -2.1053  -1.9021   2.4020   2.8454   2.9038   3.6389   3.6823
     3.8560   3.9597   4.3164   4.5810   4.9258   5.1037   5.1807   5.1934
     5.3706   5.4418   5.4434   6.1509   6.4503   7.1457   7.2819   7.3406
     7.3487   7.5483   7.5773   7.6629   7.7146   7.8100   7.9627   8.0396
     8.0847   8.1512   8.2406   8.2973   9.9339  10.2201  10.3037  11.3959
    13.6923  14.5226  14.6991  15.0843  15.4209  15.5289  15.6649  16.5296

          k =-0.5000 0.0000 0.0000 (  9438 PWs)   bands (ev):

   -28.9912 -16.6975 -16.6826 -10.6542 -10.3429 -10.0717  -8.8691  -8.3244
    -8.3243  -7.9807  -7.8221  -7.7876  -7.6267  -2.2308  -1.9265  -1.8360
    -1.7403  -1.6288  -1.6068   2.9969   3.1453   3.8505   4.6106   4.7739
     4.7806   4.7951   4.8030   4.8261   4.8548   4.9646   5.1255   5.5145
     5.5334   5.8013   5.8995   6.0866   6.1638   6.3511   6.3934   6.4176
     6.7435   6.7522   6.9459   7.2909   7.3416   7.4090   7.4409   7.5837
     7.6618   7.7407   7.9378   7.9836   8.1828   8.2150   8.4257  12.7627
    15.0148  15.0168  15.1261  15.2144  15.5231  15.5605  15.5710  15.7642

          k =-0.5000 0.1224 0.0000 (  9434 PWs)   bands (ev):

   -28.9900 -16.6865 -16.6716 -10.6468 -10.3118 -10.1648  -8.8072  -8.2856
    -8.2181  -7.9578  -7.8344  -7.8096  -7.6283  -2.2246  -1.9528  -1.9275
    -1.8361  -1.7881  -1.7598   2.9312   3.1185   3.8378   4.4313   4.4474
     4.5719   4.6624   4.6885   4.7015   4.7698   4.9359   5.0983   5.4887
     5.5415   5.6557   6.0370   6.1435   6.2581   6.3108   6.3949   6.5839
     6.7270   6.9596   7.1217   7.3597   7.3632   7.4127   7.5209   7.6111
     7.7200   7.9905   8.0934   8.1546   8.4118   8.6721   8.8035  12.4971
    14.6388  15.0042  15.0567  15.3324  15.4211  15.4407  15.5542  15.9227

          k =-0.5000 0.2448 0.0000 (  9456 PWs)   bands (ev):

   -28.9871 -16.6598 -16.6451 -10.6288 -10.3565 -10.2318  -8.6353  -8.1866
    -7.9944  -7.9525  -7.9032  -7.8100  -7.6217  -2.2301  -2.2269  -2.1229
    -2.1194  -2.0555  -1.9031   2.7020   3.0085   3.7130   3.7946   3.9866
     4.0499   4.2532   4.4783   4.5913   4.8467   5.1647   5.2399   5.2858
     5.4230   5.4578   5.7616   6.1105   6.4339   6.7043   6.8547   6.9211
     6.9837   7.3513   7.4165   7.4218   7.5374   7.6015   7.8075   7.8421
     7.9556   8.0272   8.0590   8.0842   9.3273   9.4780   9.6310  11.8840
    14.0166  14.9777  15.2154  15.2308  15.4723  15.5005  15.5387  16.0596

          k =-0.5000 0.3672 0.0000 (  9486 PWs)   bands (ev):

   -28.9842 -16.6327 -16.6182 -10.6110 -10.5180 -10.1431  -8.3964  -8.0796
    -8.0771  -7.9009  -7.8519  -7.8005  -7.5880  -2.4924  -2.4671  -2.4321
    -2.2593  -2.1835  -1.8961   2.3782   2.7930   3.1305   3.6569   3.7243
     3.8696   3.9402   4.3376   4.5607   4.9381   5.1066   5.2424   5.2489
     5.3288   5.3539   5.5223   6.1790   6.5494   7.0895   7.2515   7.2585
     7.2673   7.5158   7.5844   7.6861   7.7122   7.8413   7.9256   7.9920
     8.1021   8.1287   8.1761   8.3120   9.7814  10.1945  10.2854  11.3390
    13.6279  14.7002  14.8358  15.0913  15.3750  15.5069  15.6491  16.1001

          k =-0.5000-0.4896 0.0000 (  9504 PWs)   bands (ev):

   -28.9830 -16.6214 -16.6069 -10.6037 -10.5787 -10.1032  -8.2134  -8.1354
    -8.0283  -8.0271  -7.8330  -7.7262  -7.5675  -2.6006  -2.5851  -2.5531
    -2.3393  -2.1822  -1.8916   2.2277   2.6712   2.9138   3.6042   3.6465
     3.8302   3.8602   4.2875   4.5593   4.9907   5.0176   5.1660   5.2314
     5.3236   5.3839   5.4449   6.1949   6.5893   7.2311   7.3002   7.4218
     7.5091   7.6384   7.6396   7.6932   7.7876   7.8121   7.9531   8.0276
     8.1466   8.2590   8.3273   8.4763   9.8863  10.4563  10.5262  11.1266
    13.5159  14.4936  14.7844  14.8236  15.3979  15.4529  15.6000  16.7431

     the Fermi energy is     8.3814 ev

!    total energy              =    -844.73696541 Ry
     Harris-Foulkes estimate   =    -844.73696552 Ry
     estimated scf accuracy    <       0.00000020 Ry

     The total energy is the sum of the following terms:

     one-electron contribution =    -270.45083272 Ry
     hartree contribution      =     227.17466867 Ry
     xc contribution           =    -285.91184179 Ry
     ewald contribution        =    -515.54537637 Ry
     smearing contrib. (-TS)   =      -0.00358320 Ry

     convergence has been achieved in  12 iterations

     negative rho (up, down):  1.078E-04 0.000E+00

     Forces acting on atoms (cartesian axes, Ry/au):

     atom    1 type  2   force =     0.00000000    0.00000000   -0.01535077
     atom    2 type  2   force =     0.00000000    0.00000000    0.01535077
     atom    3 type  1   force =     0.00000000    0.00000000    0.00000000
     atom    4 type  4   force =     0.00000000    0.00000000    0.00065549
     atom    5 type  4   force =     0.00000000    0.00000000   -0.00065549
     atom    6 type  4   force =     0.00000000    0.00000000    0.00000000
     atom    7 type  3   force =     0.00000000    0.00000000    0.00000000
     atom    8 type  3   force =     0.00000000    0.00000000    0.02622009
     atom    9 type  3   force =     0.00000000    0.00000000   -0.02622009
     atom   10 type  3   force =     0.00000000    0.00000000    0.02996831
     atom   11 type  3   force =     0.00000000    0.00000000   -0.02996831
     atom   12 type  3   force =     0.00000000    0.00000000    0.00511220
     atom   13 type  3   force =     0.00000000    0.00000000   -0.00511220

     Total force =     0.060791     Total SCF correction =     0.001486


     Computing stress (Cartesian axis) and pressure


     negative rho (up, down):  1.078E-04 0.000E+00
          total   stress  (Ry/bohr**3)                   (kbar)     P=      -31.29
  -0.00031843   0.00000000   0.00000000          -46.84        0.00        0.00
   0.00000000  -0.00029866   0.00000000            0.00      -43.93        0.00
   0.00000000   0.00000000  -0.00002099            0.00        0.00       -3.09


     BFGS Geometry Optimization

     number of scf cycles    =   1
     number of bfgs steps    =   0

     enthalpy new            =    -844.7369654134 Ry

     new trust radius        =       0.0552545295 bohr
     new conv_thr            =       0.0000010000 Ry

     new unit-cell volume =   1185.27891 a.u.^3 (   175.64021 Ang^3 )
     density =      5.83679 g/cm^3

CELL_PARAMETERS (angstrom)
   3.814063779   0.000000000   0.000000000
   0.000000000   3.896835272   0.000000000
   0.000000000   0.000000000  11.817454874

ATOMIC_POSITIONS (angstrom)
Ba            1.9070308973        1.9484186287        9.6750005617
Ba            1.9070308973        1.9484186287        2.1424583103
Ca            1.9070308973        1.9484186287        5.9087294360
Cu            0.0000000000        0.0000000000        7.6424369690
Cu            0.0000000000        0.0000000000        4.1750209036
Cu            0.0000000000        0.0000000000        0.0000000000
O             0.0000000000        1.9484186287        0.0000000000
O             1.9070308973        0.0000000000        7.3484085603
O             1.9070308973        0.0000000000        4.4690493123
O             0.0000000000        1.9484186287        7.3621848025
O             0.0000000000        1.9484186287        4.4552740696
O             0.0000000000        0.0000000000        9.9390594466
O             0.0000000000        0.0000000000        1.8783994255


     NEW-OLD atomic charge density approx. for the potential

     negative rho (up, down):  1.081E-04 0.000E+00
     extrapolated charge  103.30635, renormalised to  105.00000

     total cpu time spent up to now is       41.3 secs

     Self-consistent Calculation

     iteration #  1     ecut=    60.00 Ry     beta= 0.50
     Davidson diagonalization with overlap
     c_bands:  1 eigenvalues not converged
     c_bands:  1 eigenvalues not converged
     ethr =  1.00E-06,  avg # of iterations = 13.9

     negative rho (up, down):  1.061E-04 0.000E+00

     total cpu time spent up to now is       50.1 secs

     total energy              =    -843.78392067 Ry
     Harris-Foulkes estimate   =    -849.40373202 Ry
     estimated scf accuracy    <       4.89351432 Ry

     iteration #  2     ecut=    60.00 Ry     beta= 0.50
     Davidson diagonalization with overlap
     ethr =  4.66E-03,  avg # of iterations =  2.0

     negative rho (up, down):  1.045E-04 0.000E+00

     total cpu time spent up to now is       52.5 secs

     total energy              =    -844.62366101 Ry
     Harris-Foulkes estimate   =    -845.08307769 Ry
     estimated scf accuracy    <       3.31807256 Ry

     iteration #  3     ecut=    60.00 Ry     beta= 0.50
     Davidson diagonalization with overlap
     ethr =  3.16E-03,  avg # of iterations =  1.0

     negative rho (up, down):  1.047E-04 0.000E+00

     total cpu time spent up to now is       54.4 secs

     total energy              =    -844.76509213 Ry
     Harris-Foulkes estimate   =    -844.81799983 Ry
     estimated scf accuracy    <       0.44224973 Ry

     iteration #  4     ecut=    60.00 Ry     beta= 0.50
     Davidson diagonalization with overlap
     ethr =  4.21E-04,  avg # of iterations =  4.6

     negative rho (up, down):  1.055E-04 0.000E+00

     total cpu time spent up to now is       57.6 secs

     total energy              =    -844.76445405 Ry
     Harris-Foulkes estimate   =    -844.78288569 Ry
     estimated scf accuracy    <       0.35692108 Ry

     iteration #  5     ecut=    60.00 Ry     beta= 0.50
     Davidson diagonalization with overlap
     ethr =  3.40E-04,  avg # of iterations =  1.1

     negative rho (up, down):  1.068E-04 0.000E+00

     total cpu time spent up to now is       59.5 secs

     total energy              =    -844.75385138 Ry
     Harris-Foulkes estimate   =    -844.76810814 Ry
     estimated scf accuracy    <       0.18635245 Ry

     iteration #  6     ecut=    60.00 Ry     beta= 0.50
     Davidson diagonalization with overlap
     ethr =  1.77E-04,  avg # of iterations =  1.0

     negative rho (up, down):  1.075E-04 0.000E+00

     total cpu time spent up to now is       61.5 secs

     total energy              =    -844.75295650 Ry
     Harris-Foulkes estimate   =    -844.75631556 Ry
     estimated scf accuracy    <       0.10856320 Ry

     iteration #  7     ecut=    60.00 Ry     beta= 0.50
     Davidson diagonalization with overlap
     ethr =  1.03E-04,  avg # of iterations =  1.9

     negative rho (up, down):  1.083E-04 0.000E+00

     total cpu time spent up to now is       63.7 secs

     total energy              =    -844.75080064 Ry
     Harris-Foulkes estimate   =    -844.75341466 Ry
     estimated scf accuracy    <       0.08072478 Ry

     iteration #  8     ecut=    60.00 Ry     beta= 0.50
     Davidson diagonalization with overlap
     ethr =  7.69E-05,  avg # of iterations =  1.3

     negative rho (up, down):  1.084E-04 0.000E+00

     total cpu time spent up to now is       65.7 secs

     total energy              =    -844.75063574 Ry
     Harris-Foulkes estimate   =    -844.75105029 Ry
     estimated scf accuracy    <       0.05882416 Ry

     iteration #  9     ecut=    60.00 Ry     beta= 0.50
     Davidson diagonalization with overlap
     ethr =  5.60E-05,  avg # of iterations =  1.0

     negative rho (up, down):  1.086E-04 0.000E+00

     total cpu time spent up to now is       67.6 secs

     total energy              =    -844.75020636 Ry
     Harris-Foulkes estimate   =    -844.75068820 Ry
     estimated scf accuracy    <       0.05519145 Ry

     iteration # 10     ecut=    60.00 Ry     beta= 0.50
     Davidson diagonalization with overlap
     ethr =  5.26E-05,  avg # of iterations =  1.0

     negative rho (up, down):  1.092E-04 0.000E+00

     total cpu time spent up to now is       69.5 secs

     total energy              =    -844.74787866 Ry
     Harris-Foulkes estimate   =    -844.75023956 Ry
     estimated scf accuracy    <       0.05132324 Ry

     iteration # 11     ecut=    60.00 Ry     beta= 0.50
     Davidson diagonalization with overlap
     ethr =  4.89E-05,  avg # of iterations =  1.0

     negative rho (up, down):  1.101E-04 0.000E+00

     total cpu time spent up to now is       71.5 secs

     total energy              =    -844.74504137 Ry
     Harris-Foulkes estimate   =    -844.74809186 Ry
     estimated scf accuracy    <       0.03248733 Ry

     iteration # 12     ecut=    60.00 Ry     beta= 0.50
     Davidson diagonalization with overlap
     ethr =  3.09E-05,  avg # of iterations =  1.4

     negative rho (up, down):  1.110E-04 0.000E+00

     total cpu time spent up to now is       73.5 secs

     total energy              =    -844.74389882 Ry
     Harris-Foulkes estimate   =    -844.74565775 Ry
     estimated scf accuracy    <       0.00938510 Ry

     iteration # 13     ecut=    60.00 Ry     beta= 0.50
     Davidson diagonalization with overlap
     ethr =  8.94E-06,  avg # of iterations =  4.6

     negative rho (up, down):  1.110E-04 0.000E+00

     total cpu time spent up to now is       76.7 secs

     total energy              =    -844.74515058 Ry
     Harris-Foulkes estimate   =    -844.74509072 Ry
     estimated scf accuracy    <       0.00205537 Ry

     iteration # 14     ecut=    60.00 Ry     beta= 0.50
     Davidson diagonalization with overlap
     c_bands:  1 eigenvalues not converged
     ethr =  1.96E-06,  avg # of iterations =  3.5

     negative rho (up, down):  1.110E-04 0.000E+00

     total cpu time spent up to now is       79.4 secs

     total energy              =    -844.74533409 Ry
     Harris-Foulkes estimate   =    -844.74519450 Ry
     estimated scf accuracy    <       0.00338752 Ry

     iteration # 15     ecut=    60.00 Ry     beta= 0.50
     Davidson diagonalization with overlap
     ethr =  1.96E-06,  avg # of iterations =  1.6

     negative rho (up, down):  1.109E-04 0.000E+00

     total cpu time spent up to now is       81.5 secs

     total energy              =    -844.74533039 Ry
     Harris-Foulkes estimate   =    -844.74536937 Ry
     estimated scf accuracy    <       0.00623565 Ry

     iteration # 16     ecut=    60.00 Ry     beta= 0.50
     Davidson diagonalization with overlap
     ethr =  1.96E-06,  avg # of iterations =  1.0

     negative rho (up, down):  1.106E-04 0.000E+00

     total cpu time spent up to now is       83.4 secs

     total energy              =    -844.74469146 Ry
     Harris-Foulkes estimate   =    -844.74534026 Ry
     estimated scf accuracy    <       0.00618551 Ry

     iteration # 17     ecut=    60.00 Ry     beta= 0.50
     Davidson diagonalization with overlap
     ethr =  1.96E-06,  avg # of iterations =  1.2

     negative rho (up, down):  1.104E-04 0.000E+00

     total cpu time spent up to now is       85.4 secs

     total energy              =    -844.74493702 Ry
     Harris-Foulkes estimate   =    -844.74496626 Ry
     estimated scf accuracy    <       0.00009362 Ry

     iteration # 18     ecut=    60.00 Ry     beta= 0.50
     Davidson diagonalization with overlap
     ethr =  8.92E-08,  avg # of iterations =  2.6

     negative rho (up, down):  1.102E-04 0.000E+00

     total cpu time spent up to now is       88.0 secs

     total energy              =    -844.74495632 Ry
     Harris-Foulkes estimate   =    -844.74497887 Ry
     estimated scf accuracy    <       0.00025639 Ry

     iteration # 19     ecut=    60.00 Ry     beta= 0.50
     Davidson diagonalization with overlap
     ethr =  8.92E-08,  avg # of iterations =  2.0

     negative rho (up, down):  1.102E-04 0.000E+00

     total cpu time spent up to now is       90.3 secs

     total energy              =    -844.74495436 Ry
     Harris-Foulkes estimate   =    -844.74496439 Ry
     estimated scf accuracy    <       0.00006594 Ry

     iteration # 20     ecut=    60.00 Ry     beta= 0.50
     Davidson diagonalization with overlap
     ethr =  6.28E-08,  avg # of iterations =  1.0

     negative rho (up, down):  1.102E-04 0.000E+00

     total cpu time spent up to now is       92.3 secs

     total energy              =    -844.74495777 Ry
     Harris-Foulkes estimate   =    -844.74495820 Ry
     estimated scf accuracy    <       0.00000389 Ry

     iteration # 21     ecut=    60.00 Ry     beta= 0.50
     Davidson diagonalization with overlap
     ethr =  3.70E-09,  avg # of iterations =  3.0

     negative rho (up, down):  1.102E-04 0.000E+00

     total cpu time spent up to now is       95.1 secs

     total energy              =    -844.74495854 Ry
     Harris-Foulkes estimate   =    -844.74495842 Ry
     estimated scf accuracy    <       0.00000108 Ry

     iteration # 22     ecut=    60.00 Ry     beta= 0.50
     Davidson diagonalization with overlap
     ethr =  1.03E-09,  avg # of iterations =  2.0

     negative rho (up, down):  1.102E-04 0.000E+00

     total cpu time spent up to now is       97.3 secs

     total energy              =    -844.74495865 Ry
     Harris-Foulkes estimate   =    -844.74495869 Ry
     estimated scf accuracy    <       0.00000399 Ry

     iteration # 23     ecut=    60.00 Ry     beta= 0.50
     Davidson diagonalization with overlap
     ethr =  1.03E-09,  avg # of iterations =  2.0

     negative rho (up, down):  1.102E-04 0.000E+00

     total cpu time spent up to now is       99.5 secs

     total energy              =    -844.74495834 Ry
     Harris-Foulkes estimate   =    -844.74495878 Ry
     estimated scf accuracy    <       0.00000746 Ry

     iteration # 24     ecut=    60.00 Ry     beta= 0.50
     Davidson diagonalization with overlap
     ethr =  1.03E-09,  avg # of iterations =  1.0

     negative rho (up, down):  1.101E-04 0.000E+00

     total cpu time spent up to now is      101.5 secs

     total energy              =    -844.74495803 Ry
     Harris-Foulkes estimate   =    -844.74495843 Ry
     estimated scf accuracy    <       0.00000260 Ry

     iteration # 25     ecut=    60.00 Ry     beta= 0.50
     Davidson diagonalization with overlap
     ethr =  1.03E-09,  avg # of iterations =  1.9

     negative rho (up, down):  1.102E-04 0.000E+00

     total cpu time spent up to now is      103.7 secs

     End of self-consistent calculation

          k = 0.0000 0.0000 0.0000 (  9393 PWs)   bands (ev):

   -28.8210 -16.5470 -16.5215 -10.5286  -9.9074  -9.8886  -8.9234  -8.4904
    -7.9756  -7.6947  -7.5475  -7.4940  -7.4712  -1.7623  -1.7164  -1.5865
    -1.5590  -1.4421  -1.3944   3.9982   4.5646   4.5714   4.6083   4.6372
     4.7949   5.2018   5.3214   5.3252   5.5358   5.8106   5.8821   5.8985
     6.0085   6.0375   6.2300   6.3555   6.3996   6.4172   6.4341   6.4392
     6.7132   6.8853   6.9667   7.4317   7.5470   7.6743   7.7192   7.8222
     8.0834   8.0877   8.0985   8.2074   8.2900   8.3280   8.3287  11.7131
    12.7486  13.1813  13.6749  14.3571  14.7412  15.4578  15.7813  15.8579

          k = 0.0000 0.1233 0.0000 (  9401 PWs)   bands (ev):

   -28.8196 -16.5301 -16.5050 -10.4876 -10.0266  -9.8869  -8.7904  -8.4537
    -8.0039  -7.6846  -7.5965  -7.5354  -7.5105  -1.7667  -1.7043  -1.5791
    -1.5397  -1.4109  -1.3620   3.9523   4.3558   4.3897   4.5820   4.6039
     4.6665   4.8874   5.1022   5.3458   5.4952   5.7567   5.7832   5.8168
     5.9069   6.0570   6.1203   6.2879   6.3761   6.4819   6.4839   6.5074
     6.9264   7.0183   7.1597   7.3987   7.5361   7.6021   7.6241   7.6784
     8.0849   8.1207   8.1554   8.2139   8.2503   8.5373   8.7091  12.0127
    13.0004  13.4688  13.8460  14.4875  14.9745  15.5872  15.6455  16.0293

          k = 0.0000 0.2467 0.0000 (  9418 PWs)   bands (ev):

   -28.8164 -16.4886 -16.4647 -10.3807 -10.2472  -9.8827  -8.5189  -8.3586
    -8.1098  -7.7279  -7.7108  -7.6434  -7.5226  -1.7596  -1.6714  -1.5650
    -1.5084  -1.3334  -1.2817   3.6243   3.8853   3.9478   4.0955   4.6357
     4.6994   4.7185   4.9626   5.3347   5.3865   5.4543   5.5496   5.5727
     5.6976   5.9007   6.0355   6.3047   6.4230   6.4824   6.5781   6.7424
     7.1192   7.1571   7.2478   7.3120   7.4601   7.6840   7.6952   7.7227
     8.0614   8.0827   8.1061   8.1776   8.2698   8.7315   9.5696  12.6803
    13.6797  14.2229  14.3545  14.5584  15.4730  15.6492  15.7352  16.1476

          k = 0.0000 0.3700 0.0000 (  9438 PWs)   bands (ev):

   -28.8132 -16.4463 -16.4236 -10.4212 -10.2594  -9.8786  -8.2605  -8.2601
    -8.2328  -7.8959  -7.8196  -7.6859  -7.5074  -1.7302  -1.6315  -1.5593
    -1.4961  -1.2527  -1.1978   3.0856   3.4488   3.5675   4.0203   4.4074
     4.7217   4.8515   4.9697   5.2213   5.2602   5.2982   5.3197   5.3626
     5.5375   5.6918   6.0195   6.2397   6.2643   6.5412   6.6276   6.9333
     6.9754   7.1423   7.2315   7.3736   7.5393   7.7357   7.9284   7.9612
     7.9843   8.1523   8.1570   8.1678   8.3320   8.7225  10.1715  13.3484
    14.3269  14.5849  15.0774  15.1637  15.2300  15.9108  16.0529  16.3459

          k = 0.0000-0.4933 0.0000 (  9450 PWs)   bands (ev):

   -28.8119 -16.4285 -16.4062 -10.4852 -10.2034  -9.8768  -8.3330  -8.1752
    -8.1134  -7.9893  -7.8643  -7.7319  -7.4957  -1.7102  -1.6103  -1.5622
    -1.4979  -1.2183  -1.1620   2.8687   3.3003   3.4210   4.0005   4.2919
     4.7821   4.9441   5.0276   5.0812   5.1219   5.2092   5.2741   5.3140
     5.5184   5.6087   6.0201   6.1813   6.2177   6.4786   6.6402   6.8633
     7.0095   7.1460   7.2537   7.5188   7.5295   7.7911   7.8358   8.0484
     8.0652   8.1035   8.1986   8.3361   8.3864   8.6149  10.3702  13.7206
    14.1357  15.0846  15.2712  15.4283  15.5509  16.0081  16.0168  16.0750

          k = 0.1260 0.0000 0.0000 (  9442 PWs)   bands (ev):

   -28.8193 -16.5263 -16.5023 -10.4843 -10.0131  -9.9053  -8.7967  -8.5170
    -7.9697  -7.6679  -7.6003  -7.5379  -7.4848  -1.7918  -1.7479  -1.5496
    -1.5229  -1.4198  -1.4014   3.9596   4.2439   4.3047   4.6358   4.6547
     4.9006   5.1754   5.2686   5.2889   5.4682   5.7668   5.7922   5.9277
     6.0262   6.0462   6.1276   6.2624   6.4293   6.4556   6.4730   6.4971
     6.6235   6.9557   7.0790   7.3941   7.4707   7.5146   7.7244   7.8107
     7.9940   8.1510   8.1623   8.2196   8.2383   8.2415   8.4833  11.9727
    13.0353  13.4273  13.8866  14.6762  15.0449  15.6326  15.7601  16.0229

          k = 0.1260 0.1233 0.0000 (  9422 PWs)   bands (ev):

   -28.8180 -16.5100 -16.4864 -10.4442 -10.0413  -9.9859  -8.6713  -8.4775
    -7.9907  -7.6547  -7.6327  -7.5611  -7.5404  -1.7776  -1.7480  -1.6304
    -1.6224  -1.3279  -1.3197   3.9153   4.2465   4.3187   4.3885   4.4259
     4.6549   4.9826   5.0496   5.3042   5.4747   5.6015   5.6293   5.7828
     6.0298   6.0976   6.2139   6.2593   6.2680   6.3096   6.5189   6.6633
     6.8837   7.0188   7.2477   7.3877   7.5288   7.5648   7.6470   7.6765
     7.7973   7.9792   8.2356   8.4077   8.4927   8.7128   8.7492  12.2029
    13.2427  13.7030  14.0595  14.6969  15.1858  15.4738  15.7289  16.1310

          k = 0.1260 0.2467 0.0000 (  9445 PWs)   bands (ev):

   -28.8147 -16.4702 -16.4477 -10.3398 -10.2411  -9.9919  -8.4098  -8.3717
    -8.0819  -7.7151  -7.6946  -7.6277  -7.5799  -1.7685  -1.7507  -1.6858
    -1.6542  -1.2833  -1.2663   3.6131   3.8626   3.9478   4.0897   4.3072
     4.4106   4.7148   5.0321   5.3035   5.3193   5.3398   5.3946   5.4774
     5.7930   5.9293   6.0950   6.1945   6.3059   6.5676   6.6184   6.8985
     6.9762   7.2423   7.3569   7.5175   7.5394   7.6078   7.6909   7.7667
     7.8591   7.8697   8.2362   8.4175   8.7759   9.0271   9.5757  12.7227
    13.8213  14.4487  14.4512  14.7018  15.3591  15.5081  15.6171  16.1868

          k = 0.1260 0.3700 0.0000 (  9455 PWs)   bands (ev):

   -28.8115 -16.4296 -16.4081 -10.4119 -10.2216  -9.9847  -8.2378  -8.2213
    -8.1469  -7.8608  -7.7991  -7.6582  -7.5630  -1.7477  -1.7159  -1.6734
    -1.6313  -1.3161  -1.3103   3.0971   3.3941   3.5498   4.0108   4.3632
     4.4451   4.5585   4.9631   5.0488   5.0579   5.2731   5.2951   5.3749
     5.6759   5.6850   6.0789   6.1543   6.3215   6.5753   6.7884   6.8737
     7.1767   7.2356   7.3333   7.4535   7.6180   7.7546   7.8644   7.9592
     8.0223   8.0775   8.2525   8.3848   8.8306   9.1194  10.1574  13.1322
    14.3254  14.6209  15.1423  15.2660  15.3272  15.5172  16.4128  16.5111

          k = 0.1260-0.4933 0.0000 (  9468 PWs)   bands (ev):

   -28.8102 -16.4125 -16.3915 -10.4753 -10.1672  -9.9815  -8.2900  -8.1341
    -8.0539  -7.9313  -7.8347  -7.7083  -7.5497  -1.7082  -1.6804  -1.6675
    -1.6221  -1.3597  -1.3522   2.8808   3.2374   3.3957   3.9889   4.3865
     4.4027   4.6205   4.8616   4.9186   4.9931   5.2199   5.2392   5.3942
     5.5906   5.6647   6.0746   6.1497   6.3232   6.5733   6.7873   6.9379
     7.0303   7.2355   7.3607   7.5506   7.6319   7.8332   7.8476   8.0781
     8.1583   8.1730   8.2876   8.3809   8.8031   9.1017  10.3478  13.2585
    14.2964  14.9289  15.0375  15.6726  15.6863  15.7158  16.2012  16.7142

          k = 0.2520 0.0000 0.0000 (  9450 PWs)   bands (ev):

   -28.8152 -16.4754 -16.4551 -10.3690 -10.2451  -9.9001  -8.5916  -8.5420
    -8.0053  -7.7065  -7.6338  -7.6229  -7.4943  -1.8927  -1.7106  -1.4751
    -1.4576  -1.4328  -1.3870   3.6271   3.7929   4.0326   4.7129   4.7142
     4.9052   5.0958   5.1279   5.1898   5.2849   5.5219   5.5798   5.7563
     5.8918   6.0025   6.1202   6.3475   6.4267   6.5092   6.5277   6.5278
     6.7968   6.9950   7.1253   7.2740   7.3190   7.6261   7.7355   7.7375
     7.9849   8.0135   8.0564   8.1351   8.1818   8.3906   8.7346  12.4746
    13.7822  14.1118  14.4916  15.4178  15.5855  15.7615  15.9744  16.1152

          k = 0.2520 0.1233 0.0000 (  9457 PWs)   bands (ev):

   -28.8139 -16.4608 -16.4408 -10.3313 -10.2404 -10.0028  -8.5434  -8.4259
    -7.9978  -7.7163  -7.6573  -7.6168  -7.5274  -1.8973  -1.7142  -1.7003
    -1.6391  -1.3205  -1.3038   3.5886   3.7936   4.0278   4.4223   4.4900
     4.6162   4.9417   4.9818   5.1835   5.3005   5.3022   5.4475   5.7543
     5.8498   5.9035   6.2004   6.2294   6.2906   6.5675   6.5857   6.7678
     6.9605   6.9971   7.2670   7.3917   7.4567   7.6230   7.7344   7.7611
     7.8092   7.8956   8.1439   8.4010   8.6574   8.8809   9.0139  12.5610
    13.8721  14.3634  14.6339  15.1104  15.3206  15.5986  15.8927  16.3456

          k = 0.2520 0.2467 0.0000 (  9468 PWs)   bands (ev):

   -28.8107 -16.4251 -16.4058 -10.2517 -10.2337 -10.1832  -8.4109  -8.1790
    -8.0223  -7.7497  -7.6958  -7.6406  -7.5714  -1.9536  -1.9347  -1.7589
    -1.6835  -1.3958  -1.3707   3.3822   3.7227   3.8159   3.9974   4.0806
     4.0854   4.7101   4.8786   4.9825   5.0404   5.3077   5.4186   5.4749
     5.6662   5.8936   5.9282   6.1714   6.2848   6.7730   6.8963   6.9111
     7.2810   7.4175   7.4177   7.5503   7.7033   7.7035   7.7727   7.8197
     7.8616   7.9231   8.2956   8.4429   9.3723   9.5491   9.5952  12.6184
    14.2132  14.5645  14.9931  15.0884  15.3437  15.5399  15.6963  15.9815

          k = 0.2520 0.3700 0.0000 (  9471 PWs)   bands (ev):

   -28.8075 -16.3888 -16.3703 -10.3901 -10.1997 -10.1236  -8.2259  -8.1230
    -7.9544  -7.7636  -7.7589  -7.6969  -7.5841  -2.0032  -1.9932  -1.7830
    -1.6919  -1.5924  -1.5403   3.0141   3.2411   3.4101   3.8943   3.9820
     4.0362   4.5410   4.5418   4.8197   5.0173   5.3200   5.3565   5.4305
     5.5022   5.6739   5.8706   6.1996   6.3289   6.9272   7.0602   7.1905
     7.4392   7.5163   7.5928   7.6751   7.7735   7.8624   7.9452   7.9812
     8.1090   8.1107   8.2957   8.4107   9.7246   9.8721  10.1146  12.4675
    14.3395  14.6793  15.0841  15.2112  15.7363  15.9938  16.0787  16.3214

          k = 0.2520-0.4933 0.0000 (  9452 PWs)   bands (ev):

   -28.8062 -16.3736 -16.3553 -10.4515 -10.1954 -10.0733  -8.1813  -8.0314
    -8.0284  -7.7621  -7.7101  -7.6869  -7.6520  -1.9593  -1.9137  -1.8586
    -1.8247  -1.6263  -1.6258   2.8347   3.0430   3.2506   3.8735   3.9907
     4.0291   4.4148   4.4711   4.7801   4.9803   5.2732   5.3262   5.4690
     5.5032   5.5600   5.8592   6.2046   6.3513   7.1037   7.1117   7.2462
     7.3951   7.5578   7.6020   7.6333   7.8744   8.0376   8.0644   8.0930
     8.1972   8.2119   8.2166   8.3767   9.8140   9.9571  10.2780  12.3735
    14.3015  14.6856  14.9156  15.8542  15.9052  16.0019  16.0355  16.4423

          k = 0.3780 0.0000 0.0000 (  9472 PWs)   bands (ev):

   -28.8111 -16.4231 -16.4068 -10.4296 -10.2379  -9.8948  -8.6797  -8.2999
    -8.1357  -7.7881  -7.6522  -7.6511  -7.4737  -1.9399  -1.6668  -1.5254
    -1.4290  -1.3609  -1.3384   3.2212   3.3634   4.0168   4.7968   4.8229
     4.8260   4.9851   4.9913   5.0728   5.0803   5.2580   5.3691   5.6834
     5.7103   5.9842   6.1280   6.2689   6.3777   6.5048   6.5551   6.5835
     6.8653   7.0145   7.1027   7.3452   7.4349   7.6448   7.6535   7.7468
     7.9182   8.0330   8.1109   8.1583   8.1724   8.4464   8.7591  12.8862
    14.6518  15.0210  15.1723  15.6937  15.8122  15.8213  15.8828  15.9914

          k = 0.3780 0.1233 0.0000 (  9457 PWs)   bands (ev):

   -28.8098 -16.4103 -16.3941 -10.4219 -10.2033  -9.9940  -8.6204  -8.1894
    -8.1019  -7.7708  -7.7017  -7.6338  -7.4844  -1.9410  -1.7194  -1.6522
    -1.6168  -1.3990  -1.3916   3.1664   3.3449   4.0062   4.4991   4.5901
     4.5930   4.8636   4.8854   4.9681   4.9894   5.1378   5.3388   5.6839
     5.7223   5.7991   6.1922   6.2846   6.3599   6.5716   6.5962   6.7650
     6.8899   7.2065   7.2613   7.4093   7.5400   7.6730   7.6864   7.8327
     7.9108   8.0976   8.1269   8.3563   8.6767   8.9239   9.0852  12.7496
    14.6528  14.8556  15.2426  15.3684  15.5465  15.8100  16.0042  16.3701

          k = 0.3780 0.2467 0.0000 (  9478 PWs)   bands (ev):

   -28.8067 -16.3790 -16.3632 -10.4036 -10.1948 -10.1138  -8.4558  -8.0223
    -7.9576  -7.8226  -7.7299  -7.6268  -7.4996  -2.0247  -2.0134  -1.8303
    -1.6810  -1.6158  -1.6022   2.9561   3.2527   3.8400   3.9315   4.0964
     4.1022   4.5016   4.6590   4.7735   5.0040   5.3101   5.4353   5.4423
     5.5988   5.6232   5.9004   6.2519   6.5136   6.8265   7.0158   7.1070
     7.2189   7.5183   7.5490   7.6442   7.7788   7.7950   7.8740   7.9683
     8.0549   8.1414   8.2309   8.3787   9.5658   9.6981   9.8346  12.3055
    14.2725  14.9698  15.1834  15.5254  15.7304  15.7647  15.8634  16.2142

          k = 0.3780 0.3700 0.0000 (  9489 PWs)   bands (ev):

   -28.8035 -16.3472 -16.3318 -10.3893 -10.3583 -10.0135  -8.2253  -8.0159
    -7.8693  -7.7952  -7.6973  -7.6736  -7.4894  -2.2275  -2.1786  -1.9839
    -1.9151  -1.8074  -1.6252   2.6340   3.0334   3.2406   3.7552   3.8066
     4.0254   4.1686   4.4741   4.7377   5.0711   5.2659   5.3809   5.3989
     5.4830   5.5731   5.6567   6.3124   6.6090   7.1673   7.3673   7.4275
     7.4698   7.6626   7.7405   7.9018   7.9357   7.9462   8.0768   8.1287
     8.2437   8.2833   8.3305   8.4753  10.0559  10.3109  10.4043  11.8370
    13.9280  15.0088  15.0589  15.5487  15.5731  15.7668  16.0068  16.4143

          k = 0.3780-0.4933 0.0000 (  9446 PWs)   bands (ev):

   -28.8022 -16.3339 -16.3186 -10.4280 -10.3748  -9.9679  -8.0644  -8.0318
    -7.9103  -7.8361  -7.6883  -7.5986  -7.5014  -2.2315  -2.2244  -2.1968
    -2.0181  -1.8292  -1.6196   2.4806   2.9022   3.0180   3.7050   3.7442
     4.0163   4.0523   4.4130   4.7332   5.0706   5.2237   5.3295   5.3450
     5.5507   5.5548   5.5629   6.3255   6.6393   7.3647   7.4867   7.5212
     7.5677   7.7787   7.7824   7.9021   7.9286   8.0481   8.1471   8.2379
     8.3046   8.3779   8.4620   8.5048  10.1783  10.5239  10.6007  11.6500
    13.8276  14.7978  15.0112  15.4048  15.7631  15.8553  15.9728  16.7826

          k =-0.5040 0.0000 0.0000 (  9438 PWs)   bands (ev):

   -28.8094 -16.4010 -16.3865 -10.4978 -10.1773  -9.8927  -8.7197  -8.2100
    -8.1899  -7.8274  -7.6742  -7.6442  -7.4634  -1.9481  -1.6438  -1.5479
    -1.4585  -1.3194  -1.2979   3.0638   3.1990   4.0211   4.7295   4.9004
     4.9351   4.9355   4.9528   4.9830   5.0178   5.0751   5.2605   5.6459
     5.7001   5.9785   6.0735   6.2415   6.3565   6.4962   6.5580   6.5707
     6.9280   6.9423   7.1115   7.4854   7.5606   7.5928   7.6100   7.7541
     7.8700   7.9638   8.1053   8.1954   8.3749   8.4499   8.6588  13.0482
    15.2818  15.2899  15.4258  15.5333  15.8694  15.9026  15.9196  16.3320

          k =-0.5040 0.1233 0.0000 (  9434 PWs)   bands (ev):

   -28.8081 -16.3890 -16.3745 -10.4895 -10.1442  -9.9901  -8.6554  -8.1695
    -8.0801  -7.8020  -7.6934  -7.6564  -7.4675  -1.9422  -1.6743  -1.6458
    -1.5623  -1.4914  -1.4629   3.0010   3.1728   4.0034   4.5726   4.5958
     4.7032   4.7670   4.7930   4.8235   4.9068   5.0947   5.2714   5.6187
     5.7095   5.8119   6.1987   6.2754   6.4493   6.4987   6.5583   6.7664
     6.9001   7.1586   7.2950   7.5372   7.5790   7.6096   7.7113   7.8067
     7.9270   8.2035   8.2798   8.3458   8.6455   8.9125   9.0419  12.7746
    14.8125  15.2911  15.3799  15.6571  15.7383  15.7752  15.8847  16.6365

          k =-0.5040 0.2467 0.0000 (  9456 PWs)   bands (ev):

   -28.8050 -16.3596 -16.3453 -10.4698 -10.1891 -10.0587  -8.4765  -8.0662
    -7.8511  -7.8181  -7.7408  -7.6401  -7.4712  -1.9697  -1.9548  -1.8545
    -1.8412  -1.7992  -1.6192   2.7781   3.0643   3.8566   3.9208   4.1123
     4.1361   4.3493   4.5748   4.7394   4.9704   5.3326   5.4192   5.4453
     5.5505   5.5912   5.8812   6.2817   6.6310   6.9164   7.0314   7.1101
     7.1811   7.5654   7.6135   7.6408   7.7543   7.7814   8.0121   8.0582
     8.1598   8.2435   8.2526   8.2759   9.5762   9.7474   9.8984  12.1479
    14.1663  15.2888  15.5180  15.5583  15.8029  15.8192  15.8346  16.3620

          k =-0.5040 0.3700 0.0000 (  9486 PWs)   bands (ev):

   -28.8019 -16.3297 -16.3156 -10.4502 -10.3558  -9.9633  -8.2276  -7.9532
    -7.9532  -7.7229  -7.6812  -7.6539  -7.4419  -2.2549  -2.2179  -2.1838
    -2.0181  -1.9004  -1.6132   2.4527   2.8466   3.2533   3.7280   3.7891
     4.0281   4.0315   4.4307   4.7098   5.0653   5.2557   5.3684   5.4235
     5.4478   5.5278   5.6373   6.3514   6.7453   7.3129   7.4436   7.4562
     7.4783   7.7474   7.7853   7.9196   7.9488   8.0591   8.1070   8.1788
     8.3243   8.3538   8.3995   8.5209  10.0271  10.4956  10.5808  11.5921
    13.7675  14.9811  15.1440  15.4121  15.7276  15.8259  15.9484  16.3791

          k =-0.5040-0.4933 0.0000 (  9504 PWs)   bands (ev):

   -28.8006 -16.3173 -16.3032 -10.4422 -10.4184  -9.9200  -8.0339  -8.0130
    -7.9025  -7.8562  -7.6577  -7.5787  -7.4204  -2.3709  -2.3430  -2.3124
    -2.1037  -1.8998  -1.6088   2.2987   2.7213   3.0290   3.6675   3.7062
     3.9204   4.0205   4.3796   4.7088   5.1350   5.1466   5.2897   5.4024
     5.4269   5.5596   5.5711   6.3675   6.7841   7.4570   7.5047   7.6421
     7.6934   7.8423   7.8800   7.9019   8.0245   8.0577   8.1388   8.2274
     8.3730   8.4946   8.5596   8.6855  10.1281  10.7682  10.8325  11.3750
    13.6530  14.7707  15.0960  15.1363  15.7485  15.7623  15.9003  17.0170

     the Fermi energy is     8.5987 ev

!    total energy              =    -844.74495811 Ry
     Harris-Foulkes estimate   =    -844.74495827 Ry
     estimated scf accuracy    <       0.00000017 Ry

     The total energy is the sum of the following terms:

     one-electron contribution =    -266.26204173 Ry
     hartree contribution      =     225.84796455 Ry
     xc contribution           =    -286.01808011 Ry
     ewald contribution        =    -518.30955020 Ry
     smearing contrib. (-TS)   =      -0.00325062 Ry

     convergence has been achieved in  25 iterations

     negative rho (up, down):  1.102E-04 0.000E+00

     Forces acting on atoms (cartesian axes, Ry/au):

     atom    1 type  2   force =     0.00000000    0.00000000   -0.01382439
     atom    2 type  2   force =     0.00000000    0.00000000    0.01382439
     atom    3 type  1   force =     0.00000000    0.00000000    0.00000000
     atom    4 type  4   force =     0.00000000    0.00000000    0.00044573
     atom    5 type  4   force =     0.00000000    0.00000000   -0.00044573
     atom    6 type  4   force =     0.00000000    0.00000000    0.00000000
     atom    7 type  3   force =     0.00000000    0.00000000    0.00000000
     atom    8 type  3   force =     0.00000000    0.00000000    0.02255389
     atom    9 type  3   force =     0.00000000    0.00000000   -0.02255389
     atom   10 type  3   force =     0.00000000    0.00000000    0.02614992
     atom   11 type  3   force =     0.00000000    0.00000000   -0.02614992
     atom   12 type  3   force =     0.00000000    0.00000000    0.00435999
     atom   13 type  3   force =     0.00000000    0.00000000   -0.00435999

     Total force =     0.052968     Total SCF correction =     0.003032


     Computing stress (Cartesian axis) and pressure


     negative rho (up, down):  1.102E-04 0.000E+00
          total   stress  (Ry/bohr**3)                   (kbar)     P=      -16.36
  -0.00018454   0.00000000   0.00000000          -27.15        0.00        0.00
   0.00000000  -0.00016820   0.00000000            0.00      -24.74        0.00
   0.00000000   0.00000000   0.00001910            0.00        0.00        2.81


     number of scf cycles    =   2
     number of bfgs steps    =   1

     enthalpy old            =    -844.7369654134 Ry
     enthalpy new            =    -844.7449581106 Ry

     CASE: enthalpy_new < enthalpy_old

     new trust radius        =       0.0828806775 bohr
     new conv_thr            =       0.0000010000 Ry

     new unit-cell volume =   1159.26481 a.u.^3 (   171.78532 Ang^3 )
     density =      5.96777 g/cm^3

CELL_PARAMETERS (angstrom)
   3.768154447   0.000000000   0.000000000
   0.000000000   3.853970724   0.000000000
   0.000000000   0.000000000  11.829024691

ATOMIC_POSITIONS (angstrom)
Ba            1.8840762432        1.9269863434        9.6662367109
Ba            1.8840762432        1.9269863434        2.1627919819
Ca            1.8840762432        1.9269863434        5.9145143464
Cu            0.0000000000        0.0000000000        7.6505229476
Cu            0.0000000000        0.0000000000        4.1785047447
Cu            0.0000000000        0.0000000000        0.0000000000
O             0.0000000000        1.9269863434        0.0000000000
O             1.8840762432        0.0000000000        7.3854694835
O             1.8840762432        0.0000000000        4.4435582089
O             0.0000000000        1.9269863434        7.4039788697
O             0.0000000000        1.9269863434        4.4250498231
O             0.0000000000        0.0000000000        9.9545681072
O             0.0000000000        0.0000000000        1.8744605856


     NEW-OLD atomic charge density approx. for the potential

     negative rho (up, down):  1.083E-04 0.000E+00
     extrapolated charge  102.64537, renormalised to  105.00000

     total cpu time spent up to now is      108.9 secs

     Self-consistent Calculation

     iteration #  1     ecut=    60.00 Ry     beta= 0.50
     Davidson diagonalization with overlap
     c_bands:  1 eigenvalues not converged
     c_bands:  1 eigenvalues not converged
     ethr =  1.00E-06,  avg # of iterations = 15.7

     negative rho (up, down):  1.070E-04 0.000E+00

     total cpu time spent up to now is      119.9 secs

     total energy              =    -843.14973185 Ry
     Harris-Foulkes estimate   =    -851.25496755 Ry
     estimated scf accuracy    <       8.04502495 Ry

     iteration #  2     ecut=    60.00 Ry     beta= 0.50
     Davidson diagonalization with overlap
     ethr =  7.66E-03,  avg # of iterations =  2.1

     negative rho (up, down):  1.045E-04 0.000E+00

     total cpu time spent up to now is      122.2 secs

     total energy              =    -844.55657020 Ry
     Harris-Foulkes estimate   =    -845.28034408 Ry
     estimated scf accuracy    <       5.29130322 Ry

     iteration #  3     ecut=    60.00 Ry     beta= 0.50
     Davidson diagonalization with overlap
     ethr =  5.04E-03,  avg # of iterations =  1.4

     negative rho (up, down):  1.048E-04 0.000E+00

     total cpu time spent up to now is      124.3 secs

     total energy              =    -844.78070450 Ry
     Harris-Foulkes estimate   =    -844.87703722 Ry
     estimated scf accuracy    <       0.71835615 Ry

     iteration #  4     ecut=    60.00 Ry     beta= 0.50
     Davidson diagonalization with overlap
     ethr =  6.84E-04,  avg # of iterations =  5.3

     negative rho (up, down):  1.065E-04 0.000E+00

     total cpu time spent up to now is      127.7 secs

     total energy              =    -844.78793409 Ry
     Harris-Foulkes estimate   =    -844.81645128 Ry
     estimated scf accuracy    <       0.56069655 Ry

     iteration #  5     ecut=    60.00 Ry     beta= 0.50
     Davidson diagonalization with overlap
     ethr =  5.34E-04,  avg # of iterations =  1.2

     negative rho (up, down):  1.088E-04 0.000E+00

     total cpu time spent up to now is      129.7 secs

     total energy              =    -844.76713675 Ry
     Harris-Foulkes estimate   =    -844.79396294 Ry
     estimated scf accuracy    <       0.31749931 Ry

     iteration #  6     ecut=    60.00 Ry     beta= 0.50
     Davidson diagonalization with overlap
     ethr =  3.02E-04,  avg # of iterations =  1.0

     negative rho (up, down):  1.098E-04 0.000E+00

     total cpu time spent up to now is      131.6 secs

     total energy              =    -844.76605049 Ry
     Harris-Foulkes estimate   =    -844.77184565 Ry
     estimated scf accuracy    <       0.17371569 Ry

     iteration #  7     ecut=    60.00 Ry     beta= 0.50
     Davidson diagonalization with overlap
     ethr =  1.65E-04,  avg # of iterations =  1.2

     negative rho (up, down):  1.107E-04 0.000E+00

     total cpu time spent up to now is      133.6 secs

     total energy              =    -844.76300219 Ry
     Harris-Foulkes estimate   =    -844.76682391 Ry
     estimated scf accuracy    <       0.13035332 Ry

     iteration #  8     ecut=    60.00 Ry     beta= 0.50
     Davidson diagonalization with overlap
     ethr =  1.24E-04,  avg # of iterations =  1.4

     negative rho (up, down):  1.109E-04 0.000E+00

     total cpu time spent up to now is      135.6 secs

     total energy              =    -844.76229386 Ry
     Harris-Foulkes estimate   =    -844.76335151 Ry
     estimated scf accuracy    <       0.09839715 Ry

     iteration #  9     ecut=    60.00 Ry     beta= 0.50
     Davidson diagonalization with overlap
     ethr =  9.37E-05,  avg # of iterations =  1.0

     negative rho (up, down):  1.111E-04 0.000E+00

     total cpu time spent up to now is      137.5 secs

     total energy              =    -844.76065391 Ry
     Harris-Foulkes estimate   =    -844.76237992 Ry
     estimated scf accuracy    <       0.08983249 Ry

     iteration # 10     ecut=    60.00 Ry     beta= 0.50
     Davidson diagonalization with overlap
     ethr =  8.56E-05,  avg # of iterations =  1.0

     negative rho (up, down):  1.127E-04 0.000E+00

     total cpu time spent up to now is      139.5 secs

     total energy              =    -844.75140168 Ry
     Harris-Foulkes estimate   =    -844.76074895 Ry
     estimated scf accuracy    <       0.07716860 Ry

     iteration # 11     ecut=    60.00 Ry     beta= 0.50
     Davidson diagonalization with overlap
     ethr =  7.35E-05,  avg # of iterations =  2.4

     negative rho (up, down):  1.133E-04 0.000E+00

     total cpu time spent up to now is      141.8 secs

     total energy              =    -844.75193575 Ry
     Harris-Foulkes estimate   =    -844.75360121 Ry
     estimated scf accuracy    <       0.01586937 Ry

     iteration # 12     ecut=    60.00 Ry     beta= 0.50
     Davidson diagonalization with overlap
     ethr =  1.51E-05,  avg # of iterations =  5.3

     negative rho (up, down):  1.140E-04 0.000E+00

     total cpu time spent up to now is      145.2 secs

     total energy              =    -844.75212011 Ry
     Harris-Foulkes estimate   =    -844.75253551 Ry
     estimated scf accuracy    <       0.00187608 Ry

     iteration # 13     ecut=    60.00 Ry     beta= 0.50
     Davidson diagonalization with overlap
     ethr =  1.79E-06,  avg # of iterations =  6.3

     negative rho (up, down):  1.140E-04 0.000E+00

     total cpu time spent up to now is      149.3 secs

     total energy              =    -844.75288517 Ry
     Harris-Foulkes estimate   =    -844.75287395 Ry
     estimated scf accuracy    <       0.00590613 Ry

     iteration # 14     ecut=    60.00 Ry     beta= 0.50
     Davidson diagonalization with overlap
     ethr =  1.79E-06,  avg # of iterations =  1.0

     negative rho (up, down):  1.137E-04 0.000E+00

     total cpu time spent up to now is      151.3 secs

     total energy              =    -844.75272208 Ry
     Harris-Foulkes estimate   =    -844.75292657 Ry
     estimated scf accuracy    <       0.00816411 Ry

     iteration # 15     ecut=    60.00 Ry     beta= 0.50
     Davidson diagonalization with overlap
     ethr =  1.79E-06,  avg # of iterations =  1.0

     negative rho (up, down):  1.136E-04 0.000E+00

     total cpu time spent up to now is      153.2 secs

     total energy              =    -844.75272439 Ry
     Harris-Foulkes estimate   =    -844.75274680 Ry
     estimated scf accuracy    <       0.00484270 Ry

     iteration # 16     ecut=    60.00 Ry     beta= 0.50
     Davidson diagonalization with overlap
     ethr =  1.79E-06,  avg # of iterations =  1.0

     negative rho (up, down):  1.135E-04 0.000E+00

     total cpu time spent up to now is      155.1 secs

     total energy              =    -844.75262954 Ry
     Harris-Foulkes estimate   =    -844.75272622 Ry
     estimated scf accuracy    <       0.00451278 Ry

     iteration # 17     ecut=    60.00 Ry     beta= 0.50
     Davidson diagonalization with overlap
     ethr =  1.79E-06,  avg # of iterations =  1.0

     negative rho (up, down):  1.135E-04 0.000E+00

     total cpu time spent up to now is      157.0 secs

     total energy              =    -844.75260776 Ry
     Harris-Foulkes estimate   =    -844.75263789 Ry
     estimated scf accuracy    <       0.00302305 Ry

     iteration # 18     ecut=    60.00 Ry     beta= 0.50
     Davidson diagonalization with overlap
     ethr =  1.79E-06,  avg # of iterations =  1.0

     negative rho (up, down):  1.135E-04 0.000E+00

     total cpu time spent up to now is      159.0 secs

     total energy              =    -844.75254337 Ry
     Harris-Foulkes estimate   =    -844.75260919 Ry
     estimated scf accuracy    <       0.00255459 Ry

     iteration # 19     ecut=    60.00 Ry     beta= 0.50
     Davidson diagonalization with overlap
     ethr =  1.79E-06,  avg # of iterations =  1.0

     negative rho (up, down):  1.134E-04 0.000E+00

     total cpu time spent up to now is      160.9 secs

     total energy              =    -844.75251330 Ry
     Harris-Foulkes estimate   =    -844.75254976 Ry
     estimated scf accuracy    <       0.00158909 Ry

     iteration # 20     ecut=    60.00 Ry     beta= 0.50
     Davidson diagonalization with overlap
     ethr =  1.51E-06,  avg # of iterations =  1.0

     negative rho (up, down):  1.134E-04 0.000E+00

     total cpu time spent up to now is      162.8 secs

     total energy              =    -844.75253035 Ry
     Harris-Foulkes estimate   =    -844.75251651 Ry
     estimated scf accuracy    <       0.00106040 Ry

     iteration # 21     ecut=    60.00 Ry     beta= 0.50
     Davidson diagonalization with overlap
     ethr =  1.01E-06,  avg # of iterations =  1.0

     negative rho (up, down):  1.133E-04 0.000E+00

     total cpu time spent up to now is      164.8 secs

     total energy              =    -844.75237950 Ry
     Harris-Foulkes estimate   =    -844.75253116 Ry
     estimated scf accuracy    <       0.00127906 Ry

     iteration # 22     ecut=    60.00 Ry     beta= 0.50
     Davidson diagonalization with overlap
     ethr =  1.01E-06,  avg # of iterations =  1.0

     negative rho (up, down):  1.133E-04 0.000E+00

     total cpu time spent up to now is      166.7 secs

     total energy              =    -844.75244756 Ry
     Harris-Foulkes estimate   =    -844.75244753 Ry
     estimated scf accuracy    <       0.00000304 Ry

     iteration # 23     ecut=    60.00 Ry     beta= 0.50
     Davidson diagonalization with overlap
     ethr =  2.89E-09,  avg # of iterations =  3.2

     negative rho (up, down):  1.133E-04 0.000E+00

     total cpu time spent up to now is      169.9 secs

     total energy              =    -844.75244826 Ry
     Harris-Foulkes estimate   =    -844.75244862 Ry
     estimated scf accuracy    <       0.00000244 Ry

     iteration # 24     ecut=    60.00 Ry     beta= 0.50
     Davidson diagonalization with overlap
     ethr =  2.33E-09,  avg # of iterations =  1.0

     negative rho (up, down):  1.133E-04 0.000E+00

     total cpu time spent up to now is      171.8 secs

     End of self-consistent calculation

          k = 0.0000 0.0000 0.0000 (  9393 PWs)   bands (ev):

   -28.6480 -16.1306 -16.1057 -10.3837  -9.7339  -9.7143  -8.8091  -8.2457
    -7.8419  -7.4988  -7.3268  -7.2780  -7.1944  -1.3500  -1.2898  -1.1623
    -1.1369  -1.0087  -0.9649   4.2563   4.7254   4.7424   4.7568   4.8144
     4.9959   5.4699   5.5818   5.5867   5.8146   6.0793   6.0948   6.0957
     6.2765   6.3049   6.4362   6.5981   6.6160   6.6200   6.6297   6.6356
     7.0334   7.1214   7.2294   7.6543   7.8331   7.9172   7.9582   8.0771
     8.2421   8.3512   8.4082   8.4928   8.5337   8.6170   8.6212  12.1164
    13.0560  13.5443  14.0297  14.8258  15.2246  15.9509  16.1860  16.2986

          k = 0.0000 0.1247 0.0000 (  9401 PWs)   bands (ev):

   -28.6465 -16.1109 -16.0865 -10.3396  -9.8562  -9.7125  -8.6705  -8.2077
    -7.8691  -7.4915  -7.3443  -7.3349  -7.2641  -1.3591  -1.2804  -1.1488
    -1.1105  -0.9735  -0.9285   4.2032   4.5213   4.5216   4.7583   4.7606
     4.9043   5.0892   5.3586   5.6008   5.7711   5.9552   5.9770   6.0714
     6.1492   6.3037   6.3264   6.5228   6.5846   6.6801   6.6820   6.7774
     7.2410   7.2564   7.4301   7.6162   7.8165   7.8321   7.9123   7.9299
     8.3471   8.4033   8.4098   8.4329   8.5353   8.7967   9.0472  12.4228
    13.2949  13.8308  14.2067  14.9464  15.4661  16.0766  16.1461  16.3695

          k = 0.0000 0.2494 0.0000 (  9418 PWs)   bands (ev):

   -28.6429 -16.0624 -16.0393 -10.2244 -10.0795  -9.7080  -8.3868  -8.1111
    -7.9753  -7.5151  -7.4688  -7.4126  -7.3557  -1.3556  -1.2490  -1.1259
    -1.0698  -0.8859  -0.8376   3.8155   4.0427   4.0443   4.3254   4.8177
     4.8547   4.9598   5.1483   5.5878   5.6501   5.6760   5.7402   5.7804
     5.8974   6.0590   6.2985   6.5120   6.6394   6.7668   6.7704   6.9919
     7.3759   7.4141   7.4922   7.5777   7.7454   7.9651   7.9668   8.0259
     8.2983   8.3532   8.3758   8.4941   8.5230   9.0166   9.9297  13.1154
    13.9401  14.5873  14.7355  15.0149  15.9156  16.1791  16.1874  16.3415

          k = 0.0000 0.3741 0.0000 (  9438 PWs)   bands (ev):

   -28.6393 -16.0127 -15.9909 -10.2548 -10.0923  -9.7035  -8.1329  -8.1016
    -7.9983  -7.6528  -7.5918  -7.5067  -7.3403  -1.3226  -1.2039  -1.1188
    -1.0552  -0.7942  -0.7423   3.2662   3.5455   3.6301   4.2629   4.6388
     4.9121   5.0083   5.1297   5.4244   5.4603   5.5352   5.5653   5.5725
     5.7569   5.8372   6.2842   6.4446   6.4878   6.7958   6.8100   7.1601
     7.2485   7.3595   7.4721   7.6741   7.8225   8.0169   8.1924   8.1950
     8.3200   8.4083   8.4499   8.5113   8.6321   9.0417  10.5395  13.8042
    14.7709  14.8415  15.4669  15.5691  15.6593  16.2207  16.2825  16.7057

          k = 0.0000-0.4988 0.0000 (  9450 PWs)   bands (ev):

   -28.6379 -15.9917 -15.9705 -10.3194 -10.0307  -9.7016  -8.2112  -7.9731
    -7.9167  -7.7318  -7.6417  -7.5755  -7.3279  -1.2988  -1.1763  -1.1257
    -1.0584  -0.7549  -0.7013   3.0418   3.3800   3.4712   4.2460   4.5202
     4.9838   5.0938   5.1727   5.2641   5.3026   5.4677   5.4826   5.5682
     5.7469   5.7492   6.2868   6.4040   6.4210   6.7233   6.8206   7.1291
     7.2278   7.3530   7.4915   7.7944   7.8504   8.0843   8.0895   8.2312
     8.4011   8.4584   8.5278   8.5965   8.7133   8.9605  10.7389  14.1921
    14.5874  15.5063  15.5194  15.7618  15.9479  16.1745  16.3743  16.5023

          k = 0.1275 0.0000 0.0000 (  9442 PWs)   bands (ev):

   -28.6461 -16.1065 -16.0833 -10.3364  -9.8403  -9.7316  -8.6771  -8.2735
    -7.8334  -7.4761  -7.3837  -7.3265  -7.2123  -1.3691  -1.3365  -1.1206
    -1.0959  -0.9906  -0.9680   4.2022   4.4123   4.4362   4.7837   4.8320
     5.0989   5.4434   5.5211   5.5489   5.7431   5.9595   5.9879   6.1813
     6.2926   6.3039   6.3162   6.4925   6.6477   6.6503   6.6575   6.7752
     6.9175   7.2200   7.3423   7.6366   7.7300   7.7420   7.9739   8.0731
     8.2828   8.3898   8.4386   8.4787   8.5178   8.5354   8.7386  12.3820
    13.3278  13.8001  14.2546  15.1421  15.5525  16.0953  16.2654  16.3697

          k = 0.1275 0.1247 0.0000 (  9422 PWs)   bands (ev):

   -28.6446 -16.0876 -16.0648 -10.2934  -9.8713  -9.8109  -8.5482  -8.2325
    -7.8529  -7.4651  -7.4022  -7.3707  -7.2715  -1.3524  -1.3387  -1.2143
[...]
    -1.0942  -0.9109  -0.8695   3.7285   3.9756   4.0298   4.2061   4.8061
     4.8179   4.8926   5.1384   5.3687   5.5658   5.6411   5.7005   5.7746
     5.8742   5.9579   6.2767   6.4174   6.4667   6.6418   6.7708   6.9319
     7.3232   7.3422   7.4281   7.5325   7.6934   7.8278   7.8685   8.0400
     8.2464   8.2530   8.3387   8.3944   8.4020   8.9563   9.9066  13.1467
    13.5642  14.6710  14.7746  14.9068  15.8867  15.9137  16.1934  16.1948

          k = 0.0000 0.3729 0.0000 (  9168 PWs)   bands (ev):

   -29.1820 -15.9946 -15.9762 -10.5948 -10.4688 -10.2194  -8.2681  -8.2641
    -8.0567  -7.7101  -7.6820  -7.6086  -7.5543  -1.2930  -1.1932  -1.1454
    -1.0905  -0.8207  -0.7762   3.2527   3.5141   3.5602   4.1083   4.5730
     4.9159   4.9714   5.0619   5.3643   5.3818   5.4019   5.4691   5.5655
     5.7267   5.7648   6.2722   6.3029   6.3516   6.6681   6.7835   7.0807
     7.2309   7.3377   7.4757   7.5950   7.7986   7.9477   8.1285   8.1780
     8.2411   8.2518   8.3801   8.4131   8.5692   8.9659  10.5206  13.7981
    14.4035  14.7732  15.5129  15.5394  15.7384  15.7535  16.1069  16.6564

          k = 0.0000-0.4972 0.0000 (  9118 PWs)   bands (ev):

   -29.1807 -15.9740 -15.9561 -10.6443 -10.4273 -10.2178  -8.3147  -8.1486
    -7.9860  -7.7507  -7.7117  -7.7081  -7.5667  -1.2747  -1.1661  -1.1621
    -1.0981  -0.7821  -0.7361   3.0453   3.3409   3.4011   4.0905   4.4552
     5.0070   5.0109   5.1317   5.2289   5.2367   5.3653   5.3823   5.4878
     5.6354   5.7619   6.2196   6.2810   6.3267   6.6735   6.7044   7.1275
     7.1384   7.3378   7.5085   7.7772   7.7838   8.0139   8.0859   8.1468
     8.2802   8.3567   8.4215   8.5019   8.6935   8.8667  10.7213  14.1803
    14.5287  15.1112  15.4827  15.6100  15.6818  15.9804  16.2095  16.8185

          k = 0.1266 0.0000 0.0000 (  9117 PWs)   bands (ev):

   -29.1877 -16.0879 -16.0681 -10.6451 -10.3039 -10.2415  -8.7554  -8.2932
    -8.1378  -7.5590  -7.4967  -7.4532  -7.2903  -1.3192  -1.2827  -1.1260
    -1.1048  -1.0162  -0.9947   4.0235   4.3796   4.3933   4.7409   4.7896
     5.1149   5.3105   5.4338   5.4797   5.6488   5.9175   5.9385   6.1478
     6.2138   6.2754   6.3086   6.4251   6.5460   6.5479   6.5522   6.7050
     6.9038   7.1902   7.3252   7.4953   7.5695   7.6816   7.8443   7.9376
     8.2003   8.2214   8.3886   8.4501   8.4910   8.5202   8.6887  12.3690
    13.0636  13.9162  14.2407  15.0258  15.4792  16.0022  16.0285  16.1299

          k = 0.1266 0.1243 0.0000 (  9153 PWs)   bands (ev):

   -29.1864 -16.0692 -16.0498 -10.6127 -10.3203 -10.2915  -8.6625  -8.2554
    -8.1375  -7.5627  -7.5168  -7.4990  -7.3420  -1.3111  -1.2918  -1.2110
    -1.2102  -0.9173  -0.9078   3.9861   4.3838   4.4054   4.5053   4.5059
     4.8925   5.1908   5.2188   5.3575   5.6553   5.7425   5.7652   6.0324
     6.1756   6.2722   6.3529   6.3530   6.3678   6.5524   6.6724   6.8601
     7.1464   7.2442   7.4994   7.6066   7.6372   7.6448   7.6946   7.8844
     8.0233   8.2156   8.4055   8.6607   8.6948   8.8610   9.0656  12.6281
    13.2086  14.1797  14.4445  15.0316  15.6421  15.8324  16.1207  16.1558

          k = 0.1266 0.2486 0.0000 (  9148 PWs)   bands (ev):

   -29.1835 -16.0234 -16.0049 -10.5302 -10.4606 -10.2915  -8.4408  -8.1601
    -8.1562  -7.5996  -7.5960  -7.5599  -7.4623  -1.3467  -1.3176  -1.2472
    -1.2265  -0.8743  -0.8515   3.7156   3.9744   4.0301   4.1940   4.4545
     4.5018   4.8857   5.1866   5.3693   5.4347   5.4396   5.5790   5.7281
     5.9465   5.9776   6.2919   6.3484   6.3490   6.7239   6.9127   7.1412
     7.1611   7.4381   7.5399   7.7417   7.7655   7.8076   7.8459   7.9807
     8.0521   8.0653   8.4591   8.6567   8.9999   9.2025   9.9128  13.1924
    13.6659  14.8987  14.9021  15.0816  15.5070  15.9957  16.2075  16.3434

          k = 0.1266 0.3729 0.0000 (  9161 PWs)   bands (ev):

   -29.1805 -15.9764 -15.9590 -10.5879 -10.4402 -10.2857  -8.2264  -8.2041
    -8.0235  -7.6921  -7.6621  -7.5977  -7.5920  -1.3367  -1.3058  -1.2265
    -1.2140  -0.9078  -0.8901   3.2519   3.4815   3.5387   4.0949   4.5285
     4.5618   4.7009   5.0481   5.1633   5.1920   5.3550   5.5155   5.5291
     5.7241   5.8640   6.2470   6.3375   6.3422   6.7208   7.0238   7.1306
     7.3262   7.4412   7.5968   7.6931   7.8745   7.9658   8.0731   8.1636
     8.2122   8.3377   8.4300   8.6568   9.0705   9.3233  10.5041  13.5786
    14.3715  14.7786  15.3972  15.6331  15.8135  15.9001  16.4288  16.6978

          k = 0.1266-0.4972 0.0000 (  9146 PWs)   bands (ev):

   -29.1793 -15.9566 -15.9396 -10.6368 -10.4001 -10.2833  -8.2677  -8.1021
    -7.9140  -7.7286  -7.7092  -7.6844  -7.6074  -1.2908  -1.2819  -1.2253
    -1.2163  -0.9426  -0.9319   3.0457   3.2963   3.3713   4.0725   4.5342
     4.5844   4.7248   4.9306   5.0365   5.1266   5.3200   5.4603   5.5228
     5.6189   5.8592   6.2397   6.3353   6.3381   6.7140   7.0207   7.1524
     7.2723   7.3742   7.6532   7.7981   7.8853   8.0551   8.0722   8.3032
     8.3667   8.3794   8.4720   8.6793   9.0474   9.3167  10.6944  13.7202
    14.6591  14.6904  15.5513  15.6851  16.0394  16.1625  16.3940  16.9564

          k = 0.2532 0.0000 0.0000 (  9128 PWs)   bands (ev):

   -29.1840 -16.0314 -16.0150 -10.5545 -10.4622 -10.2368  -8.5205  -8.3737
    -8.1245  -7.6294  -7.5880  -7.5284  -7.3044  -1.4214  -1.2629  -1.0646
    -1.0266  -1.0071  -0.9927   3.7180   3.8391   4.1080   4.8222   4.8557
     5.0565   5.1854   5.3450   5.3726   5.4136   5.6737   5.7218   5.9364
     5.9957   6.2504   6.3688   6.4708   6.5633   6.5889   6.6941   6.8023
     6.9735   7.2242   7.3498   7.5035   7.5165   7.7254   7.9029   7.9389
     8.2015   8.2232   8.2859   8.3040   8.3139   8.7267   8.9380  12.9429
    13.6185  14.5959  14.8714  15.6817  15.8199  16.2064  16.3265  16.3474

          k = 0.2532 0.1243 0.0000 (  9140 PWs)   bands (ev):

   -29.1828 -16.0146 -15.9985 -10.5248 -10.4585 -10.3008  -8.4420  -8.3208
    -8.1101  -7.6411  -7.5785  -7.5557  -7.3387  -1.4388  -1.3056  -1.2574
    -1.2169  -0.9008  -0.9005   3.6864   3.8388   4.1055   4.5467   4.5690
     4.8457   5.0927   5.1440   5.2633   5.4168   5.4213   5.6049   5.9523
     5.9836   6.0424   6.3335   6.3348   6.4839   6.7455   6.8388   7.0221
     7.1731   7.2139   7.4540   7.6299   7.6944   7.7771   7.8611   7.9041
     8.0179   8.1074   8.3513   8.6492   8.8921   9.1825   9.1979  13.0321
    13.7016  14.8399  15.0303  15.4495  15.5616  16.0936  16.2371  16.2928

          k = 0.2532 0.2486 0.0000 (  9165 PWs)   bands (ev):

   -29.1798 -15.9736 -15.9581 -10.4648 -10.4493 -10.4243  -8.2669  -8.1630
    -8.0935  -7.6846  -7.5931  -7.5759  -7.4333  -1.5342  -1.5332  -1.3149
    -1.2606  -0.9796  -0.9784   3.4832   3.7469   4.0129   4.0914   4.1246
     4.1795   4.8538   4.9774   5.1103   5.1882   5.3755   5.5681   5.6854
     5.7990   5.9447   5.9750   6.3745   6.5375   7.0123   7.0793   7.1887
     7.5527   7.5949   7.6149   7.7395   7.9157   7.9646   7.9750   8.0228
     8.0368   8.0618   8.5293   8.7015   9.6354   9.7542   9.9313  13.0706
    13.9828  15.0541  15.2080  15.5334  15.7621  16.1808  16.2821  16.3258

          k = 0.2532 0.3729 0.0000 (  9153 PWs)   bands (ev):

   -29.1769 -15.9316 -15.9168 -10.5716 -10.4313 -10.3674  -8.1207  -8.0860
    -7.9346  -7.7114  -7.6384  -7.6118  -7.5559  -1.6090  -1.5894  -1.3330
    -1.3041  -1.1666  -1.1614   3.0974   3.3901   3.4301   3.9695   4.0318
     4.1229   4.6411   4.6425   4.9861   5.1775   5.3822   5.5600   5.5616
     5.6267   5.7400   5.9024   6.4332   6.5601   7.1529   7.2284   7.4645
     7.6230   7.7614   7.7983   7.9353   7.9882   8.0871   8.1113   8.2518
     8.2939   8.3134   8.5225   8.6893  10.0090  10.1144  10.4530  12.9337
    14.0831  15.1147  15.5312  15.5878  16.3254  16.3616  16.5787  16.6328

          k = 0.2532-0.4972 0.0000 (  9166 PWs)   bands (ev):

   -29.1757 -15.9140 -15.8995 -10.6188 -10.4278 -10.3312  -8.1480  -7.9793
    -7.7543  -7.7119  -7.7100  -7.6801  -7.6189  -1.5642  -1.5227  -1.4731
    -1.3656  -1.2632  -1.2013   2.9171   3.2108   3.2167   3.9491   4.0433
     4.1179   4.5172   4.5518   4.9655   5.1480   5.3356   5.5221   5.5845
     5.5938   5.6696   5.8824   6.4480   6.5780   7.2583   7.3213   7.4908
     7.5850   7.7757   7.8620   7.9117   8.1078   8.2385   8.2515   8.3671
     8.3751   8.4330   8.4507   8.6684  10.1034  10.2124  10.6107  12.8556
    14.0623  15.1015  15.4026  16.1603  16.3998  16.4942  16.5527  16.5911

          k = 0.3798 0.0000 0.0000 (  9116 PWs)   bands (ev):

   -29.1803 -15.9731 -15.9604 -10.5992 -10.4553 -10.2321  -8.4851  -8.2294
    -8.1678  -7.7017  -7.6763  -7.6145  -7.3056  -1.4714  -1.2353  -1.1105
    -1.0436  -0.9217  -0.9041   3.2822   3.3792   4.0952   4.8975   4.9385
     4.9775   5.0590   5.1731   5.2268   5.2454   5.4071   5.5036   5.8329
     5.9003   6.2328   6.3365   6.3818   6.5471   6.5909   6.6297   6.8523
     7.1376   7.1428   7.3639   7.5795   7.6768   7.8874   7.8987   7.9660
     8.1484   8.2079   8.2436   8.2789   8.3282   8.8076   8.9985  13.3486
    14.4753  15.3701  15.4882  15.6469  16.2601  16.2848  16.4274  16.4522

          k = 0.3798 0.1243 0.0000 (  9148 PWs)   bands (ev):

   -29.1791 -15.9584 -15.9458 -10.5933 -10.4288 -10.2940  -8.4246  -8.1570
    -8.1324  -7.7158  -7.6521  -7.6214  -7.3248  -1.4854  -1.3112  -1.2266
    -1.2075  -0.9825  -0.9715   3.2326   3.3575   4.0821   4.6355   4.6711
     4.8179   4.9921   5.0159   5.0792   5.1024   5.2221   5.4723   5.8040
     5.9302   5.9938   6.3034   6.3288   6.6117   6.7214   6.8332   7.0044
     7.1291   7.3461   7.5506   7.6455   7.7593   7.9308   7.9590   8.0120
     8.1312   8.2544   8.2569   8.5646   8.9125   9.2621   9.2959  13.2115
    14.4126  15.0907  15.7068  15.7420  15.9289  16.3253  16.3823  16.5202

          k = 0.3798 0.2486 0.0000 (  9173 PWs)   bands (ev):

   -29.1762 -15.9225 -15.9101 -10.5793 -10.4300 -10.3614  -8.2570  -8.0491
    -7.9852  -7.7882  -7.6020  -7.5983  -7.3932  -1.6230  -1.6072  -1.3888
    -1.2955  -1.2168  -1.1844   3.0320   3.2515   3.9817   4.0795   4.1342
     4.1838   4.5973   4.7468   4.9178   5.1468   5.4032   5.5529   5.6334
     5.7221   5.7512   5.9331   6.4730   6.7741   7.0598   7.1976   7.3192
     7.4680   7.7259   7.7678   7.9671   7.9782   8.0761   8.1039   8.1505
     8.1653   8.2993   8.4822   8.6179   9.8744  10.0117  10.0801  12.7852
    14.0386  15.3147  15.6356  16.1018  16.1059  16.2965  16.3443  16.5500

          k = 0.3798 0.3729 0.0000 (  9176 PWs)   bands (ev):

   -29.1733 -15.8859 -15.8739 -10.5684 -10.5490 -10.2888  -8.0229  -8.0026
    -7.8350  -7.7999  -7.5797  -7.5667  -7.5264  -1.8327  -1.7854  -1.5925
    -1.4951  -1.4232  -1.2309   2.7013   3.0047   3.4474   3.7962   3.8253
     4.0977   4.2812   4.5470   4.9041   5.2355   5.4212   5.4323   5.5704
     5.5780   5.6430   5.7539   6.5510   6.8767   7.3676   7.5707   7.6336
     7.6858   7.9195   7.9628   8.0863   8.1820   8.2732   8.2823   8.3463
     8.4369   8.4563   8.5497   8.7485  10.3815  10.6375  10.6958  12.3412
    13.7203  15.5206  15.5522  16.0044  16.0702  16.2171  16.3634  16.5347

          k = 0.3798-0.4972 0.0000 (  9202 PWs)   bands (ev):

   -29.1721 -15.8706 -15.8586 -10.6012 -10.5578 -10.2568  -8.0171  -7.8285
    -7.8198  -7.7259  -7.6503  -7.5993  -7.5552  -1.8386  -1.8293  -1.8099
    -1.6219  -1.4348  -1.2358   2.5391   2.8601   3.2174   3.7403   3.7623
     4.0858   4.1750   4.4828   4.9103   5.2566   5.3511   5.3839   5.5052
     5.5779   5.5943   5.7542   6.5670   6.9110   7.5460   7.6914   7.7206
     7.7698   7.9544   8.0916   8.1108   8.1918   8.2960   8.4015   8.4297
     8.5267   8.6419   8.6627   8.7546  10.4939  10.8627  10.9095  12.1643
    13.6304  15.2784  15.5343  15.8896  16.2348  16.2720  16.3563  16.8150

          k =-0.5065 0.0000 0.0000 (  9154 PWs)   bands (ev):

   -29.1788 -15.9485 -15.9374 -10.6516 -10.4111 -10.2302  -8.5284  -8.2090
    -8.0613  -7.7695  -7.6819  -7.6794  -7.3042  -1.4813  -1.2175  -1.1330
    -1.0756  -0.8765  -0.8597   3.1118   3.2040   4.1030   4.8183   5.0155
     5.0221   5.0611   5.1382   5.1626   5.1865   5.1983   5.3899   5.7749
     5.9241   6.2282   6.2545   6.3464   6.5357   6.5863   6.6143   6.8669
     7.1524   7.2195   7.2406   7.7191   7.8194   7.8540   7.8602   8.0041
     8.0811   8.1884   8.2154   8.3489   8.4611   8.8081   8.9406  13.5078
    15.1341  15.2718  15.5824  15.9821  16.1261  16.3756  16.4948  16.5310

          k =-0.5065 0.1243 0.0000 (  9134 PWs)   bands (ev):

   -29.1776 -15.9347 -15.9236 -10.6452 -10.3860 -10.2911  -8.4617  -8.1647
    -7.9953  -7.7380  -7.7174  -7.6579  -7.3175  -1.4870  -1.2628  -1.2362
    -1.1819  -1.0561  -1.0273   3.0534   3.1738   4.0791   4.7309   4.7834
     4.8458   4.8629   4.8687   4.9414   5.0292   5.1924   5.3981   5.7546
     5.9432   5.9767   6.2821   6.3365   6.6794   6.7047   6.7485   7.0264
     7.0947   7.4166   7.4622   7.7471   7.8401   7.9062   7.9646   8.0654
     8.1363   8.3634   8.4283   8.4979   8.8794   9.2569   9.2742  13.2475
    14.5803  15.3957  15.8583  16.0612  16.1938  16.2249  16.4904  16.5905

          k =-0.5065 0.2486 0.0000 (  9162 PWs)   bands (ev):

   -29.1747 -15.9009 -15.8900 -10.6298 -10.4257 -10.3225  -8.2755  -8.0511
    -7.8487  -7.8130  -7.6596  -7.6015  -7.3740  -1.5655  -1.5519  -1.4612
    -1.4238  -1.3939  -1.2081   2.8413   3.0519   3.9776   4.0894   4.1666
     4.2012   4.4423   4.6571   4.8699   5.1117   5.4224   5.5167   5.6799
     5.7011   5.7044   5.8965   6.5074   6.9046   7.1388   7.2089   7.2867
     7.4193   7.7728   7.8444   7.9572   7.9928   8.0585   8.2242   8.3155
     8.3200   8.4088   8.4226   8.5150   9.8897  10.0590  10.1596  12.6506
    13.9494  15.8286  15.8422  16.1063  16.1082  16.2632  16.3792  16.6272

          k =-0.5065 0.3729 0.0000 (  9186 PWs)   bands (ev):

   -29.1718 -15.8667 -15.8558 -10.6146 -10.5468 -10.2541  -8.0111  -7.9251
    -7.9145  -7.7162  -7.5789  -7.5493  -7.5061  -1.8563  -1.8261  -1.7953
    -1.6462  -1.4775  -1.2328   2.5127   2.8104   3.4606   3.7621   3.8013
     4.0969   4.1490   4.5107   4.8540   5.2148   5.4697   5.4824   5.4829
     5.4833   5.6769   5.7333   6.5906   7.0336   7.4887   7.6540   7.6549
     7.6751   7.9558   8.0527   8.2378   8.2440   8.2588   8.2631   8.3854
     8.5484   8.5748   8.6729   8.7104  10.3453  10.8366  10.8913  12.1158
    13.5761  15.5185  15.7346  15.8759  16.1301  16.1946  16.2778  16.6202

          k =-0.5065-0.4972 0.0000 (  9204 PWs)   bands (ev):

   -29.1706 -15.8523 -15.8415 -10.6084 -10.5939 -10.2240  -7.9585  -7.8677
    -7.7363  -7.7307  -7.6647  -7.5398  -7.5302  -1.9741  -1.9506  -1.9267
    -1.7329  -1.4914  -1.2392   2.3523   2.6728   3.2291   3.6928   3.7157
     4.0504   4.0864   4.4610   4.8616   5.2650   5.3887   5.4055   5.4242
     5.4618   5.6102   5.7729   6.6080   7.0779   7.6160   7.7124   7.8280
     7.9576   8.0067   8.0734   8.1908   8.2229   8.3408   8.3761   8.4662
     8.6280   8.7575   8.8339   8.8360  10.4367  11.1262  11.1628  11.9051
    13.4762  15.2833  15.5772  15.7369  16.0749  16.1915  16.2254  17.1111

     the Fermi energy is     8.8394 ev

!    total energy              =    -844.75891569 Ry
     Harris-Foulkes estimate   =    -844.75891569 Ry
     estimated scf accuracy    <          9.1E-09 Ry

     The total energy is the sum of the following terms:

     one-electron contribution =    -253.79340786 Ry
     hartree contribution      =     220.30829076 Ry
     xc contribution           =    -286.13584585 Ry
     ewald contribution        =    -525.13424656 Ry
     smearing contrib. (-TS)   =      -0.00370617 Ry

     convergence has been achieved in  14 iterations

     negative rho (up, down):  1.143E-04 0.000E+00

     Forces acting on atoms (cartesian axes, Ry/au):

     atom    1 type  2   force =     0.00000000    0.00000000   -0.00004159
     atom    2 type  2   force =     0.00000000    0.00000000    0.00004159
     atom    3 type  1   force =     0.00000000    0.00000000    0.00000000
     atom    4 type  4   force =     0.00000000    0.00000000    0.00055647
     atom    5 type  4   force =     0.00000000    0.00000000   -0.00055647
     atom    6 type  4   force =     0.00000000    0.00000000    0.00000000
     atom    7 type  3   force =     0.00000000    0.00000000    0.00000000
     atom    8 type  3   force =     0.00000000    0.00000000   -0.00000679
     atom    9 type  3   force =     0.00000000    0.00000000    0.00000679
     atom   10 type  3   force =     0.00000000    0.00000000   -0.00003857
     atom   11 type  3   force =     0.00000000    0.00000000    0.00003857
     atom   12 type  3   force =     0.00000000    0.00000000    0.00008949
     atom   13 type  3   force =     0.00000000    0.00000000   -0.00008949

     Total force =     0.000801     Total SCF correction =     0.000757
     SCF correction compared to forces is large: reduce conv_thr to get better values


     Computing stress (Cartesian axis) and pressure


     negative rho (up, down):  1.143E-04 0.000E+00
          total   stress  (Ry/bohr**3)                   (kbar)     P=        0.03
   0.00000027   0.00000000   0.00000000            0.04        0.00        0.00
   0.00000000  -0.00000022   0.00000000            0.00       -0.03        0.00
   0.00000000   0.00000000   0.00000062            0.00        0.00        0.09

 
     init_run     :      4.11s CPU      4.61s WALL (       2 calls)
     electrons    :    788.31s CPU    860.97s WALL (      29 calls)
     update_pot   :     31.22s CPU     31.39s WALL (      27 calls)
     forces       :     26.31s CPU     28.59s WALL (      29 calls)
     stress       :     75.83s CPU     82.51s WALL (      29 calls)

     Called by init_run:
     wfcinit      :      1.51s CPU      1.62s WALL (       2 calls)
     potinit      :      0.60s CPU      0.60s WALL (       2 calls)
     hinit0       :      1.20s CPU      1.39s WALL (       2 calls)

     Called by electrons:
     c_bands      :    615.38s CPU    629.45s WALL (     356 calls)
     sum_band     :    116.91s CPU    149.33s WALL (     356 calls)
     v_of_rho     :      6.87s CPU      7.03s WALL (     374 calls)
     newd         :     48.22s CPU     75.90s WALL (     374 calls)
     mix_rho      :      4.52s CPU      4.59s WALL (     356 calls)

     Called by c_bands:
     init_us_2    :      8.50s CPU      9.14s WALL (   19300 calls)
     cegterg      :    581.71s CPU    592.93s WALL (    8900 calls)

     Called by sum_band:
     sum_band:bec :      0.58s CPU      0.59s WALL (    8900 calls)
     addusdens    :     49.81s CPU     79.94s WALL (     356 calls)

     Called by *egterg:
     h_psi        :    230.12s CPU    239.63s WALL (   27703 calls)
     s_psi        :     13.30s CPU     13.43s WALL (   27703 calls)
     g_psi        :      1.02s CPU      1.03s WALL (   18753 calls)
     cdiaghg      :    257.54s CPU    258.69s WALL (   26703 calls)

     Called by h_psi:
     h_psi:calbec :     22.09s CPU     22.67s WALL (   27703 calls)
     vloc_psi     :    190.50s CPU    199.27s WALL (   27703 calls)
     add_vuspsi   :     15.00s CPU     15.14s WALL (   27703 calls)

     General routines
     calbec       :     35.16s CPU     36.01s WALL (   40228 calls)
     fft          :      8.14s CPU      8.35s WALL (    5567 calls)
     ffts         :      2.04s CPU      2.07s WALL (    9738 calls)
     fftw         :    211.50s CPU    221.07s WALL ( 3133162 calls)
     interpolate  :      0.40s CPU      0.41s WALL (     374 calls)
 
     Parallel routines
     fft_scatt_xy :     28.73s CPU     30.03s WALL ( 3148467 calls)
     fft_scatt_yz :    125.18s CPU    130.61s WALL ( 3148467 calls)
 
     PWSCF        :  15m30.21s CPU  16m55.56s WALL

 
   This run was terminated on:  14:35:21  20May2021            

=------------------------------------------------------------------------------=
   JOB DONE.
=------------------------------------------------------------------------------=
