
     Program PWSCF v.6.5 starts on  5May2021 at 18: 7:55 

     This program is part of the open-source Quantum ESPRESSO suite
     for quantum simulation of materials; please cite
         "P. Giannozzi et al., J. Phys.:Condens. Matter 21 395502 (2009);
         "P. Giannozzi et al., J. Phys.:Condens. Matter 29 465901 (2017);
          URL http://www.quantum-espresso.org", 
     in publications or presentations arising from this work. More details at
     http://www.quantum-espresso.org/quote

     Parallel version (MPI), running on    20 processors

     MPI processes distributed on    10 nodes
     R & G space division:  proc/nbgrp/npool/nimage =      20
     Reading input from YBCO_Y_cleave_5.5_sep_scf.pwi
Warning: card &IONS ignored
Warning: card     ION_DYNAMICS = 'BFGS' ignored
Warning: card / ignored
Warning: card &CELL ignored
Warning: card     CELL_DYNAMICS = 'BFGS' ignored
Warning: card / ignored

     Current dimensions of program PWSCF are:
     Max number of different atomic species (ntypx) = 10
     Max number of k-points (npk) =  40000
     Max angular momentum in pseudopotentials (lmaxx) =  3

     Subspace diagonalization in iterative solution of the eigenvalue problem:
     one sub-group per band group will be used
     scalapack distributed-memory algorithm (size of sub-group:  4*  4 procs)

     Message from routine setup:
     using ibrav=0 with symmetry is DISCOURAGED, use correct ibrav instead
 
     Parallelization info
     --------------------
     sticks:   dense  smooth     PW     G-vecs:    dense   smooth      PW
     Min         150      50     14                79982    15388    2400
     Max         151      51     15                80027    15415    2451
     Sum        3015    1011    293              1600081   307933   48527
 


     bravais-lattice index     =            0
     lattice parameter (alat)  =       7.3477  a.u.
     unit-cell volume          =    4904.1944 (a.u.)^3
     number of atoms/cell      =           28
     number of atomic types    =            4
     number of electrons       =       229.00
     number of Kohn-Sham states=          138
     kinetic-energy cutoff     =      60.0000  Ry
     charge density cutoff     =     720.0000  Ry
     convergence threshold     =      1.0E-06
     mixing beta               =       0.2000
     number of iterations used =           10  local-TF  mixing
     Exchange-correlation= SLA PW PBE PBE
                           (   1   4   3   4   0   0   0)

     celldm(1)=   7.347715  celldm(2)=   0.000000  celldm(3)=   0.000000
     celldm(4)=   0.000000  celldm(5)=   0.000000  celldm(6)=   0.000000

     crystal axes: (cart. coord. in units of alat)
               a(1) = (   1.000000   0.000000   0.000000 )  
               a(2) = (   0.000000   0.975577   0.000000 )  
               a(3) = (   0.000000   0.000000  12.672114 )  

     reciprocal axes: (cart. coord. in units 2 pi/alat)
               b(1) = (  1.000000  0.000000  0.000000 )  
               b(2) = (  0.000000  1.025034  0.000000 )  
               b(3) = (  0.000000  0.000000  0.078913 )  


     PseudoPot. # 1 for Ba read from file:
     /n/holyscratch01/hoffman_lab/ruizhe/YBCO_Project/pseudo/Ba.pbe-nsp-van.UPF
     MD5 check sum: 2b9c31dd849566dd297d80989662b7a0
     Pseudo is Ultrasoft + core correction, Zval = 10.0
     Generated by new atomic code, or converted to UPF format
     Using radial grid of  907 points,  6 beta functions with: 
                l(1) =   0
                l(2) =   0
                l(3) =   1
                l(4) =   1
                l(5) =   2
                l(6) =   2
     Q(r) pseudized with  6 coefficients,  rinner =    1.200   1.200   1.200
                                                       1.200   1.200

     PseudoPot. # 2 for Cu read from file:
     /n/holyscratch01/hoffman_lab/ruizhe/YBCO_Project/pseudo/Cu.pbe-n-van_ak.UPF
     MD5 check sum: 34e3282627ffb533726feb647e090d62
     Pseudo is Ultrasoft + core correction, Zval = 11.0
     Generated by new atomic code, or converted to UPF format
     Using radial grid of  867 points,  6 beta functions with: 
                l(1) =   0
                l(2) =   0
                l(3) =   1
                l(4) =   1
                l(5) =   2
                l(6) =   2
     Q(r) pseudized with  8 coefficients,  rinner =    1.400   1.400   1.400
                                                       1.400   1.400

     PseudoPot. # 3 for O  read from file:
     /n/holyscratch01/hoffman_lab/ruizhe/YBCO_Project/pseudo/O.pbe-van_ak.UPF
     MD5 check sum: 783ce7fe4c79b6a4916957118fed0856
     Pseudo is Ultrasoft, Zval =  6.0
     Generated by new atomic code, or converted to UPF format
     Using radial grid of  737 points,  4 beta functions with: 
                l(1) =   0
                l(2) =   0
                l(3) =   1
                l(4) =   1
     Q(r) pseudized with  8 coefficients,  rinner =    0.800   0.800   0.800


     PseudoPot. # 4 for Y  read from file:
     /n/holyscratch01/hoffman_lab/ruizhe/YBCO_Project/pseudo/Y.pbe-nsp-van.UPF
     MD5 check sum: 4412fed3ab108fed87a1b7d6a69a4a38
     Pseudo is Ultrasoft + core correction, Zval = 11.0
     Generated by new atomic code, or converted to UPF format
     Using radial grid of  885 points,  6 beta functions with: 
                l(1) =   0
                l(2) =   0
                l(3) =   1
                l(4) =   1
                l(5) =   2
                l(6) =   2
     Q(r) pseudized with  6 coefficients,  rinner =    1.200   1.200   1.200
                                                       1.200   1.200

     atomic species   valence    mass     pseudopotential
        Ba            10.00   137.32700     Ba( 1.00)
        Cu            11.00    63.54600     Cu( 1.00)
        O              6.00    15.99900     O ( 1.00)
        Y             11.00    88.90584     Y ( 1.00)

      4 Sym. Ops. (no inversion) found



   Cartesian axes

     site n.     atom                  positions (alat units)
         1           O   tau(   1) = (   0.0000000   0.4877884  -0.0257983  )
         2           Cu  tau(   2) = (   0.0000000   0.0000000   0.0215779  )
         3           O   tau(   3) = (   0.0000000   0.0000000   0.5073114  )
         4           Ba  tau(   4) = (   0.4999996   0.4877884   0.5319677  )
         5           Cu  tau(   5) = (   0.0000000   0.0000000   1.0495845  )
         6           O   tau(   6) = (   0.4999996   0.0000000   1.1181579  )
         7           O   tau(   7) = (   0.0000000   0.4877884   1.1273137  )
         8           Y   tau(   8) = (   0.4999996   0.4877884   1.4938777  )
         9           O   tau(   9) = (   0.0000000   0.4877884   1.8497402  )
        10           O   tau(  10) = (   0.4999996   0.0000000   1.8692709  )
        11           Cu  tau(  11) = (   0.0000000   0.0000000   1.9417560  )
        12           Ba  tau(  12) = (   0.4999996   0.4877884   2.4526063  )
        13           O   tau(  13) = (   0.0000000   0.0000000   2.5103470  )
        14           O   tau(  14) = (   0.0000000   0.4877884   2.9968469  )
        15           Cu  tau(  15) = (   0.0000000   0.0000000   2.9968521  )
        16           O   tau(  16) = (   0.0000000   0.0000000   3.4833288  )
        17           Ba  tau(  17) = (   0.4999996   0.4877884   3.5410618  )
        18           Cu  tau(  18) = (   0.0000000   0.0000000   4.0519352  )
        19           O   tau(  19) = (   0.4999996   0.0000000   4.1244075  )
        20           O   tau(  20) = (   0.0000000   0.4877884   4.1439202  )
        21           Y   tau(  21) = (   0.4999996   0.4877884   4.4997853  )
        22           O   tau(  22) = (   0.0000000   0.4877884   6.2808698  )
        23           O   tau(  23) = (   0.4999996   0.0000000   6.2900384  )
        24           Cu  tau(  24) = (   0.0000000   0.0000000   6.3586170  )
        25           Ba  tau(  25) = (   0.4999996   0.4877884   6.8762183  )
        26           O   tau(  26) = (   0.0000000   0.0000000   6.9008747  )
        27           Cu  tau(  27) = (   0.0000000   0.0000000   7.3865799  )
        28           O   tau(  28) = (   0.0000000   0.4877884   7.4339612  )

     number of k points=    25  Gaussian smearing, width (Ry)=  0.0100
                       cart. coord. in units 2pi/alat
        k(    1) = (   0.0000000   0.0000000   0.0000000), wk =   0.0312500
        k(    2) = (   0.0000000   0.1281293   0.0000000), wk =   0.0625000
        k(    3) = (   0.0000000   0.2562585   0.0000000), wk =   0.0625000
        k(    4) = (   0.0000000   0.3843878   0.0000000), wk =   0.0625000
        k(    5) = (   0.0000000  -0.5125170   0.0000000), wk =   0.0312500
        k(    6) = (   0.1250000   0.0000000   0.0000000), wk =   0.0625000
        k(    7) = (   0.1250000   0.1281293   0.0000000), wk =   0.1250000
        k(    8) = (   0.1250000   0.2562585   0.0000000), wk =   0.1250000
        k(    9) = (   0.1250000   0.3843878   0.0000000), wk =   0.1250000
        k(   10) = (   0.1250000  -0.5125170   0.0000000), wk =   0.0625000
        k(   11) = (   0.2500000   0.0000000   0.0000000), wk =   0.0625000
        k(   12) = (   0.2500000   0.1281293   0.0000000), wk =   0.1250000
        k(   13) = (   0.2500000   0.2562585   0.0000000), wk =   0.1250000
        k(   14) = (   0.2500000   0.3843878   0.0000000), wk =   0.1250000
        k(   15) = (   0.2500000  -0.5125170   0.0000000), wk =   0.0625000
        k(   16) = (   0.3750000   0.0000000   0.0000000), wk =   0.0625000
        k(   17) = (   0.3750000   0.1281293   0.0000000), wk =   0.1250000
        k(   18) = (   0.3750000   0.2562585   0.0000000), wk =   0.1250000
        k(   19) = (   0.3750000   0.3843878   0.0000000), wk =   0.1250000
        k(   20) = (   0.3750000  -0.5125170   0.0000000), wk =   0.0625000
        k(   21) = (  -0.5000000   0.0000000   0.0000000), wk =   0.0312500
        k(   22) = (  -0.5000000   0.1281293   0.0000000), wk =   0.0625000
        k(   23) = (  -0.5000000   0.2562585   0.0000000), wk =   0.0625000
        k(   24) = (  -0.5000000   0.3843878   0.0000000), wk =   0.0625000
        k(   25) = (  -0.5000000  -0.5125170   0.0000000), wk =   0.0312500

     Dense  grid:  1600081 G-vectors     FFT dimensions: (  64,  64, 800)

     Smooth grid:   307933 G-vectors     FFT dimensions: (  40,  36, 480)

     Estimated max dynamical RAM per process >     509.90 MB

     Estimated total dynamical RAM >       9.96 GB

     Initial potential from superposition of free atoms

     starting charge  228.84827, renormalised to  229.00000

     negative rho (up, down):  8.971E-02 0.000E+00
     Starting wfcs are  201 randomized atomic wfcs

     total cpu time spent up to now is       11.2 secs

     Self-consistent Calculation

     iteration #  1     ecut=    60.00 Ry     beta= 0.20
     Davidson diagonalization with overlap
     ethr =  1.00E-02,  avg # of iterations =  2.0

     negative rho (up, down):  8.739E-02 0.000E+00

     total cpu time spent up to now is       28.1 secs

     total energy              =   -1869.45918023 Ry
     Harris-Foulkes estimate   =   -1871.04119799 Ry
     estimated scf accuracy    <      14.72122303 Ry

     iteration #  2     ecut=    60.00 Ry     beta= 0.20
     Davidson diagonalization with overlap
     ethr =  6.43E-03,  avg # of iterations =  1.0

     negative rho (up, down):  8.612E-02 0.000E+00

     total cpu time spent up to now is       43.5 secs

     total energy              =   -1869.05732062 Ry
     Harris-Foulkes estimate   =   -1869.79935829 Ry
     estimated scf accuracy    <       9.27659460 Ry

     iteration #  3     ecut=    60.00 Ry     beta= 0.20
     Davidson diagonalization with overlap
     ethr =  4.05E-03,  avg # of iterations =  1.0

     negative rho (up, down):  8.516E-02 0.000E+00

     total cpu time spent up to now is       58.7 secs

     total energy              =   -1868.52004585 Ry
     Harris-Foulkes estimate   =   -1869.21037579 Ry
     estimated scf accuracy    <       5.28551449 Ry

     iteration #  4     ecut=    60.00 Ry     beta= 0.20
     Davidson diagonalization with overlap
     ethr =  2.31E-03,  avg # of iterations =  1.0

     negative rho (up, down):  8.496E-02 0.000E+00

     total cpu time spent up to now is       73.9 secs

     total energy              =   -1868.84582022 Ry
     Harris-Foulkes estimate   =   -1868.80602107 Ry
     estimated scf accuracy    <      10.63839572 Ry

     iteration #  5     ecut=    60.00 Ry     beta= 0.20
     Davidson diagonalization with overlap
     ethr =  2.31E-03,  avg # of iterations =  1.0

     negative rho (up, down):  8.549E-02 0.000E+00

     total cpu time spent up to now is       89.3 secs

     total energy              =   -1868.42576214 Ry
     Harris-Foulkes estimate   =   -1868.87549494 Ry
     estimated scf accuracy    <      17.71687346 Ry

     iteration #  6     ecut=    60.00 Ry     beta= 0.20
     Davidson diagonalization with overlap
     ethr =  2.31E-03,  avg # of iterations =  1.0

     negative rho (up, down):  8.583E-02 0.000E+00

     total cpu time spent up to now is      104.4 secs

     total energy              =   -1868.51306341 Ry
     Harris-Foulkes estimate   =   -1868.65313430 Ry
     estimated scf accuracy    <       2.54751290 Ry

     iteration #  7     ecut=    60.00 Ry     beta= 0.20
     Davidson diagonalization with overlap
     ethr =  1.11E-03,  avg # of iterations =  2.3

     negative rho (up, down):  8.652E-02 0.000E+00

     total cpu time spent up to now is      121.0 secs

     total energy              =   -1868.36626123 Ry
     Harris-Foulkes estimate   =   -1868.54505729 Ry
     estimated scf accuracy    <       1.79244123 Ry

     iteration #  8     ecut=    60.00 Ry     beta= 0.20
     Davidson diagonalization with overlap
     ethr =  7.83E-04,  avg # of iterations =  5.7

     negative rho (up, down):  8.826E-02 0.000E+00

     total cpu time spent up to now is      142.2 secs

     total energy              =   -1868.43645345 Ry
     Harris-Foulkes estimate   =   -1868.49375717 Ry
     estimated scf accuracy    <       6.46620200 Ry

     iteration #  9     ecut=    60.00 Ry     beta= 0.20
     Davidson diagonalization with overlap
     ethr =  7.83E-04,  avg # of iterations =  3.4

     negative rho (up, down):  8.758E-02 0.000E+00

     total cpu time spent up to now is      160.5 secs

     total energy              =   -1868.33511451 Ry
     Harris-Foulkes estimate   =   -1868.53459845 Ry
     estimated scf accuracy    <      16.88412086 Ry

     iteration # 10     ecut=    60.00 Ry     beta= 0.20
     Davidson diagonalization with overlap
     ethr =  7.83E-04,  avg # of iterations =  1.1

     negative rho (up, down):  8.884E-02 0.000E+00

     total cpu time spent up to now is      175.8 secs

     total energy              =   -1868.38165175 Ry
     Harris-Foulkes estimate   =   -1868.42613578 Ry
     estimated scf accuracy    <       2.30944339 Ry

     iteration # 11     ecut=    60.00 Ry     beta= 0.20
     Davidson diagonalization with overlap
     ethr =  7.83E-04,  avg # of iterations =  1.0

     negative rho (up, down):  8.891E-02 0.000E+00

     total cpu time spent up to now is      191.1 secs

     total energy              =   -1868.39790704 Ry
     Harris-Foulkes estimate   =   -1868.40196741 Ry
     estimated scf accuracy    <       0.20543080 Ry

     iteration # 12     ecut=    60.00 Ry     beta= 0.20
     Davidson diagonalization with overlap
     ethr =  8.97E-05,  avg # of iterations =  4.0

     negative rho (up, down):  8.926E-02 0.000E+00

     total cpu time spent up to now is      210.2 secs

     total energy              =   -1868.39737570 Ry
     Harris-Foulkes estimate   =   -1868.40072322 Ry
     estimated scf accuracy    <       0.20800733 Ry

     iteration # 13     ecut=    60.00 Ry     beta= 0.20
     Davidson diagonalization with overlap
     ethr =  8.97E-05,  avg # of iterations =  1.0

     negative rho (up, down):  8.914E-02 0.000E+00

     total cpu time spent up to now is      225.3 secs

     total energy              =   -1868.39201798 Ry
     Harris-Foulkes estimate   =   -1868.39903309 Ry
     estimated scf accuracy    <       0.18092873 Ry

     iteration # 14     ecut=    60.00 Ry     beta= 0.20
     Davidson diagonalization with overlap
     ethr =  7.90E-05,  avg # of iterations =  1.8

     negative rho (up, down):  8.961E-02 0.000E+00

     total cpu time spent up to now is      241.5 secs

     total energy              =   -1868.38856073 Ry
     Harris-Foulkes estimate   =   -1868.39495024 Ry
     estimated scf accuracy    <       0.09884673 Ry

     iteration # 15     ecut=    60.00 Ry     beta= 0.20
     Davidson diagonalization with overlap
     ethr =  4.32E-05,  avg # of iterations =  6.8

     negative rho (up, down):  8.912E-02 0.000E+00

     total cpu time spent up to now is      263.8 secs

     total energy              =   -1868.39117078 Ry
     Harris-Foulkes estimate   =   -1868.39163642 Ry
     estimated scf accuracy    <       0.08857638 Ry

     iteration # 16     ecut=    60.00 Ry     beta= 0.20
     Davidson diagonalization with overlap
     ethr =  3.87E-05,  avg # of iterations =  1.7

     negative rho (up, down):  8.941E-02 0.000E+00

     total cpu time spent up to now is      279.5 secs

     total energy              =   -1868.38528045 Ry
     Harris-Foulkes estimate   =   -1868.39366102 Ry
     estimated scf accuracy    <       0.06354977 Ry

     iteration # 17     ecut=    60.00 Ry     beta= 0.20
     Davidson diagonalization with overlap
     ethr =  2.78E-05,  avg # of iterations =  3.5

     negative rho (up, down):  8.916E-02 0.000E+00

     total cpu time spent up to now is      297.6 secs

     total energy              =   -1868.38927807 Ry
     Harris-Foulkes estimate   =   -1868.39291782 Ry
     estimated scf accuracy    <       0.31880296 Ry

     iteration # 18     ecut=    60.00 Ry     beta= 0.20
     Davidson diagonalization with overlap
     ethr =  2.78E-05,  avg # of iterations =  1.0

     negative rho (up, down):  8.887E-02 0.000E+00

     total cpu time spent up to now is      312.7 secs

     total energy              =   -1868.38955482 Ry
     Harris-Foulkes estimate   =   -1868.39065650 Ry
     estimated scf accuracy    <       0.06779934 Ry

     iteration # 19     ecut=    60.00 Ry     beta= 0.20
     Davidson diagonalization with overlap
     ethr =  2.78E-05,  avg # of iterations =  1.0

     negative rho (up, down):  8.895E-02 0.000E+00

     total cpu time spent up to now is      327.9 secs

     total energy              =   -1868.38908740 Ry
     Harris-Foulkes estimate   =   -1868.38976431 Ry
     estimated scf accuracy    <       0.05869111 Ry

     iteration # 20     ecut=    60.00 Ry     beta= 0.20
     Davidson diagonalization with overlap
     ethr =  2.56E-05,  avg # of iterations =  1.2

     negative rho (up, down):  8.951E-02 0.000E+00

     total cpu time spent up to now is      343.3 secs

     total energy              =   -1868.38780875 Ry
     Harris-Foulkes estimate   =   -1868.38915351 Ry
     estimated scf accuracy    <       0.05162260 Ry

     iteration # 21     ecut=    60.00 Ry     beta= 0.20
     Davidson diagonalization with overlap
     ethr =  2.25E-05,  avg # of iterations =  1.0

     negative rho (up, down):  9.047E-02 0.000E+00

     total cpu time spent up to now is      358.3 secs

     total energy              =   -1868.38785569 Ry
     Harris-Foulkes estimate   =   -1868.38812898 Ry
     estimated scf accuracy    <       0.01598247 Ry

     iteration # 22     ecut=    60.00 Ry     beta= 0.20
     Davidson diagonalization with overlap
     c_bands:  1 eigenvalues not converged
     ethr =  6.98E-06,  avg # of iterations =  3.1

     negative rho (up, down):  9.746E-02 0.000E+00

     total cpu time spent up to now is      375.9 secs

     total energy              =   -1868.38725926 Ry
     Harris-Foulkes estimate   =   -1868.38791412 Ry
     estimated scf accuracy    <       0.00953610 Ry

     iteration # 23     ecut=    60.00 Ry     beta= 0.20
     Davidson diagonalization with overlap
     ethr =  4.16E-06,  avg # of iterations =  6.1

     negative rho (up, down):  1.009E-01 0.000E+00

     total cpu time spent up to now is      397.5 secs

     total energy              =   -1868.38639120 Ry
     Harris-Foulkes estimate   =   -1868.38736117 Ry
     estimated scf accuracy    <       0.00390084 Ry

     iteration # 24     ecut=    60.00 Ry     beta= 0.20
     Davidson diagonalization with overlap
     ethr =  1.70E-06,  avg # of iterations =  8.6

     negative rho (up, down):  1.015E-01 0.000E+00

     total cpu time spent up to now is      422.6 secs

     total energy              =   -1868.38624306 Ry
     Harris-Foulkes estimate   =   -1868.38659034 Ry
     estimated scf accuracy    <       0.00484770 Ry

     iteration # 25     ecut=    60.00 Ry     beta= 0.20
     Davidson diagonalization with overlap
     ethr =  1.70E-06,  avg # of iterations =  5.1

     negative rho (up, down):  1.002E-01 0.000E+00

     total cpu time spent up to now is      442.5 secs

     total energy              =   -1868.38617783 Ry
     Harris-Foulkes estimate   =   -1868.38631915 Ry
     estimated scf accuracy    <       0.00146599 Ry

     iteration # 26     ecut=    60.00 Ry     beta= 0.20
     Davidson diagonalization with overlap
     ethr =  6.40E-07,  avg # of iterations =  5.7

     negative rho (up, down):  9.500E-02 0.000E+00

     total cpu time spent up to now is      463.4 secs

     total energy              =   -1868.38601502 Ry
     Harris-Foulkes estimate   =   -1868.38620996 Ry
     estimated scf accuracy    <       0.00157347 Ry

     iteration # 27     ecut=    60.00 Ry     beta= 0.20
     Davidson diagonalization with overlap
     c_bands:  1 eigenvalues not converged
     c_bands:  1 eigenvalues not converged
     ethr =  6.40E-07,  avg # of iterations =  5.3

     negative rho (up, down):  9.137E-02 0.000E+00

     total cpu time spent up to now is      483.6 secs

     total energy              =   -1868.38595406 Ry
     Harris-Foulkes estimate   =   -1868.38603646 Ry
     estimated scf accuracy    <       0.00084880 Ry

     iteration # 28     ecut=    60.00 Ry     beta= 0.20
     Davidson diagonalization with overlap
     c_bands:  1 eigenvalues not converged
     c_bands:  1 eigenvalues not converged
     ethr =  3.71E-07,  avg # of iterations =  5.8

     negative rho (up, down):  9.016E-02 0.000E+00

     total cpu time spent up to now is      505.0 secs

     total energy              =   -1868.38598173 Ry
     Harris-Foulkes estimate   =   -1868.38596163 Ry
     estimated scf accuracy    <       0.00089141 Ry

     iteration # 29     ecut=    60.00 Ry     beta= 0.20
     Davidson diagonalization with overlap
     ethr =  3.71E-07,  avg # of iterations =  3.3

     negative rho (up, down):  9.028E-02 0.000E+00

     total cpu time spent up to now is      522.6 secs

     total energy              =   -1868.38598049 Ry
     Harris-Foulkes estimate   =   -1868.38598615 Ry
     estimated scf accuracy    <       0.00072945 Ry

     iteration # 30     ecut=    60.00 Ry     beta= 0.20
     Davidson diagonalization with overlap
     ethr =  3.19E-07,  avg # of iterations =  1.0

     negative rho (up, down):  8.940E-02 0.000E+00

     total cpu time spent up to now is      537.6 secs

     total energy              =   -1868.38600469 Ry
     Harris-Foulkes estimate   =   -1868.38598104 Ry
     estimated scf accuracy    <       0.00076394 Ry

     iteration # 31     ecut=    60.00 Ry     beta= 0.20
     Davidson diagonalization with overlap
     ethr =  3.19E-07,  avg # of iterations =  4.1

     negative rho (up, down):  9.023E-02 0.000E+00

     total cpu time spent up to now is      556.5 secs

     total energy              =   -1868.38601433 Ry
     Harris-Foulkes estimate   =   -1868.38601609 Ry
     estimated scf accuracy    <       0.00019689 Ry

     iteration # 32     ecut=    60.00 Ry     beta= 0.20
     Davidson diagonalization with overlap
     ethr =  8.60E-08,  avg # of iterations =  2.0

     negative rho (up, down):  8.978E-02 0.000E+00

     total cpu time spent up to now is      572.8 secs

     total energy              =   -1868.38601775 Ry
     Harris-Foulkes estimate   =   -1868.38602010 Ry
     estimated scf accuracy    <       0.00006125 Ry

     iteration # 33     ecut=    60.00 Ry     beta= 0.20
     Davidson diagonalization with overlap
     ethr =  2.67E-08,  avg # of iterations =  3.2

     negative rho (up, down):  9.010E-02 0.000E+00

     total cpu time spent up to now is      590.6 secs

     total energy              =   -1868.38602230 Ry
     Harris-Foulkes estimate   =   -1868.38602078 Ry
     estimated scf accuracy    <       0.00002247 Ry

     iteration # 34     ecut=    60.00 Ry     beta= 0.20
     Davidson diagonalization with overlap
     ethr =  9.81E-09,  avg # of iterations =  1.8

     negative rho (up, down):  8.994E-02 0.000E+00

     total cpu time spent up to now is      606.6 secs

     total energy              =   -1868.38602309 Ry
     Harris-Foulkes estimate   =   -1868.38602319 Ry
     estimated scf accuracy    <       0.00001111 Ry

     iteration # 35     ecut=    60.00 Ry     beta= 0.20
     Davidson diagonalization with overlap
     ethr =  4.85E-09,  avg # of iterations =  1.2

     negative rho (up, down):  9.009E-02 0.000E+00

     total cpu time spent up to now is      622.0 secs

     total energy              =   -1868.38602248 Ry
     Harris-Foulkes estimate   =   -1868.38602341 Ry
     estimated scf accuracy    <       0.00000680 Ry

     iteration # 36     ecut=    60.00 Ry     beta= 0.20
     Davidson diagonalization with overlap
     ethr =  2.97E-09,  avg # of iterations =  2.0

     negative rho (up, down):  9.006E-02 0.000E+00

     total cpu time spent up to now is      638.5 secs

     total energy              =   -1868.38602238 Ry
     Harris-Foulkes estimate   =   -1868.38602284 Ry
     estimated scf accuracy    <       0.00000480 Ry

     iteration # 37     ecut=    60.00 Ry     beta= 0.20
     Davidson diagonalization with overlap
     ethr =  2.10E-09,  avg # of iterations =  2.0

     negative rho (up, down):  8.995E-02 0.000E+00

     total cpu time spent up to now is      655.0 secs

     total energy              =   -1868.38602238 Ry
     Harris-Foulkes estimate   =   -1868.38602260 Ry
     estimated scf accuracy    <       0.00000117 Ry

     iteration # 38     ecut=    60.00 Ry     beta= 0.20
     Davidson diagonalization with overlap
     ethr =  5.11E-10,  avg # of iterations =  2.1

     negative rho (up, down):  8.999E-02 0.000E+00

     total cpu time spent up to now is      671.1 secs

     End of self-consistent calculation

          k = 0.0000 0.0000 0.0000 ( 38411 PWs)   bands (ev):

   -41.5122 -38.6900 -23.6117 -23.3444 -23.2017 -22.9407 -21.6545 -21.3855
   -21.3792 -19.2248 -18.6947 -18.6848 -16.7030 -16.0199 -15.7771 -15.1610
   -15.0594 -14.8577 -14.8290 -14.8054 -14.7135 -14.5438 -14.3271 -14.2498
   -14.2153 -14.0336 -13.5495  -8.9238  -8.5656  -8.5468  -8.5365  -8.4735
    -8.3369  -8.3101  -8.1556  -8.1369  -8.0664  -7.9692  -7.9340  -3.4826
    -3.4586  -3.0062  -2.6487  -2.6155  -2.5890  -2.4675  -2.4279  -2.3799
    -2.3611  -2.2837  -2.0614  -1.4542  -1.4207  -1.3798  -1.3516  -1.2105
    -1.1047  -1.0265  -0.9812  -0.9556  -0.9379  -0.7512  -0.6747  -0.6379
    -0.6013  -0.5475  -0.5214  -0.5097  -0.4482  -0.4365  -0.4265  -0.4196
    -0.4084  -0.3423  -0.2852  -0.2781  -0.1715  -0.1662  -0.1270  -0.0658
    -0.0363  -0.0254  -0.0234   0.0062   0.0216   0.0568   0.0888   0.0932
     0.1126   0.2281   0.2455   0.3769   0.5151   0.5342   0.6633   0.7203
     0.7587   0.7989   0.8137   0.8794   0.9199   0.9348   1.0203   1.1363
     1.3558   1.3680   1.4173   1.4213   1.5256   1.5435   1.6158   1.6867
     1.7147   1.8073   1.8201   1.8387   2.1027   2.1290   2.1769   2.2218
     3.5374   4.6397   4.7063   4.8830   5.1183   5.3885   5.4625   6.0889
     6.1120   6.1266   6.3285   6.3811   6.4821   6.7520   7.0944   7.5836
     7.6082   7.6529

          k = 0.0000 0.1281 0.0000 ( 38395 PWs)   bands (ev):

   -41.5105 -38.6877 -23.5910 -23.3229 -23.1809 -22.9186 -21.6473 -21.4185
   -21.3832 -19.1888 -18.7891 -18.6915 -16.6534 -15.9113 -15.7946 -15.1180
   -15.0668 -14.8584 -14.8381 -14.7748 -14.6701 -14.5902 -14.3324 -14.2742
   -14.2520 -14.0977 -13.5799  -8.9125  -8.5584  -8.5479  -8.5088  -8.4602
    -8.3296  -8.2957  -8.1569  -8.1167  -8.0499  -7.9545  -7.9265  -3.5902
    -3.4350  -2.9155  -2.7521  -2.7384  -2.5994  -2.5689  -2.4293  -2.4162
    -2.2888  -2.2682  -2.0704  -1.9156  -1.7161  -1.5464  -1.4947  -1.4776
    -1.3913  -1.2871  -1.2017  -1.1899  -1.0045  -0.9996  -0.9859  -0.8957
    -0.7670  -0.7477  -0.6895  -0.6707  -0.6073  -0.5830  -0.5026  -0.4189
    -0.3180  -0.2928  -0.2739  -0.2335  -0.2300  -0.1293  -0.1241  -0.1013
    -0.0435  -0.0232  -0.0138   0.0374   0.0546   0.0688   0.0860   0.2797
     0.3484   0.3552   0.3759   0.4372   0.4750   0.5214   0.6105   0.6738
     0.8794   0.9127   0.9513   1.0453   1.0555   1.1279   1.1286   1.1695
     1.2461   1.3664   1.3935   1.3947   1.4659   1.5129   1.6267   1.6778
     1.7261   1.7761   1.9640   2.1377   2.1504   2.3550   2.4405   2.5822
     3.6377   4.6462   5.0808   5.2229   5.2254   5.3097   5.6153   6.1274
     6.1630   6.4318   6.6014   6.7545   6.7885   7.0023   7.3082   7.5478
     7.7783   7.8659

          k = 0.0000 0.2563 0.0000 ( 38414 PWs)   bands (ev):

   -41.5063 -38.6821 -23.5401 -23.2698 -23.1297 -22.8642 -21.6356 -21.5049
   -21.3775 -19.0978 -19.0141 -18.6838 -16.5195 -15.8566 -15.6636 -15.1438
   -15.0025 -14.9132 -14.8947 -14.7084 -14.6568 -14.5231 -14.4153 -14.3096
   -14.2510 -14.2248 -13.6712  -8.8837  -8.6003  -8.5073  -8.4304  -8.4140
    -8.3706  -8.2006  -8.1925  -8.0195  -8.0103  -7.9971  -7.8195  -3.8540
    -3.2908  -3.1830  -3.0657  -2.9345  -2.7274  -2.6090  -2.5785  -2.5294
    -2.4580  -2.3188  -2.3076  -2.2370  -2.2189  -2.2154  -2.0459  -1.7858
    -1.7406  -1.4652  -1.3955  -1.3731  -1.3237  -1.2864  -1.1772  -1.1585
    -1.1398  -1.0533  -0.9673  -0.9178  -0.8608  -0.8314  -0.6534  -0.6177
    -0.5798  -0.5657  -0.4654  -0.4136  -0.3061  -0.2508  -0.2072  -0.1277
    -0.0798   0.0124   0.0297   0.0476   0.0489   0.1292   0.2024   0.3058
     0.5711   0.5825   0.6187   0.7459   0.7862   0.7981   0.8170   0.9421
     0.9446   0.9918   1.0502   1.0802   1.1122   1.1836   1.1839   1.2684
     1.2887   1.3544   1.4473   1.4524   1.5801   1.6433   1.6948   1.7534
     1.8023   2.0746   2.1100   2.1675   2.2092   2.7173   2.9015   3.2228
     3.7911   4.5708   4.9308   5.9498   5.9784   6.0914   6.2261   6.2698
     6.3127   7.1970   7.2887   7.4178   7.4654   7.5942   7.6134   7.8110
     8.0670   8.2280

          k = 0.0000 0.3844 0.0000 ( 38324 PWs)   bands (ev):

   -41.5021 -38.6765 -23.4878 -23.2153 -23.0772 -22.8083 -21.6568 -21.5551
   -21.3718 -19.2119 -18.9996 -18.6760 -16.3377 -15.9747 -15.4146 -15.2860
   -15.0114 -15.0022 -14.8614 -14.6774 -14.6587 -14.5562 -14.3991 -14.3043
   -14.2506 -14.1588 -13.8249  -8.8506  -8.6381  -8.4672  -8.4040  -8.3966
    -8.3145  -8.2410  -8.0834  -8.0352  -7.9666  -7.9173  -7.7061  -4.1001
    -3.6406  -3.5333  -3.3115  -3.1345  -3.1262  -3.0471  -2.8345  -2.7144
    -2.6203  -2.4865  -2.4215  -2.2929  -2.2601  -2.2512  -2.1207  -2.0506
    -1.9769  -1.7484  -1.6117  -1.5937  -1.4249  -1.4117  -1.4086  -1.3386
    -1.2931  -1.2884  -1.1592  -1.1485  -1.0619  -0.9930  -0.8613  -0.8330
    -0.8146  -0.7772  -0.6714  -0.6090  -0.5243  -0.4316  -0.1344  -0.0436
     0.0064   0.0237   0.0266   0.0326   0.0539   0.1626   0.3890   0.4953
     0.5220   0.6000   0.6734   0.7346   0.8011   0.8222   0.8949   1.0154
     1.0458   1.0790   1.1363   1.2063   1.2746   1.2795   1.3327   1.3850
     1.4145   1.5528   1.5573   1.6638   1.6688   1.8168   1.8820   2.0557
     2.1023   2.1379   2.1839   2.2201   2.4330   2.6888   2.8885   3.7729
     3.8257   4.6522   4.7011   6.3419   6.4655   6.7252   6.8738   7.0682
     7.0789   7.3053   7.3159   7.8527   8.0823   8.2260   8.2837   8.3417
     8.4124   8.4696

          k = 0.0000-0.5125 0.0000 ( 38474 PWs)   bands (ev):

   -41.5003 -38.6742 -23.4658 -23.1922 -23.0550 -22.7846 -21.6824 -21.5582
   -21.3695 -19.2879 -18.9564 -18.6728 -16.1708 -16.1177 -15.3669 -15.2831
   -15.0681 -15.0593 -14.7801 -14.6856 -14.6630 -14.6139 -14.4546 -14.2193
   -14.1669 -14.0325 -14.0255  -8.8344  -8.6544  -8.4511  -8.4153  -8.3799
    -8.2717  -8.2588  -8.0484  -8.0364  -7.9488  -7.8733  -7.6570  -4.2028
    -3.8742  -3.6836  -3.4463  -3.3665  -3.3633  -3.0132  -2.7367  -2.7100
    -2.6935  -2.6540  -2.5212  -2.4601  -2.3509  -2.1397  -2.1053  -2.0505
    -1.9345  -1.8751  -1.7019  -1.6702  -1.5974  -1.5602  -1.4479  -1.4006
    -1.3912  -1.2634  -1.1784  -1.1701  -1.1152  -1.0865  -0.9484  -0.9226
    -0.8908  -0.8846  -0.8417  -0.6630  -0.6300  -0.4205  -0.0633  -0.0387
    -0.0210   0.0169   0.0199   0.0599   0.0609   0.1722   0.4772   0.5776
     0.5821   0.5991   0.6105   0.7217   0.8038   0.8232   0.9637   0.9686
     1.0203   1.0688   1.1858   1.2306   1.2370   1.3039   1.3276   1.4650
     1.4851   1.5688   1.7148   1.9028   1.9629   1.9664   1.9822   2.0128
     2.0542   2.2029   2.2647   2.3310   2.5490   2.5935   2.7711   3.7731
     3.9739   4.6169   4.7389   6.3679   6.6263   6.9242   7.1954   7.2627
     7.3583   7.4702   7.5279   7.7458   8.2371   8.3785   8.4356   8.6288
     8.6391   8.7646

          k = 0.1250 0.0000 0.0000 ( 38388 PWs)   bands (ev):

   -41.5109 -38.6882 -23.5942 -23.3260 -23.1840 -22.9217 -21.6485 -21.4210
   -21.3774 -19.1923 -18.7948 -18.6823 -16.6537 -15.9044 -15.7934 -15.1882
   -15.0871 -14.8854 -14.8769 -14.7835 -14.6905 -14.5729 -14.3276 -14.2689
   -14.2480 -14.0627 -13.5795  -8.9462  -8.5768  -8.5452  -8.5052  -8.4566
    -8.3019  -8.2758  -8.1179  -8.1047  -8.0824  -7.9294  -7.8983  -3.5836
    -3.4154  -2.9245  -2.7404  -2.6699  -2.5661  -2.5390  -2.4134  -2.4113
    -2.3504  -2.3067  -2.0853  -1.5524  -1.4773  -1.4292  -1.4182  -1.3341
    -1.2852  -1.1395  -1.0211  -1.0196  -0.9757  -0.9113  -0.8584  -0.7229
    -0.7149  -0.7113  -0.6252  -0.6196  -0.6130  -0.5081  -0.4296  -0.4238
    -0.3832  -0.3284  -0.2552  -0.2388  -0.1616  -0.1169  -0.1003  -0.0928
    -0.0571  -0.0348  -0.0235  -0.0035  -0.0017   0.0877   0.1060   0.1618
     0.1662   0.2510   0.4048   0.4172   0.4696   0.4704   0.5843   0.6776
     0.6818   0.7404   0.8417   0.8858   0.9677   1.0954   1.1125   1.1582
     1.2889   1.4121   1.4516   1.5002   1.5119   1.5626   1.6574   1.7147
     1.7299   1.7504   1.7766   1.8884   2.1454   2.1538   2.1755   2.3453
     3.6302   4.5631   4.9020   5.0430   5.2795   5.3119   5.6173   5.9152
     6.1786   6.3513   6.5587   6.6941   6.7334   6.9653   7.3091   7.5888
     7.7640   7.8519

          k = 0.1250 0.1281 0.0000 ( 38416 PWs)   bands (ev):

   -41.5092 -38.6859 -23.5741 -23.3052 -23.1639 -22.9004 -21.6415 -21.4226
   -21.4123 -19.1568 -18.7985 -18.7774 -16.6056 -15.8071 -15.7967 -15.1418
   -15.0847 -14.8880 -14.8734 -14.7557 -14.6371 -14.6266 -14.3270 -14.3114
   -14.2449 -14.1153 -13.6064  -8.9315  -8.6786  -8.5623  -8.4801  -8.4494
    -8.3708  -8.2716  -8.1520  -8.1071  -8.0348  -7.9825  -7.7794  -3.7093
    -3.3848  -2.8680  -2.8358  -2.7859  -2.5985  -2.5572  -2.4469  -2.4444
    -2.3978  -2.2278  -2.0659  -1.9278  -1.6993  -1.6833  -1.5405  -1.5383
    -1.5184  -1.4874  -1.3561  -1.3364  -1.1852  -1.0380  -1.0136  -1.0075
    -0.8984  -0.7922  -0.7700  -0.6837  -0.6331  -0.6118  -0.4940  -0.4063
    -0.3690  -0.2922  -0.2836  -0.2526  -0.1836  -0.1754  -0.1251  -0.1159
    -0.0742  -0.0573  -0.0298   0.0058   0.0294   0.0760   0.0957   0.2789
     0.3273   0.4076   0.4210   0.5185   0.5755   0.6380   0.6815   0.6908
     0.7139   0.8937   0.9428   0.9740   0.9847   1.1582   1.1667   1.2749
     1.3254   1.3444   1.3490   1.4603   1.4627   1.6707   1.7664   1.7891
     1.8339   1.8529   1.9232   2.1300   2.3763   2.4535   2.5447   2.5922
     3.7157   4.5858   5.0948   5.2284   5.3521   5.4635   5.7646   6.0115
     6.1809   6.6612   6.8700   6.9710   7.0017   7.1890   7.4420   7.5414
     7.9351   8.0409

          k = 0.1250 0.2563 0.0000 ( 38472 PWs)   bands (ev):

   -41.5050 -38.6803 -23.5249 -23.2540 -23.1144 -22.8480 -21.6306 -21.5035
   -21.4108 -19.0670 -19.0096 -18.7792 -16.4762 -15.8588 -15.5516 -15.1288
   -15.0186 -14.9215 -14.8962 -14.7133 -14.6913 -14.4855 -14.4171 -14.3009
   -14.2464 -14.2156 -13.6878  -8.8971  -8.7876  -8.5734  -8.5075  -8.4504
    -8.3873  -8.3246  -8.1969  -8.1080  -8.0137  -7.9451  -7.7349  -3.9762
    -3.3041  -3.2827  -3.0849  -2.9272  -2.6668  -2.6182  -2.5982  -2.5396
    -2.4933  -2.4113  -2.3165  -2.3018  -2.2340  -2.2188  -2.1585  -1.9838
    -1.8068  -1.5286  -1.4895  -1.4422  -1.3815  -1.3721  -1.3582  -1.2814
    -1.1579  -1.1210  -0.9880  -0.8554  -0.8432  -0.7767  -0.7633  -0.6592
    -0.6154  -0.5178  -0.4327  -0.3707  -0.3237  -0.1815  -0.1312  -0.0943
    -0.0841  -0.0650   0.0127   0.0441   0.0625   0.1858   0.2584   0.3748
     0.4182   0.6386   0.6964   0.7576   0.8413   0.8704   0.9013   0.9233
     0.9334   1.0428   1.0886   1.1086   1.1449   1.1614   1.1830   1.2772
     1.3029   1.5061   1.5656   1.6374   1.6651   1.7012   1.7452   1.8875
     1.9702   2.1514   2.1712   2.3986   2.6892   2.7220   2.9383   3.2208
     3.8815   4.5251   4.8070   5.9512   6.0318   6.1491   6.1861   6.2851
     6.3300   7.2670   7.4133   7.4879   7.6603   7.7574   7.7671   7.8913
     8.1245   8.2212

          k = 0.1250 0.3844 0.0000 ( 38457 PWs)   bands (ev):

   -41.5008 -38.6747 -23.4743 -23.2015 -23.0636 -22.7942 -21.6531 -21.5528
   -21.4042 -19.2059 -18.9702 -18.7693 -16.3016 -15.9633 -15.3128 -15.2410
   -14.9863 -14.9732 -14.8574 -14.7198 -14.6555 -14.5372 -14.3800 -14.2758
   -14.2466 -14.1534 -13.8264  -8.8649  -8.8034  -8.5781  -8.4775  -8.4539
    -8.4016  -8.3419  -8.2081  -8.1560  -7.9903  -7.9777  -7.7815  -4.2332
    -3.6804  -3.5935  -3.3622  -3.1720  -3.1243  -3.1177  -2.8484  -2.7169
    -2.5932  -2.5578  -2.5183  -2.4204  -2.3502  -2.3374  -2.1882  -2.0001
    -1.9024  -1.8325  -1.7354  -1.6723  -1.5589  -1.4069  -1.4028  -1.3828
    -1.2762  -1.2194  -1.2131  -1.0848  -1.0391  -1.0004  -0.9572  -0.9133
    -0.8606  -0.7667  -0.5440  -0.4352  -0.3643  -0.3114  -0.0990  -0.0924
    -0.0473   0.0292   0.0824   0.0909   0.1378   0.2457   0.3481   0.5086
     0.5254   0.6696   0.6990   0.8017   0.8381   0.8885   0.9493   1.0048
     1.0538   1.1024   1.2046   1.2512   1.3084   1.3256   1.3874   1.4533
     1.5513   1.6813   1.7651   1.8099   1.8147   1.9158   2.0764   2.1328
     2.1654   2.1815   2.4138   2.4948   2.6428   2.7133   2.9621   3.7454
     3.9284   4.5535   4.6233   6.2127   6.3702   6.6776   6.7558   6.9417
     6.9622   7.2014   7.4474   7.9757   8.0415   8.2804   8.3475   8.4223
     8.4505   8.6214

          k = 0.1250-0.5125 0.0000 ( 38456 PWs)   bands (ev):

   -41.4990 -38.6724 -23.4530 -23.1793 -23.0422 -22.7715 -21.6792 -21.5556
   -21.4014 -19.2814 -18.9277 -18.7652 -16.1416 -16.0966 -15.3261 -15.1656
   -15.0334 -15.0202 -14.7457 -14.7102 -14.6568 -14.6279 -14.4286 -14.2181
   -14.1606 -14.0254 -14.0065  -8.8506  -8.7846  -8.5528  -8.4805  -8.4610
    -8.3892  -8.3465  -8.2040  -8.1857  -8.0309  -7.9622  -7.8283  -4.3414
    -3.8742  -3.7893  -3.5043  -3.3606  -3.3525  -3.0327  -2.9811  -2.9684
    -2.6270  -2.5770  -2.5361  -2.4562  -2.2984  -2.2328  -2.2137  -2.0533
    -1.9959  -1.9292  -1.8551  -1.7326  -1.6117  -1.4911  -1.4144  -1.3552
    -1.2993  -1.2488  -1.2454  -1.1823  -1.1107  -1.0573  -1.0413  -0.9968
    -0.9510  -0.8579  -0.5788  -0.4665  -0.4437  -0.3566  -0.1019  -0.0885
    -0.0304   0.0444   0.0874   0.1361   0.2151   0.2675   0.3828   0.5596
     0.6097   0.6651   0.6818   0.7846   0.8261   0.8779   0.9619   0.9748
     1.0001   1.1275   1.1811   1.3121   1.3647   1.3972   1.4216   1.5535
     1.7054   1.8177   1.9564   1.9596   1.9680   2.0251   2.1456   2.2437
     2.2629   2.3256   2.3315   2.5274   2.6024   2.6510   2.8678   3.8629
     3.9253   4.5211   4.6793   6.2569   6.4605   6.8726   6.9289   7.0314
     7.1919   7.2894   7.5087   7.8491   8.2692   8.5472   8.5872   8.7376
     8.7942   8.8671

          k = 0.2500 0.0000 0.0000 ( 38472 PWs)   bands (ev):

   -41.5077 -38.6838 -23.5513 -23.2809 -23.1406 -22.8750 -21.6375 -21.5009
   -21.3731 -19.1105 -19.0098 -18.6762 -16.5214 -15.8510 -15.6402 -15.2700
   -15.1931 -15.0058 -14.9877 -14.7461 -14.6074 -14.5711 -14.3990 -14.3219
   -14.2367 -14.1146 -13.6665  -8.9858  -8.5859  -8.5284  -8.4275  -8.4244
    -8.2319  -8.1905  -8.0928  -8.0539  -8.0247  -7.8621  -7.8092  -3.7911
    -3.2853  -3.0488  -2.9604  -2.7840  -2.5567  -2.5166  -2.4594  -2.4217
    -2.3154  -2.2218  -2.1288  -2.0953  -1.8055  -1.6059  -1.4959  -1.4777
    -1.3994  -1.2830  -1.2472  -1.2407  -1.1082  -1.0727  -1.0150  -1.0079
    -0.9846  -0.9626  -0.9232  -0.8236  -0.7027  -0.6803  -0.4734  -0.4503
    -0.3674  -0.3403  -0.3155  -0.2897  -0.1911  -0.1453  -0.1138  -0.0654
    -0.0472  -0.0442  -0.0317  -0.0162   0.1028   0.1238   0.1639   0.2208
     0.2402   0.2729   0.3276   0.4638   0.5241   0.5621   0.5853   0.6735
     0.7366   0.8341   0.9573   0.9902   1.0256   1.1001   1.1133   1.2651
     1.2692   1.3017   1.3596   1.4512   1.4542   1.5705   1.5966   1.6388
     1.7485   1.9376   2.0578   2.0838   2.1785   2.1820   2.2829   2.5415
     3.7922   4.3094   5.0730   5.3562   5.4659   5.7321   6.0963   6.1496
     6.2576   6.9824   7.0829   7.1804   7.2886   7.4762   7.5431   7.7709
     8.1807   8.2461

          k = 0.2500 0.1281 0.0000 ( 38492 PWs)   bands (ev):

   -41.5060 -38.6815 -23.5328 -23.2619 -23.1221 -22.8557 -21.6313 -21.4988
   -21.4103 -19.0764 -19.0040 -18.7763 -16.4776 -15.8544 -15.5353 -15.2168
   -15.1640 -14.9873 -14.9629 -14.7169 -14.6728 -14.5195 -14.4058 -14.3115
   -14.2249 -14.1440 -13.6837  -8.9801  -8.7107  -8.5928  -8.5031  -8.4766
    -8.3383  -8.2759  -8.1639  -8.0778  -8.0360  -7.9189  -7.7044  -3.9334
    -3.3020  -3.1869  -3.0046  -2.7235  -2.5501  -2.5370  -2.5366  -2.4984
    -2.4335  -2.2673  -2.1405  -2.0855  -2.0536  -1.9521  -1.6502  -1.6387
    -1.5686  -1.5373  -1.4854  -1.4035  -1.3694  -1.3645  -1.2576  -1.2095
    -1.1059  -0.9945  -0.8623  -0.8446  -0.7763  -0.7543  -0.5644  -0.3910
    -0.3661  -0.3292  -0.2922  -0.2692  -0.2570  -0.1916  -0.1387  -0.1149
    -0.0777  -0.0604   0.0206   0.0559   0.1530   0.2224   0.2244   0.2707
     0.2950   0.3683   0.4409   0.4833   0.6667   0.7312   0.7687   0.8112
     0.8331   0.8723   0.9668   0.9903   1.1143   1.1542   1.1751   1.1848
     1.2328   1.2746   1.4002   1.5637   1.5785   1.6315   1.8001   1.8524
     1.9982   2.1584   2.2092   2.4243   2.4377   2.5420   2.5896   2.8502
     3.8850   4.3208   4.9002   5.5984   5.7093   5.7560   6.1703   6.2251
     6.2420   7.2381   7.3130   7.3277   7.4771   7.5392   7.7080   7.9048
     8.2173   8.3242

          k = 0.2500 0.2563 0.0000 ( 38499 PWs)   bands (ev):

   -41.5018 -38.6760 -23.4876 -23.2154 -23.0768 -22.8084 -21.6214 -21.5178
   -21.4684 -19.0102 -18.9905 -18.9737 -16.3614 -15.8779 -15.3036 -15.1210
   -15.0569 -14.9503 -14.9131 -14.8172 -14.6499 -14.4276 -14.3806 -14.2790
   -14.2294 -14.1909 -13.7373  -9.0156  -8.9104  -8.7796  -8.5912  -8.5259
    -8.4811  -8.4055  -8.3706  -8.1751  -8.0296  -8.0142  -7.8038  -4.2702
    -3.6068  -3.3052  -3.2299  -2.9009  -2.8389  -2.6829  -2.6720  -2.6147
    -2.5537  -2.5309  -2.4565  -2.3245  -2.3102  -2.2217  -2.0546  -2.0475
    -1.9694  -1.9468  -1.8958  -1.7617  -1.4132  -1.4089  -1.3443  -1.2835
    -1.1673  -1.1406  -1.0796  -0.9055  -0.8778  -0.7967  -0.7348  -0.6910
    -0.6365  -0.5930  -0.5480  -0.3605  -0.3211  -0.2243  -0.1190   0.0057
     0.0870   0.1214   0.1455   0.1599   0.2212   0.3062   0.3446   0.4197
     0.6762   0.7234   0.7587   0.8227   0.8320   0.8334   0.9236   0.9486
     0.9656   1.0460   1.1245   1.1840   1.2099   1.2726   1.3491   1.4195
     1.4958   1.5475   1.5866   1.6406   1.6971   1.7668   1.8197   2.0809
     2.3526   2.4052   2.6904   2.8186   2.8461   3.0076   3.2135   3.3443
     4.1201   4.2884   4.5899   5.8625   6.1116   6.2010   6.2552   6.2669
     6.5857   7.0637   7.7362   7.7856   7.9723   8.0133   8.1871   8.2392
     8.3251   8.4459

          k = 0.2500 0.3844 0.0000 ( 38531 PWs)   bands (ev):

   -41.4976 -38.6705 -23.4413 -23.1678 -23.0305 -22.7599 -21.6444 -21.5604
   -21.4668 -19.1914 -18.9742 -18.8951 -16.2088 -15.9439 -15.1794 -15.0506
   -14.9264 -14.8927 -14.8699 -14.8521 -14.6032 -14.4832 -14.3332 -14.2354
   -14.2089 -14.1339 -13.8327  -9.1027  -8.9134  -8.8863  -8.7132  -8.6341
    -8.5148  -8.5044  -8.4141  -8.4114  -8.2301  -8.0451  -8.0038  -4.5981
    -4.0209  -3.6123  -3.5071  -3.3150  -3.1560  -3.1089  -3.0979  -2.9037
    -2.7090  -2.6363  -2.5550  -2.4222  -2.4167  -2.4098  -2.3587  -2.1826
    -2.0161  -1.9569  -1.9036  -1.8459  -1.5123  -1.4728  -1.3880  -1.3456
    -1.3448  -1.2811  -1.1113  -1.0356  -1.0108  -0.9042  -0.8746  -0.8548
    -0.8161  -0.7494  -0.6437  -0.3682  -0.3030  -0.2152  -0.0811   0.0996
     0.1761   0.1816   0.2679   0.3048   0.3920   0.4925   0.5385   0.5513
     0.7372   0.7547   0.8470   0.9039   0.9694   1.0411   1.0656   1.1761
     1.1989   1.2449   1.2653   1.2974   1.4148   1.4635   1.5146   1.5274
     1.5964   1.7073   1.7825   1.8737   1.8853   2.0103   2.0916   2.3455
     2.5722   2.6208   2.7195   2.7897   3.0965   3.2755   3.6138   3.6631
     4.1030   4.3231   4.5449   5.6666   6.2715   6.2807   6.4748   6.5741
     6.7197   7.3454   7.8160   8.1372   8.1624   8.3869   8.5826   8.6202
     8.6692   8.8724

          k = 0.2500-0.5125 0.0000 ( 38562 PWs)   bands (ev):

   -41.4959 -38.6682 -23.4218 -23.1478 -23.0110 -22.7395 -21.6714 -21.5629
   -21.4630 -19.2659 -18.9684 -18.8544 -16.0696 -16.0489 -15.2225 -14.9474
   -14.9211 -14.9042 -14.8540 -14.6584 -14.6336 -14.5867 -14.3635 -14.2146
   -14.1505 -14.0210 -13.9439  -9.0905  -8.9043  -8.8709  -8.7977  -8.6938
    -8.5713  -8.5014  -8.4904  -8.4154  -8.3534  -8.1993  -7.9939  -4.7331
    -4.1842  -3.8290  -3.6918  -3.3516  -3.3368  -3.3341  -3.2203  -3.1034
    -2.7029  -2.6357  -2.5730  -2.5219  -2.4496  -2.4048  -2.3391  -2.2980
    -1.9892  -1.9480  -1.9217  -1.8699  -1.6043  -1.5175  -1.4343  -1.3835
    -1.3710  -1.2600  -1.1567  -1.0962  -1.0485  -0.9775  -0.9229  -0.8565
    -0.8247  -0.8065  -0.6595  -0.3830  -0.2682  -0.2008  -0.0642   0.1165
     0.1796   0.1830   0.3181   0.4516   0.4551   0.5900   0.6234   0.6317
     0.7940   0.8060   0.8432   0.9081   1.0407   1.0762   1.0987   1.1065
     1.1195   1.2903   1.3164   1.4029   1.4784   1.4988   1.5281   1.6254
     1.6821   1.9058   1.9496   1.9543   2.0260   2.1888   2.2600   2.4604
     2.4915   2.6579   2.6607   2.8312   3.1542   3.3299   3.6684   3.8034
     3.9596   4.3162   4.6815   5.5627   6.2285   6.2867   6.4327   6.5086
     7.1669   7.4991   7.5792   8.1508   8.3025   8.7572   8.7574   8.9738
     9.0253   9.0809

          k = 0.3750 0.0000 0.0000 ( 38500 PWs)   bands (ev):

   -41.5045 -38.6795 -23.5074 -23.2346 -23.0962 -22.8271 -21.6461 -21.5583
   -21.3688 -19.1990 -19.0218 -18.6702 -16.3462 -15.9587 -15.4021 -15.3755
   -15.2988 -15.1440 -15.1023 -14.7518 -14.5998 -14.5200 -14.4038 -14.3103
   -14.2084 -14.1460 -13.7979  -9.0105  -8.5870  -8.4961  -8.4002  -8.3465
    -8.1726  -8.1012  -8.0885  -8.0155  -7.9412  -7.8100  -7.7156  -3.9931
    -3.3712  -3.2208  -3.0718  -2.7287  -2.7088  -2.5746  -2.5282  -2.3945
    -2.2706  -2.2613  -2.1941  -2.1937  -2.1358  -1.7283  -1.6906  -1.5836
    -1.5120  -1.4952  -1.4806  -1.3722  -1.3675  -1.2826  -1.2099  -1.1469
    -1.1262  -1.0266  -0.9923  -0.9480  -0.8602  -0.7661  -0.7362  -0.6564
    -0.4654  -0.4476  -0.3765  -0.1885  -0.1814  -0.1191  -0.0873  -0.0606
    -0.0315  -0.0295  -0.0244   0.1468   0.1622   0.1840   0.2002   0.2378
     0.2918   0.3244   0.3584   0.3912   0.4754   0.5032   0.5975   0.7522
     0.8225   0.9148   0.9785   0.9975   1.0982   1.1560   1.1618   1.2605
     1.3029   1.3563   1.3652   1.4103   1.4389   1.4733   1.7075   1.7402
     1.7723   1.9779   2.1010   2.1768   2.1970   2.3892   2.4284   2.6092
     3.6814   4.3064   4.9076   5.9922   6.0690   6.1015   6.3084   6.4709
     6.7019   7.3173   7.4935   7.4992   7.6704   7.9206   7.9418   8.1961
     8.2772   8.4311

          k = 0.3750 0.1281 0.0000 ( 38478 PWs)   bands (ev):

   -41.5028 -38.6772 -23.4906 -23.2176 -23.0794 -22.8099 -21.6414 -21.5548
   -21.4053 -19.1917 -18.9889 -18.7685 -16.3092 -15.9493 -15.3435 -15.3019
   -15.2178 -15.1005 -15.0592 -14.7179 -14.6671 -14.4966 -14.3609 -14.2939
   -14.1916 -14.1572 -13.8012  -9.0071  -8.6490  -8.5877  -8.4918  -8.4193
    -8.3820  -8.2401  -8.1338  -8.1198  -8.0171  -7.9805  -7.7605  -4.1491
    -3.5188  -3.2760  -3.1941  -2.7475  -2.7356  -2.6099  -2.5604  -2.5266
    -2.4611  -2.3897  -2.3401  -2.0918  -2.0276  -1.9887  -1.8585  -1.7871
    -1.7220  -1.5793  -1.5413  -1.4915  -1.4382  -1.3593  -1.3343  -1.3340
    -1.2734  -1.1158  -1.0639  -1.0351  -0.9672  -0.8164  -0.6467  -0.4860
    -0.4610  -0.3894  -0.3338  -0.3128  -0.2671  -0.1511  -0.1414  -0.1245
    -0.0225   0.0431   0.0959   0.1191   0.2301   0.3082   0.3126   0.3429
     0.3905   0.3945   0.4599   0.5633   0.6464   0.6943   0.7032   0.8124
     0.8375   0.9058   1.0612   1.0627   1.1155   1.1554   1.1570   1.2315
     1.2762   1.3243   1.3765   1.4499   1.6382   1.7664   1.8346   2.0073
     2.1619   2.3204   2.4273   2.4644   2.5219   2.5788   2.6924   2.9434
     3.7751   4.3016   4.7327   5.9350   6.1168   6.2427   6.2575   6.5408
     6.7911   7.1521   7.5690   7.5715   7.7122   8.1482   8.2315   8.2870
     8.3098   8.3844

          k = 0.3750 0.2563 0.0000 ( 38505 PWs)   bands (ev):

   -41.4987 -38.6717 -23.4496 -23.1760 -23.0385 -22.7679 -21.6311 -21.5634
   -21.4731 -19.1742 -18.9836 -18.9057 -16.2135 -15.9356 -15.2203 -15.1201
   -15.0323 -14.9896 -14.9212 -14.8333 -14.6355 -14.4423 -14.2562 -14.2534
   -14.2043 -14.1512 -13.8153  -9.0714  -8.9451  -8.8287  -8.6748  -8.6089
    -8.5442  -8.4541  -8.4386  -8.4025  -8.2325  -8.0504  -8.0320  -4.5644
    -3.9585  -3.5068  -3.2954  -3.2078  -2.8587  -2.8456  -2.7468  -2.6451
    -2.5754  -2.5351  -2.4219  -2.4157  -2.3410  -2.3164  -2.2811  -2.1989
    -2.1606  -1.9848  -1.8226  -1.7848  -1.4220  -1.3758  -1.3174  -1.2419
    -1.2302  -1.1744  -1.0763  -1.0049  -0.9135  -0.8448  -0.7877  -0.7281
    -0.7054  -0.6167  -0.5820  -0.4037  -0.2841  -0.1111  -0.0316   0.1380
     0.1941   0.2303   0.2950   0.3741   0.3872   0.4888   0.5178   0.5833
     0.6625   0.7290   0.7857   0.8882   0.8887   0.9298   0.9964   1.0040
     1.0673   1.1189   1.1479   1.2075   1.2507   1.2668   1.3494   1.4561
     1.4787   1.4962   1.6178   1.6815   1.7355   1.8059   1.8814   2.3309
     2.6195   2.6935   2.7785   2.8364   3.1928   3.2268   3.3635   3.6733
     3.9103   4.3752   4.4482   5.5426   6.0912   6.2700   6.2711   6.5614
     6.6273   7.2548   7.8103   7.9782   8.0865   8.2727   8.5328   8.5869
     8.6156   8.6978

          k = 0.3750 0.3844 0.0000 ( 38597 PWs)   bands (ev):

   -41.4945 -38.6662 -23.4078 -23.1336 -22.9968 -22.7250 -21.6366 -21.6074
   -21.4865 -19.1783 -19.1538 -18.8164 -16.0972 -15.9463 -15.1075 -14.9969
   -14.9152 -14.8685 -14.8534 -14.7314 -14.5610 -14.4224 -14.2833 -14.2226
   -14.1646 -14.0785 -13.8479  -9.3105  -9.0951  -8.9811  -8.9665  -8.8719
    -8.7314  -8.7208  -8.5332  -8.5248  -8.4382  -8.3665  -8.0344  -4.9763
    -4.4107  -3.8691  -3.5079  -3.5007  -3.3132  -3.1887  -3.0702  -2.9772
    -2.8442  -2.8128  -2.7323  -2.5828  -2.4735  -2.4261  -2.3379  -2.3118
    -2.2052  -2.0492  -1.8441  -1.6865  -1.6642  -1.4642  -1.4114  -1.2997
    -1.2895  -1.2434  -1.1278  -1.0539  -1.0126  -0.9619  -0.9442  -0.8374
    -0.8094  -0.5295  -0.5012  -0.4138  -0.1871   0.0076   0.0381   0.2659
     0.3503   0.4112   0.4611   0.5177   0.6102   0.6575   0.7798   0.8649
     0.8894   0.8949   0.9754   1.0840   1.1079   1.1093   1.1705   1.1803
     1.3022   1.3926   1.4093   1.4387   1.4839   1.5556   1.5707   1.5817
     1.6707   1.7357   1.9023   1.9026   1.9315   1.9665   2.0250   2.6102
     2.6190   2.7681   2.8435   3.2688   3.5943   3.7599   3.8585   3.9229
     4.1388   4.2022   4.7296   5.0238   5.7259   5.9229   6.2712   6.5405
     6.8560   7.5734   8.1486   8.2938   8.3919   8.4249   8.5137   8.6842
     8.6959   8.8975

          k = 0.3750-0.5125 0.0000 ( 38630 PWs)   bands (ev):

   -41.4928 -38.6639 -23.3902 -23.1158 -22.9793 -22.7070 -21.6636 -21.6090
   -21.4831 -19.2503 -19.1485 -18.7773 -16.0057 -15.9950 -15.1103 -15.0121
   -14.8583 -14.8143 -14.6613 -14.6336 -14.5614 -14.5199 -14.2936 -14.2109
   -14.1488 -14.0094 -13.8818  -9.3882  -9.1741  -9.1146  -8.9881  -8.9577
    -8.8866  -8.8000  -8.6506  -8.5279  -8.5219  -8.4342  -8.0289  -5.1414
    -4.5918  -4.0366  -3.7533  -3.5954  -3.3803  -3.3113  -3.3083  -3.2039
    -2.9527  -2.8607  -2.7456  -2.5806  -2.5095  -2.4216  -2.3603  -2.3323
    -2.1860  -2.0765  -1.8530  -1.7845  -1.6739  -1.4897  -1.4249  -1.3509
    -1.3396  -1.2879  -1.1622  -1.1326  -1.0691  -1.0382  -0.9167  -0.9071
    -0.8122  -0.4958  -0.4041  -0.3627  -0.1608   0.0435   0.0920   0.2756
     0.3871   0.5332   0.5371   0.5686   0.6962   0.7355   0.8403   0.9079
     0.9267   1.0263   1.0964   1.1435   1.1886   1.2545   1.2849   1.3303
     1.3370   1.3776   1.3849   1.4694   1.5769   1.6576   1.6757   1.7654
     1.8858   1.9215   1.9270   1.9732   2.0825   2.1280   2.1978   2.4410
     2.6154   2.7583   2.9547   3.4084   3.6981   3.8364   3.9194   4.0232
     4.0971   4.3740   4.8184   4.8857   5.5281   5.7303   6.1820   6.6075
     7.3887   7.6133   7.7192   8.3653   8.3671   8.5228   8.6752   8.7523
     8.8275   8.9024

          k =-0.5000 0.0000 0.0000 ( 38486 PWs)   bands (ev):

   -41.5032 -38.6776 -23.4889 -23.2150 -23.0774 -22.8069 -21.6637 -21.5673
   -21.3670 -19.2711 -18.9835 -18.6676 -16.2189 -16.0601 -15.4536 -15.3844
   -15.2104 -15.2029 -15.1639 -14.7822 -14.5881 -14.5631 -14.3227 -14.3045
   -14.1656 -14.1542 -13.8928  -9.0174  -8.5862  -8.4795  -8.3924  -8.3120
    -8.1499  -8.0843  -8.0628  -8.0049  -7.9055  -7.7910  -7.6754  -4.0791
    -3.4946  -3.3350  -2.8728  -2.8588  -2.6575  -2.6258  -2.5589  -2.5550
    -2.4544  -2.2277  -2.2216  -2.1255  -1.9734  -1.8278  -1.7707  -1.7013
    -1.6318  -1.6104  -1.4866  -1.4184  -1.4087  -1.4037  -1.2427  -1.1905
    -1.1777  -1.0550  -0.9910  -0.9865  -0.9782  -0.9421  -0.7500  -0.7045
    -0.4963  -0.4696  -0.4150  -0.1837  -0.1298  -0.1043  -0.0765  -0.0662
    -0.0350  -0.0348  -0.0149   0.1635   0.1771   0.2288   0.2298   0.2609
     0.2643   0.3077   0.3086   0.4192   0.4948   0.5421   0.7286   0.7393
     0.8673   0.9016   0.9298   1.0161   1.0486   1.1228   1.1610   1.3107
     1.3616   1.3626   1.3826   1.3982   1.4783   1.4926   1.6927   1.7184
     1.9771   2.0119   2.0954   2.1182   2.2047   2.4025   2.5852   2.6001
     3.5288   4.3925   4.8462   6.1793   6.3257   6.5977   6.7387   6.8481
     6.9220   6.9274   7.0189   7.3099   7.4814   8.1203   8.3137   8.3325
     8.5489   8.6590

          k =-0.5000 0.1281 0.0000 ( 38464 PWs)   bands (ev):

   -41.5015 -38.6754 -23.4728 -23.1989 -23.0614 -22.7906 -21.6597 -21.5633
   -21.4032 -19.2633 -18.9511 -18.7652 -16.1866 -16.0434 -15.3993 -15.3193
   -15.1492 -15.1227 -15.0944 -14.7483 -14.6548 -14.5293 -14.2864 -14.2861
   -14.1591 -14.1477 -13.8869  -9.0123  -8.5820  -8.5203  -8.5171  -8.4764
    -8.2850  -8.2742  -8.1280  -8.1096  -8.0857  -7.9267  -7.8851  -4.2414
    -3.6477  -3.3985  -3.0927  -2.9139  -2.8812  -2.6052  -2.5740  -2.5339
    -2.4497  -2.4487  -2.1553  -2.0999  -2.0799  -2.0131  -2.0030  -1.9457
    -1.7447  -1.5422  -1.5328  -1.4872  -1.4511  -1.4023  -1.3184  -1.3004
    -1.2898  -1.1665  -1.1610  -1.1173  -1.0921  -0.8298  -0.6958  -0.5048
    -0.5015  -0.4627  -0.3745  -0.3480  -0.2619  -0.1529  -0.1210  -0.1177
    -0.0263   0.0903   0.1189   0.1382   0.2240   0.3112   0.4053   0.4105
     0.4268   0.4675   0.5419   0.5575   0.5921   0.6148   0.7681   0.8182
     0.8709   0.9030   1.0254   1.0619   1.0718   1.0838   1.1615   1.2997
     1.3186   1.3189   1.3876   1.4649   1.6595   1.7364   2.0004   2.0503
     2.2578   2.3418   2.4339   2.4580   2.5638   2.6713   2.7271   2.9231
     3.5957   4.3995   4.6720   5.9689   6.2584   6.5652   6.7451   6.7661
     6.9716   7.1272   7.1956   7.2230   7.4269   8.4500   8.5187   8.5261
     8.5629   8.6688

          k =-0.5000 0.2563 0.0000 ( 38510 PWs)   bands (ev):

   -41.4974 -38.6699 -23.4336 -23.1594 -23.0224 -22.7509 -21.6501 -21.5710
   -21.4707 -19.2446 -18.9792 -18.8695 -16.1068 -16.0067 -15.2676 -15.1320
   -15.0141 -15.0086 -14.8378 -14.8165 -14.6663 -14.4465 -14.2465 -14.2050
   -14.1916 -14.1025 -13.8735  -9.0302  -8.9295  -8.8218  -8.7508  -8.5962
    -8.5826  -8.5503  -8.4388  -8.4094  -8.3689  -8.2375  -8.0533  -4.6870
    -4.1001  -3.6422  -3.3364  -3.2783  -2.9913  -2.8244  -2.7618  -2.6396
    -2.5748  -2.5695  -2.5267  -2.4697  -2.3216  -2.3180  -2.2892  -2.2404
    -2.1865  -2.0126  -1.7863  -1.7790  -1.5172  -1.3530  -1.2769  -1.2066
    -1.1547  -1.1368  -1.0886  -1.0344  -1.0169  -0.8058  -0.7951  -0.7703
    -0.7098  -0.6320  -0.5868  -0.4365  -0.2430  -0.1070   0.0745   0.1653
     0.2612   0.2759   0.3145   0.4267   0.4842   0.5427   0.6378   0.6441
     0.6763   0.7671   0.8393   0.9549   0.9689   0.9821   1.0260   1.0267
     1.0372   1.0514   1.0888   1.1758   1.2210   1.4065   1.4111   1.4426
     1.4450   1.4912   1.5553   1.5972   1.6856   1.8555   1.9864   2.4576
     2.6826   2.7685   2.8244   2.8881   3.2435   3.3244   3.4588   3.6781
     3.7655   4.3349   4.5560   5.3850   6.0491   6.2365   6.2791   6.4794
     7.0761   7.4171   7.6077   7.9075   8.0143   8.4978   8.5424   8.7342
     8.7607   8.8255

          k =-0.5000 0.3844 0.0000 ( 38630 PWs)   bands (ev):

   -41.4932 -38.6644 -23.3937 -23.1192 -22.9827 -22.7104 -21.6404 -21.6281
   -21.4856 -19.2258 -19.1701 -18.7819 -16.0242 -15.9750 -15.1336 -14.9887
   -14.8921 -14.8556 -14.8455 -14.5986 -14.5885 -14.3952 -14.2602 -14.2169
   -14.1551 -14.0381 -13.8612  -9.3622  -9.1444  -9.1164  -8.9819  -8.9530
    -8.8901  -8.7670  -8.6698  -8.5460  -8.5289  -8.4441  -8.0471  -5.1303
    -4.5711  -4.0095  -3.5942  -3.4922  -3.3251  -3.2875  -3.0584  -2.9877
    -2.9545  -2.8779  -2.7604  -2.5784  -2.5294  -2.4252  -2.3651  -2.3445
    -2.1844  -2.1063  -1.8098  -1.7730  -1.5764  -1.5195  -1.4151  -1.2676
    -1.2548  -1.2082  -1.2007  -1.0640  -0.9908  -0.9716  -0.9200  -0.8825
    -0.8510  -0.4756  -0.3936  -0.3488  -0.1567   0.0454   0.1677   0.3000
     0.4312   0.4794   0.5821   0.6210   0.6793   0.8161   0.8734   0.8798
     0.9186   0.9414   1.0415   1.1338   1.1554   1.2315   1.2996   1.3271
     1.3403   1.3499   1.3978   1.4198   1.4846   1.5748   1.6064   1.6523
     1.7394   1.7832   1.8366   1.8936   1.9687   1.9913   2.0240   2.6082
     2.7450   2.7500   2.9620   3.4890   3.6501   3.6762   3.9823   4.0538
     4.0781   4.4086   4.7525   4.8629   5.4872   5.6862   6.1645   6.6410
     7.3325   7.7061   7.7623   8.1698   8.2311   8.4254   8.6704   8.7040
     8.8291   8.8591

          k =-0.5000-0.5125 0.0000 ( 38612 PWs)   bands (ev):

   -41.4915 -38.6621 -23.3769 -23.1024 -22.9660 -22.6934 -21.6604 -21.6364
   -21.4823 -19.2439 -19.2180 -18.7437 -15.9892 -15.9633 -15.0776 -15.0606
   -14.8207 -14.7675 -14.6406 -14.5604 -14.5058 -14.5058 -14.2627 -14.2091
   -14.1506 -14.0025 -13.8566  -9.5100  -9.2965  -9.2375  -9.1079  -9.0075
    -8.9729  -8.9197  -8.7716  -8.6449  -8.5438  -8.4413  -8.0438  -5.3064
    -4.7606  -4.1777  -3.7420  -3.6776  -3.4636  -3.3288  -3.2961  -3.2213
    -3.0853  -2.9057  -2.7839  -2.5809  -2.5739  -2.4134  -2.3785  -2.3584
    -2.1617  -2.1484  -1.8637  -1.8087  -1.5927  -1.4986  -1.4934  -1.3144
    -1.3107  -1.2786  -1.2317  -1.1534  -1.0741  -1.0098  -0.9537  -0.8767
    -0.8666  -0.4325  -0.3665  -0.1643  -0.1314   0.0995   0.2528   0.3114
     0.5129   0.5158   0.5531   0.7278   0.8404   0.9123   0.9458   0.9479
     0.9963   1.0132   1.0316   1.2153   1.2785   1.2825   1.4467   1.4645
     1.4662   1.4814   1.4849   1.4900   1.5917   1.6511   1.7054   1.9068
     1.9139   1.9930   2.0026   2.0030   2.1007   2.1211   2.1659   2.4354
     2.5853   2.8789   3.0499   3.6476   3.6963   3.7352   3.9625   4.2048
     4.2908   4.5232   4.6326   4.9912   5.2375   5.4433   6.0669   6.9470
     7.6257   7.7374   7.8263   7.8445   8.2040   8.2390   8.6331   8.7360
     8.8618   8.9469

     the Fermi energy is     2.3984 ev

!    total energy              =   -1868.38602225 Ry
     Harris-Foulkes estimate   =   -1868.38602245 Ry
     estimated scf accuracy    <       0.00000040 Ry

     The total energy is the sum of the following terms:

     one-electron contribution =  -29409.43733810 Ry
     hartree contribution      =   14852.79004953 Ry
     xc contribution           =    -641.72296343 Ry
     ewald contribution        =   13329.99301295 Ry
     smearing contrib. (-TS)   =      -0.00878321 Ry

     convergence has been achieved in  38 iterations

     negative rho (up, down):  8.999E-02 0.000E+00

     Forces acting on atoms (cartesian axes, Ry/au):

     atom    1 type  3   force =     0.00000000    0.00000000   -0.00000884
     atom    2 type  2   force =     0.00000000    0.00000000    0.00006632
     atom    3 type  3   force =     0.00000000    0.00000000   -0.00005093
     atom    4 type  1   force =     0.00000000    0.00000000   -0.00005442
     atom    5 type  2   force =     0.00000000    0.00000000    0.00039456
     atom    6 type  3   force =     0.00000000    0.00000000    0.00040286
     atom    7 type  3   force =     0.00000000    0.00000000    0.00020949
     atom    8 type  4   force =     0.00000000    0.00000000   -0.00048669
     atom    9 type  3   force =     0.00000000    0.00000000    0.00082725
     atom   10 type  3   force =     0.00000000    0.00000000    0.00107834
     atom   11 type  2   force =     0.00000000    0.00000000   -0.00214332
     atom   12 type  1   force =     0.00000000    0.00000000   -0.00155703
     atom   13 type  3   force =     0.00000000    0.00000000    0.00232394
     atom   14 type  3   force =     0.00000000    0.00000000    0.00570242
     atom   15 type  2   force =     0.00000000    0.00000000   -0.01060552
     atom   16 type  3   force =     0.00000000    0.00000000    0.01919579
     atom   17 type  1   force =     0.00000000    0.00000000   -0.02236260
     atom   18 type  2   force =     0.00000000    0.00000000    0.00255366
     atom   19 type  3   force =     0.00000000    0.00000000    0.06068165
     atom   20 type  3   force =     0.00000000    0.00000000    0.06199150
     atom   21 type  4   force =     0.00000000    0.00000000   -0.11643737
     atom   22 type  3   force =     0.00000000    0.00000000    0.02440945
     atom   23 type  3   force =     0.00000000    0.00000000    0.03041281
     atom   24 type  2   force =     0.00000000    0.00000000   -0.02175956
     atom   25 type  1   force =     0.00000000    0.00000000   -0.03300743
     atom   26 type  3   force =     0.00000000    0.00000000   -0.00452975
     atom   27 type  2   force =     0.00000000    0.00000000   -0.00282362
     atom   28 type  3   force =     0.00000000    0.00000000    0.00557702

     Total force =     0.158938     Total SCF correction =     0.002678


     Computing stress (Cartesian axis) and pressure


     negative rho (up, down):  8.999E-02 0.000E+00
          total   stress  (Ry/bohr**3)                   (kbar)     P=      -10.17
  -0.00006407   0.00000000   0.00000000           -9.43        0.00        0.00
   0.00000000  -0.00005195   0.00000000            0.00       -7.64        0.00
   0.00000000   0.00000000  -0.00009133            0.00        0.00      -13.44

 
     init_run     :      9.80s CPU     10.10s WALL (       1 calls)
     electrons    :    636.29s CPU    659.94s WALL (       1 calls)
     forces       :      4.05s CPU      4.22s WALL (       1 calls)
     stress       :     25.60s CPU     26.09s WALL (       1 calls)

     Called by init_run:
     wfcinit      :      6.71s CPU      6.82s WALL (       1 calls)
     potinit      :      0.66s CPU      0.67s WALL (       1 calls)
     hinit0       :      1.26s CPU      1.27s WALL (       1 calls)

     Called by electrons:
     c_bands      :    489.33s CPU    501.36s WALL (      38 calls)
     sum_band     :     98.00s CPU    104.28s WALL (      38 calls)
     v_of_rho     :      2.87s CPU      2.92s WALL (      39 calls)
     newd         :     28.41s CPU     33.62s WALL (      39 calls)
     mix_rho      :     18.22s CPU     18.41s WALL (      38 calls)

     Called by c_bands:
     init_us_2    :      4.13s CPU      4.16s WALL (    1975 calls)
     cegterg      :    458.70s CPU    470.06s WALL (     950 calls)

     Called by sum_band:
     sum_band:bec :      0.26s CPU      0.26s WALL (     950 calls)
     addusdens    :     27.18s CPU     32.66s WALL (      38 calls)

     Called by *egterg:
     h_psi        :    237.93s CPU    246.12s WALL (    3622 calls)
     s_psi        :     24.47s CPU     24.68s WALL (    3622 calls)
     g_psi        :      0.73s CPU      0.74s WALL (    2647 calls)
     cdiaghg      :    108.79s CPU    109.23s WALL (    3597 calls)

     Called by h_psi:
     h_psi:calbec :     27.58s CPU     28.93s WALL (    3622 calls)
     vloc_psi     :    184.38s CPU    187.38s WALL (    3622 calls)
     add_vuspsi   :     24.95s CPU     27.03s WALL (    3622 calls)

     General routines
     calbec       :     48.96s CPU     50.38s WALL (    4697 calls)
     fft          :      2.30s CPU      2.31s WALL (     530 calls)
     ffts         :      9.53s CPU      9.63s WALL (   15964 calls)
     fftw         :    211.02s CPU    214.34s WALL (  674918 calls)
     interpolate  :      0.18s CPU      0.18s WALL (      39 calls)
 
     Parallel routines
     fft_scatt_xy :     27.88s CPU     28.30s WALL (  691412 calls)
     fft_scatt_yz :    128.75s CPU    130.77s WALL (  691412 calls)
 
     PWSCF        :  11m16.79s CPU  11m41.44s WALL

 
   This run was terminated on:  18:19:36   5May2021            

=------------------------------------------------------------------------------=
   JOB DONE.
=------------------------------------------------------------------------------=
[1620253176.790901] [holy7c16409:241915:0]          mpool.c:43   UCX  WARN  object 0x3fd1bc0 was not returned to mpool ucp_requests
[1620253176.790298] [holy7c18102:139491:0]          mpool.c:43   UCX  WARN  object 0x342da40 was not returned to mpool ucp_requests
[1620253176.794786] [holy7c10103:253460:0]          mpool.c:43   UCX  WARN  object 0x4228280 was not returned to mpool ucp_requests
[1620253176.790986] [holy7c16612:120881:0]          mpool.c:43   UCX  WARN  object 0x2bfb480 was not returned to mpool ucp_requests
[1620253176.791012] [holy7c16612:120881:0]          mpool.c:43   UCX  WARN  object 0x2bfb800 was not returned to mpool ucp_requests
[1620253176.792299] [holy7c16308:219943:0]          mpool.c:43   UCX  WARN  object 0x3239480 was not returned to mpool ucp_requests
[1620253176.792322] [holy7c16308:219943:0]          mpool.c:43   UCX  WARN  object 0x3239800 was not returned to mpool ucp_requests
[1620253176.796685] [holy7c18105:127068:0]          mpool.c:43   UCX  WARN  object 0x2fc9e00 was not returned to mpool ucp_requests
[1620253176.792882] [holy7c10103:253461:0]          mpool.c:43   UCX  WARN  object 0x455ac00 was not returned to mpool ucp_requests
