
     Program PWSCF v.6.5 starts on  5May2021 at 18: 9:15 

     This program is part of the open-source Quantum ESPRESSO suite
     for quantum simulation of materials; please cite
         "P. Giannozzi et al., J. Phys.:Condens. Matter 21 395502 (2009);
         "P. Giannozzi et al., J. Phys.:Condens. Matter 29 465901 (2017);
          URL http://www.quantum-espresso.org", 
     in publications or presentations arising from this work. More details at
     http://www.quantum-espresso.org/quote

     Parallel version (MPI), running on    20 processors

     MPI processes distributed on     2 nodes
     R & G space division:  proc/nbgrp/npool/nimage =      20
     Reading input from YBCO_Y_cleave_6.0_sep_scf.pwi
Warning: card &IONS ignored
Warning: card     ION_DYNAMICS = 'BFGS' ignored
Warning: card / ignored
Warning: card &CELL ignored
Warning: card     CELL_DYNAMICS = 'BFGS' ignored
Warning: card / ignored

     Current dimensions of program PWSCF are:
     Max number of different atomic species (ntypx) = 10
     Max number of k-points (npk) =  40000
     Max angular momentum in pseudopotentials (lmaxx) =  3

     Subspace diagonalization in iterative solution of the eigenvalue problem:
     one sub-group per band group will be used
     scalapack distributed-memory algorithm (size of sub-group:  4*  4 procs)

     Message from routine setup:
     using ibrav=0 with symmetry is DISCOURAGED, use correct ibrav instead
 
     Parallelization info
     --------------------
     sticks:   dense  smooth     PW     G-vecs:    dense   smooth      PW
     Min         150      50     14                80800    15544    2422
     Max         151      51     15                80843    15571    2473
     Sum        3015    1011    293              1616397   311077   48995
 


     bravais-lattice index     =            0
     lattice parameter (alat)  =       7.3477  a.u.
     unit-cell volume          =    4953.9607 (a.u.)^3
     number of atoms/cell      =           28
     number of atomic types    =            4
     number of electrons       =       229.00
     number of Kohn-Sham states=          138
     kinetic-energy cutoff     =      60.0000  Ry
     charge density cutoff     =     720.0000  Ry
     convergence threshold     =      1.0E-06
     mixing beta               =       0.2000
     number of iterations used =           10  local-TF  mixing
     Exchange-correlation= SLA PW PBE PBE
                           (   1   4   3   4   0   0   0)

     celldm(1)=   7.347715  celldm(2)=   0.000000  celldm(3)=   0.000000
     celldm(4)=   0.000000  celldm(5)=   0.000000  celldm(6)=   0.000000

     crystal axes: (cart. coord. in units of alat)
               a(1) = (   1.000000   0.000000   0.000000 )  
               a(2) = (   0.000000   0.975577   0.000000 )  
               a(3) = (   0.000000   0.000000  12.800707 )  

     reciprocal axes: (cart. coord. in units 2 pi/alat)
               b(1) = (  1.000000  0.000000  0.000000 )  
               b(2) = (  0.000000  1.025034  0.000000 )  
               b(3) = (  0.000000  0.000000  0.078121 )  


     PseudoPot. # 1 for Ba read from file:
     /n/holyscratch01/hoffman_lab/ruizhe/YBCO_Project/pseudo/Ba.pbe-nsp-van.UPF
     MD5 check sum: 2b9c31dd849566dd297d80989662b7a0
     Pseudo is Ultrasoft + core correction, Zval = 10.0
     Generated by new atomic code, or converted to UPF format
     Using radial grid of  907 points,  6 beta functions with: 
                l(1) =   0
                l(2) =   0
                l(3) =   1
                l(4) =   1
                l(5) =   2
                l(6) =   2
     Q(r) pseudized with  6 coefficients,  rinner =    1.200   1.200   1.200
                                                       1.200   1.200

     PseudoPot. # 2 for Cu read from file:
     /n/holyscratch01/hoffman_lab/ruizhe/YBCO_Project/pseudo/Cu.pbe-n-van_ak.UPF
     MD5 check sum: 34e3282627ffb533726feb647e090d62
     Pseudo is Ultrasoft + core correction, Zval = 11.0
     Generated by new atomic code, or converted to UPF format
     Using radial grid of  867 points,  6 beta functions with: 
                l(1) =   0
                l(2) =   0
                l(3) =   1
                l(4) =   1
                l(5) =   2
                l(6) =   2
     Q(r) pseudized with  8 coefficients,  rinner =    1.400   1.400   1.400
                                                       1.400   1.400

     PseudoPot. # 3 for O  read from file:
     /n/holyscratch01/hoffman_lab/ruizhe/YBCO_Project/pseudo/O.pbe-van_ak.UPF
     MD5 check sum: 783ce7fe4c79b6a4916957118fed0856
     Pseudo is Ultrasoft, Zval =  6.0
     Generated by new atomic code, or converted to UPF format
     Using radial grid of  737 points,  4 beta functions with: 
                l(1) =   0
                l(2) =   0
                l(3) =   1
                l(4) =   1
     Q(r) pseudized with  8 coefficients,  rinner =    0.800   0.800   0.800


     PseudoPot. # 4 for Y  read from file:
     /n/holyscratch01/hoffman_lab/ruizhe/YBCO_Project/pseudo/Y.pbe-nsp-van.UPF
     MD5 check sum: 4412fed3ab108fed87a1b7d6a69a4a38
     Pseudo is Ultrasoft + core correction, Zval = 11.0
     Generated by new atomic code, or converted to UPF format
     Using radial grid of  885 points,  6 beta functions with: 
                l(1) =   0
                l(2) =   0
                l(3) =   1
                l(4) =   1
                l(5) =   2
                l(6) =   2
     Q(r) pseudized with  6 coefficients,  rinner =    1.200   1.200   1.200
                                                       1.200   1.200

     atomic species   valence    mass     pseudopotential
        Ba            10.00   137.32700     Ba( 1.00)
        Cu            11.00    63.54600     Cu( 1.00)
        O              6.00    15.99900     O ( 1.00)
        Y             11.00    88.90584     Y ( 1.00)

      4 Sym. Ops. (no inversion) found



   Cartesian axes

     site n.     atom                  positions (alat units)
         1           O   tau(   1) = (   0.0000000   0.4877884  -0.0257983  )
         2           Cu  tau(   2) = (   0.0000000   0.0000000   0.0215779  )
         3           O   tau(   3) = (   0.0000000   0.0000000   0.5073114  )
         4           Ba  tau(   4) = (   0.4999996   0.4877884   0.5319677  )
         5           Cu  tau(   5) = (   0.0000000   0.0000000   1.0495845  )
         6           O   tau(   6) = (   0.4999996   0.0000000   1.1181579  )
         7           O   tau(   7) = (   0.0000000   0.4877884   1.1273137  )
         8           Y   tau(   8) = (   0.4999996   0.4877884   1.4938777  )
         9           O   tau(   9) = (   0.0000000   0.4877884   1.8497402  )
        10           O   tau(  10) = (   0.4999996   0.0000000   1.8692709  )
        11           Cu  tau(  11) = (   0.0000000   0.0000000   1.9417560  )
        12           Ba  tau(  12) = (   0.4999996   0.4877884   2.4526063  )
        13           O   tau(  13) = (   0.0000000   0.0000000   2.5103470  )
        14           O   tau(  14) = (   0.0000000   0.4877884   2.9968469  )
        15           Cu  tau(  15) = (   0.0000000   0.0000000   2.9968521  )
        16           O   tau(  16) = (   0.0000000   0.0000000   3.4833288  )
        17           Ba  tau(  17) = (   0.4999996   0.4877884   3.5410618  )
        18           Cu  tau(  18) = (   0.0000000   0.0000000   4.0519352  )
        19           O   tau(  19) = (   0.4999996   0.0000000   4.1244075  )
        20           O   tau(  20) = (   0.0000000   0.4877884   4.1439202  )
        21           Y   tau(  21) = (   0.4999996   0.4877884   4.4997853  )
        22           O   tau(  22) = (   0.0000000   0.4877884   6.4094625  )
        23           O   tau(  23) = (   0.4999996   0.0000000   6.4186312  )
        24           Cu  tau(  24) = (   0.0000000   0.0000000   6.4872097  )
        25           Ba  tau(  25) = (   0.4999996   0.4877884   7.0048111  )
        26           O   tau(  26) = (   0.0000000   0.0000000   7.0294675  )
        27           Cu  tau(  27) = (   0.0000000   0.0000000   7.5151727  )
        28           O   tau(  28) = (   0.0000000   0.4877884   7.5625540  )

     number of k points=    25  Gaussian smearing, width (Ry)=  0.0100
                       cart. coord. in units 2pi/alat
        k(    1) = (   0.0000000   0.0000000   0.0000000), wk =   0.0312500
        k(    2) = (   0.0000000   0.1281293   0.0000000), wk =   0.0625000
        k(    3) = (   0.0000000   0.2562585   0.0000000), wk =   0.0625000
        k(    4) = (   0.0000000   0.3843878   0.0000000), wk =   0.0625000
        k(    5) = (   0.0000000  -0.5125170   0.0000000), wk =   0.0312500
        k(    6) = (   0.1250000   0.0000000   0.0000000), wk =   0.0625000
        k(    7) = (   0.1250000   0.1281293   0.0000000), wk =   0.1250000
        k(    8) = (   0.1250000   0.2562585   0.0000000), wk =   0.1250000
        k(    9) = (   0.1250000   0.3843878   0.0000000), wk =   0.1250000
        k(   10) = (   0.1250000  -0.5125170   0.0000000), wk =   0.0625000
        k(   11) = (   0.2500000   0.0000000   0.0000000), wk =   0.0625000
        k(   12) = (   0.2500000   0.1281293   0.0000000), wk =   0.1250000
        k(   13) = (   0.2500000   0.2562585   0.0000000), wk =   0.1250000
        k(   14) = (   0.2500000   0.3843878   0.0000000), wk =   0.1250000
        k(   15) = (   0.2500000  -0.5125170   0.0000000), wk =   0.0625000
        k(   16) = (   0.3750000   0.0000000   0.0000000), wk =   0.0625000
        k(   17) = (   0.3750000   0.1281293   0.0000000), wk =   0.1250000
        k(   18) = (   0.3750000   0.2562585   0.0000000), wk =   0.1250000
        k(   19) = (   0.3750000   0.3843878   0.0000000), wk =   0.1250000
        k(   20) = (   0.3750000  -0.5125170   0.0000000), wk =   0.0625000
        k(   21) = (  -0.5000000   0.0000000   0.0000000), wk =   0.0312500
        k(   22) = (  -0.5000000   0.1281293   0.0000000), wk =   0.0625000
        k(   23) = (  -0.5000000   0.2562585   0.0000000), wk =   0.0625000
        k(   24) = (  -0.5000000   0.3843878   0.0000000), wk =   0.0625000
        k(   25) = (  -0.5000000  -0.5125170   0.0000000), wk =   0.0312500

     Dense  grid:  1616397 G-vectors     FFT dimensions: (  64,  64, 810)

     Smooth grid:   311077 G-vectors     FFT dimensions: (  40,  36, 480)

     Estimated max dynamical RAM per process >     515.30 MB

     Estimated total dynamical RAM >      10.06 GB

     Initial potential from superposition of free atoms

     starting charge  228.84827, renormalised to  229.00000

     negative rho (up, down):  8.973E-02 0.000E+00
     Starting wfcs are  201 randomized atomic wfcs

     total cpu time spent up to now is       10.9 secs

     Self-consistent Calculation

     iteration #  1     ecut=    60.00 Ry     beta= 0.20
     Davidson diagonalization with overlap
     ethr =  1.00E-02,  avg # of iterations =  2.0

     negative rho (up, down):  8.737E-02 0.000E+00

     total cpu time spent up to now is       27.2 secs

     total energy              =   -1869.46025446 Ry
     Harris-Foulkes estimate   =   -1871.04148540 Ry
     estimated scf accuracy    <      14.76302538 Ry

     iteration #  2     ecut=    60.00 Ry     beta= 0.20
     Davidson diagonalization with overlap
     ethr =  6.45E-03,  avg # of iterations =  1.0

     negative rho (up, down):  8.608E-02 0.000E+00

     total cpu time spent up to now is       42.0 secs

     total energy              =   -1869.07598860 Ry
     Harris-Foulkes estimate   =   -1869.79992082 Ry
     estimated scf accuracy    <       9.56511193 Ry

     iteration #  3     ecut=    60.00 Ry     beta= 0.20
     Davidson diagonalization with overlap
     ethr =  4.18E-03,  avg # of iterations =  1.0

     negative rho (up, down):  8.504E-02 0.000E+00

     total cpu time spent up to now is       56.9 secs

     total energy              =   -1868.50313448 Ry
     Harris-Foulkes estimate   =   -1869.22279165 Ry
     estimated scf accuracy    <       5.33872302 Ry

     iteration #  4     ecut=    60.00 Ry     beta= 0.20
     Davidson diagonalization with overlap
     ethr =  2.33E-03,  avg # of iterations =  1.0

     negative rho (up, down):  8.484E-02 0.000E+00

     total cpu time spent up to now is       71.6 secs

     total energy              =   -1868.84241337 Ry
     Harris-Foulkes estimate   =   -1868.80490686 Ry
     estimated scf accuracy    <      11.00000894 Ry

     iteration #  5     ecut=    60.00 Ry     beta= 0.20
     Davidson diagonalization with overlap
     ethr =  2.33E-03,  avg # of iterations =  1.0

     negative rho (up, down):  8.533E-02 0.000E+00

     total cpu time spent up to now is       86.2 secs

     total energy              =   -1868.44769593 Ry
     Harris-Foulkes estimate   =   -1868.87163245 Ry
     estimated scf accuracy    <      17.55193056 Ry

     iteration #  6     ecut=    60.00 Ry     beta= 0.20
     Davidson diagonalization with overlap
     ethr =  2.33E-03,  avg # of iterations =  1.0

     negative rho (up, down):  8.570E-02 0.000E+00

     total cpu time spent up to now is      100.7 secs

     total energy              =   -1868.51414060 Ry
     Harris-Foulkes estimate   =   -1868.65833541 Ry
     estimated scf accuracy    <       2.64581911 Ry

     iteration #  7     ecut=    60.00 Ry     beta= 0.20
     Davidson diagonalization with overlap
     ethr =  1.16E-03,  avg # of iterations =  2.0

     negative rho (up, down):  8.638E-02 0.000E+00

     total cpu time spent up to now is      116.3 secs

     total energy              =   -1868.36545663 Ry
     Harris-Foulkes estimate   =   -1868.54797970 Ry
     estimated scf accuracy    <       1.92389950 Ry

     iteration #  8     ecut=    60.00 Ry     beta= 0.20
     Davidson diagonalization with overlap
     ethr =  8.40E-04,  avg # of iterations =  5.9

     negative rho (up, down):  8.824E-02 0.000E+00

     total cpu time spent up to now is      136.2 secs

     total energy              =   -1868.43155695 Ry
     Harris-Foulkes estimate   =   -1868.49261842 Ry
     estimated scf accuracy    <       5.37672698 Ry

     iteration #  9     ecut=    60.00 Ry     beta= 0.20
     Davidson diagonalization with overlap
     ethr =  8.40E-04,  avg # of iterations =  2.9

     negative rho (up, down):  8.757E-02 0.000E+00

     total cpu time spent up to now is      152.9 secs

     total energy              =   -1868.32971932 Ry
     Harris-Foulkes estimate   =   -1868.53796627 Ry
     estimated scf accuracy    <      18.66564085 Ry

     iteration # 10     ecut=    60.00 Ry     beta= 0.20
     Davidson diagonalization with overlap
     ethr =  8.40E-04,  avg # of iterations =  1.0

     negative rho (up, down):  8.897E-02 0.000E+00

     total cpu time spent up to now is      167.5 secs

     total energy              =   -1868.37901462 Ry
     Harris-Foulkes estimate   =   -1868.42532551 Ry
     estimated scf accuracy    <       2.24448502 Ry

     iteration # 11     ecut=    60.00 Ry     beta= 0.20
     Davidson diagonalization with overlap
     ethr =  8.40E-04,  avg # of iterations =  1.0

     negative rho (up, down):  8.881E-02 0.000E+00

     total cpu time spent up to now is      182.0 secs

     total energy              =   -1868.39696256 Ry
     Harris-Foulkes estimate   =   -1868.40194253 Ry
     estimated scf accuracy    <       0.20117695 Ry

     iteration # 12     ecut=    60.00 Ry     beta= 0.20
     Davidson diagonalization with overlap
     ethr =  8.79E-05,  avg # of iterations =  6.7

     negative rho (up, down):  8.922E-02 0.000E+00

     total cpu time spent up to now is      202.8 secs

     total energy              =   -1868.39812309 Ry
     Harris-Foulkes estimate   =   -1868.40241922 Ry
     estimated scf accuracy    <       0.29555153 Ry

     iteration # 13     ecut=    60.00 Ry     beta= 0.20
     Davidson diagonalization with overlap
     ethr =  8.79E-05,  avg # of iterations =  1.0

     negative rho (up, down):  8.927E-02 0.000E+00

     total cpu time spent up to now is      217.3 secs

     total energy              =   -1868.39159227 Ry
     Harris-Foulkes estimate   =   -1868.40036984 Ry
     estimated scf accuracy    <       0.22124029 Ry

     iteration # 14     ecut=    60.00 Ry     beta= 0.20
     Davidson diagonalization with overlap
     ethr =  8.79E-05,  avg # of iterations =  1.0

     negative rho (up, down):  8.970E-02 0.000E+00

     total cpu time spent up to now is      231.8 secs

     total energy              =   -1868.38871004 Ry
     Harris-Foulkes estimate   =   -1868.39392780 Ry
     estimated scf accuracy    <       0.12130652 Ry

     iteration # 15     ecut=    60.00 Ry     beta= 0.20
     Davidson diagonalization with overlap
     ethr =  5.30E-05,  avg # of iterations =  5.7

     negative rho (up, down):  8.932E-02 0.000E+00

     total cpu time spent up to now is      251.0 secs

     total energy              =   -1868.39049062 Ry
     Harris-Foulkes estimate   =   -1868.39077361 Ry
     estimated scf accuracy    <       0.10891406 Ry

     iteration # 16     ecut=    60.00 Ry     beta= 0.20
     Davidson diagonalization with overlap
     ethr =  4.76E-05,  avg # of iterations =  1.0

     negative rho (up, down):  8.961E-02 0.000E+00

     total cpu time spent up to now is      265.6 secs

     total energy              =   -1868.38396785 Ry
     Harris-Foulkes estimate   =   -1868.39160841 Ry
     estimated scf accuracy    <       0.05912607 Ry

     iteration # 17     ecut=    60.00 Ry     beta= 0.20
     Davidson diagonalization with overlap
     ethr =  2.58E-05,  avg # of iterations =  5.4

     negative rho (up, down):  8.942E-02 0.000E+00

     total cpu time spent up to now is      284.9 secs

     total energy              =   -1868.38757213 Ry
     Harris-Foulkes estimate   =   -1868.39206442 Ry
     estimated scf accuracy    <       0.39482465 Ry

     iteration # 18     ecut=    60.00 Ry     beta= 0.20
     Davidson diagonalization with overlap
     ethr =  2.58E-05,  avg # of iterations =  1.2

     negative rho (up, down):  8.914E-02 0.000E+00

     total cpu time spent up to now is      299.6 secs

     total energy              =   -1868.38833739 Ry
     Harris-Foulkes estimate   =   -1868.38921233 Ry
     estimated scf accuracy    <       0.08761424 Ry

     iteration # 19     ecut=    60.00 Ry     beta= 0.20
     Davidson diagonalization with overlap
     ethr =  2.58E-05,  avg # of iterations =  1.0

     negative rho (up, down):  8.887E-02 0.000E+00

     total cpu time spent up to now is      314.0 secs

     total energy              =   -1868.38799424 Ry
     Harris-Foulkes estimate   =   -1868.38858929 Ry
     estimated scf accuracy    <       0.08873072 Ry

     iteration # 20     ecut=    60.00 Ry     beta= 0.20
     Davidson diagonalization with overlap
     ethr =  2.58E-05,  avg # of iterations =  1.9

     negative rho (up, down):  8.992E-02 0.000E+00

     total cpu time spent up to now is      329.4 secs

     total energy              =   -1868.38697544 Ry
     Harris-Foulkes estimate   =   -1868.38808130 Ry
     estimated scf accuracy    <       0.09007561 Ry

     iteration # 21     ecut=    60.00 Ry     beta= 0.20
     Davidson diagonalization with overlap
     ethr =  2.58E-05,  avg # of iterations =  1.0

     negative rho (up, down):  9.586E-02 0.000E+00

     total cpu time spent up to now is      344.1 secs

     total energy              =   -1868.38649119 Ry
     Harris-Foulkes estimate   =   -1868.38719848 Ry
     estimated scf accuracy    <       0.03593213 Ry

     iteration # 22     ecut=    60.00 Ry     beta= 0.20
     Davidson diagonalization with overlap
     ethr =  1.57E-05,  avg # of iterations =  2.5

     negative rho (up, down):  1.014E-01 0.000E+00

     total cpu time spent up to now is      360.2 secs

     total energy              =   -1868.38622069 Ry
     Harris-Foulkes estimate   =   -1868.38671097 Ry
     estimated scf accuracy    <       0.00843823 Ry

     iteration # 23     ecut=    60.00 Ry     beta= 0.20
     Davidson diagonalization with overlap
     ethr =  3.68E-06,  avg # of iterations =  6.4

     negative rho (up, down):  1.115E-01 0.000E+00

     total cpu time spent up to now is      380.3 secs

     total energy              =   -1868.38533620 Ry
     Harris-Foulkes estimate   =   -1868.38627173 Ry
     estimated scf accuracy    <       0.00540931 Ry

     iteration # 24     ecut=    60.00 Ry     beta= 0.20
     Davidson diagonalization with overlap
     ethr =  2.36E-06,  avg # of iterations =  9.1

     negative rho (up, down):  1.028E-01 0.000E+00

     total cpu time spent up to now is      404.2 secs

     total energy              =   -1868.38498929 Ry
     Harris-Foulkes estimate   =   -1868.38551844 Ry
     estimated scf accuracy    <       0.00480255 Ry

     iteration # 25     ecut=    60.00 Ry     beta= 0.20
     Davidson diagonalization with overlap
     ethr =  2.10E-06,  avg # of iterations =  4.0

     negative rho (up, down):  9.925E-02 0.000E+00

     total cpu time spent up to now is      421.7 secs

     total energy              =   -1868.38460411 Ry
     Harris-Foulkes estimate   =   -1868.38509367 Ry
     estimated scf accuracy    <       0.00253881 Ry

     iteration # 26     ecut=    60.00 Ry     beta= 0.20
     Davidson diagonalization with overlap
     c_bands:  1 eigenvalues not converged
     ethr =  1.11E-06,  avg # of iterations =  7.6

     negative rho (up, down):  9.257E-02 0.000E+00

     total cpu time spent up to now is      443.6 secs

     total energy              =   -1868.38449728 Ry
     Harris-Foulkes estimate   =   -1868.38464774 Ry
     estimated scf accuracy    <       0.00177393 Ry

     iteration # 27     ecut=    60.00 Ry     beta= 0.20
     Davidson diagonalization with overlap
     c_bands:  1 eigenvalues not converged
     c_bands:  1 eigenvalues not converged
     ethr =  7.75E-07,  avg # of iterations =  7.4

     negative rho (up, down):  9.025E-02 0.000E+00

     total cpu time spent up to now is      465.4 secs

     total energy              =   -1868.38447058 Ry
     Harris-Foulkes estimate   =   -1868.38452881 Ry
     estimated scf accuracy    <       0.00093312 Ry

     iteration # 28     ecut=    60.00 Ry     beta= 0.20
     Davidson diagonalization with overlap
     ethr =  4.07E-07,  avg # of iterations =  3.2

     negative rho (up, down):  9.028E-02 0.000E+00

     total cpu time spent up to now is      482.1 secs

     total energy              =   -1868.38446569 Ry
     Harris-Foulkes estimate   =   -1868.38447907 Ry
     estimated scf accuracy    <       0.00075947 Ry

     iteration # 29     ecut=    60.00 Ry     beta= 0.20
     Davidson diagonalization with overlap
     ethr =  3.32E-07,  avg # of iterations =  2.0

     negative rho (up, down):  8.929E-02 0.000E+00

     total cpu time spent up to now is      497.7 secs

     total energy              =   -1868.38451239 Ry
     Harris-Foulkes estimate   =   -1868.38447377 Ry
     estimated scf accuracy    <       0.00049840 Ry

     iteration # 30     ecut=    60.00 Ry     beta= 0.20
     Davidson diagonalization with overlap
     ethr =  2.18E-07,  avg # of iterations =  3.7

     negative rho (up, down):  8.966E-02 0.000E+00

     total cpu time spent up to now is      515.1 secs

     total energy              =   -1868.38453225 Ry
     Harris-Foulkes estimate   =   -1868.38451772 Ry
     estimated scf accuracy    <       0.00016459 Ry

     iteration # 31     ecut=    60.00 Ry     beta= 0.20
     Davidson diagonalization with overlap
     ethr =  7.19E-08,  avg # of iterations =  3.2

     negative rho (up, down):  8.966E-02 0.000E+00

     total cpu time spent up to now is      531.8 secs

     total energy              =   -1868.38452909 Ry
     Harris-Foulkes estimate   =   -1868.38453645 Ry
     estimated scf accuracy    <       0.00004874 Ry

     iteration # 32     ecut=    60.00 Ry     beta= 0.20
     Davidson diagonalization with overlap
     ethr =  2.13E-08,  avg # of iterations =  1.6

     negative rho (up, down):  8.977E-02 0.000E+00

     total cpu time spent up to now is      547.2 secs

     total energy              =   -1868.38453857 Ry
     Harris-Foulkes estimate   =   -1868.38453056 Ry
     estimated scf accuracy    <       0.00002550 Ry

     iteration # 33     ecut=    60.00 Ry     beta= 0.20
     Davidson diagonalization with overlap
     ethr =  1.11E-08,  avg # of iterations =  2.2

     negative rho (up, down):  8.984E-02 0.000E+00

     total cpu time spent up to now is      563.4 secs

     total energy              =   -1868.38454064 Ry
     Harris-Foulkes estimate   =   -1868.38454045 Ry
     estimated scf accuracy    <       0.00000880 Ry

     iteration # 34     ecut=    60.00 Ry     beta= 0.20
     Davidson diagonalization with overlap
     ethr =  3.84E-09,  avg # of iterations =  1.0

     negative rho (up, down):  8.987E-02 0.000E+00

     total cpu time spent up to now is      578.0 secs

     total energy              =   -1868.38454119 Ry
     Harris-Foulkes estimate   =   -1868.38454084 Ry
     estimated scf accuracy    <       0.00000459 Ry

     iteration # 35     ecut=    60.00 Ry     beta= 0.20
     Davidson diagonalization with overlap
     ethr =  2.00E-09,  avg # of iterations =  1.2

     negative rho (up, down):  8.996E-02 0.000E+00

     total cpu time spent up to now is      592.8 secs

     total energy              =   -1868.38454067 Ry
     Harris-Foulkes estimate   =   -1868.38454129 Ry
     estimated scf accuracy    <       0.00000280 Ry

     iteration # 36     ecut=    60.00 Ry     beta= 0.20
     Davidson diagonalization with overlap
     ethr =  1.22E-09,  avg # of iterations =  2.0

     negative rho (up, down):  9.002E-02 0.000E+00

     total cpu time spent up to now is      608.8 secs

     total energy              =   -1868.38454047 Ry
     Harris-Foulkes estimate   =   -1868.38454078 Ry
     estimated scf accuracy    <       0.00000120 Ry

     iteration # 37     ecut=    60.00 Ry     beta= 0.20
     Davidson diagonalization with overlap
     ethr =  5.22E-10,  avg # of iterations =  2.1

     negative rho (up, down):  9.004E-02 0.000E+00

     total cpu time spent up to now is      624.6 secs

     End of self-consistent calculation

          k = 0.0000 0.0000 0.0000 ( 38797 PWs)   bands (ev):

   -41.5846 -38.7728 -23.6922 -23.4267 -23.2841 -23.0200 -21.7269 -21.4582
   -21.4521 -19.3075 -18.7775 -18.7676 -16.7810 -16.1023 -15.8555 -15.2429
   -15.1418 -14.9368 -14.9110 -14.8877 -14.7928 -14.6261 -14.4091 -14.3300
   -14.2960 -14.1151 -13.6283  -9.0042  -8.6478  -8.6273  -8.6171  -8.5558
    -8.4191  -8.3923  -8.2378  -8.2192  -8.1457  -8.0485  -8.0134  -3.5609
    -3.5370  -3.0842  -2.7310  -2.6978  -2.6703  -2.5497  -2.5099  -2.4600
    -2.4434  -2.3659  -2.1396  -1.5364  -1.5020  -1.4617  -1.4284  -1.2874
    -1.1866  -1.1087  -1.0613  -1.0343  -1.0195  -0.8297  -0.7569  -0.7200
    -0.6834  -0.6275  -0.6013  -0.5906  -0.5302  -0.5188  -0.5076  -0.5016
    -0.4810  -0.4245  -0.3674  -0.3604  -0.2537  -0.2484  -0.2069  -0.1474
    -0.1184  -0.1063  -0.1056  -0.0738  -0.0587  -0.0250   0.0095   0.0111
     0.0323   0.1497   0.1655   0.2956   0.4332   0.4521   0.5810   0.6382
     0.6780   0.7170   0.7332   0.7973   0.8377   0.8526   0.9426   1.0552
     1.2723   1.2879   1.3321   1.3352   1.4448   1.4635   1.5337   1.6004
     1.6333   1.7257   1.7443   1.7567   2.0206   2.0497   2.0975   2.1430
     3.4481   4.5634   4.6243   4.8036   5.0368   5.3149   5.3807   6.0123
     6.0298   6.0504   6.2456   6.2889   6.4026   6.6564   6.9972   7.4885
     7.5257   7.5667

          k = 0.0000 0.1281 0.0000 ( 38797 PWs)   bands (ev):

   -41.5829 -38.7705 -23.6715 -23.4051 -23.2633 -22.9979 -21.7197 -21.4914
   -21.4559 -19.2715 -18.8718 -18.7743 -16.7314 -15.9936 -15.8730 -15.1999
   -15.1491 -14.9379 -14.9201 -14.8571 -14.7490 -14.6725 -14.4144 -14.3550
   -14.3321 -14.1792 -13.6586  -8.9929  -8.6390  -8.6301  -8.5893  -8.5425
    -8.4117  -8.3778  -8.2393  -8.1989  -8.1292  -8.0339  -8.0058  -3.6687
    -3.5133  -2.9937  -2.8343  -2.8204  -2.6817  -2.6502  -2.5113  -2.4962
    -2.3711  -2.3504  -2.1488  -1.9975  -1.7934  -1.6286  -1.5749  -1.5591
    -1.4735  -1.3687  -1.2789  -1.2690  -1.0847  -1.0799  -1.0675  -0.9753
    -0.8490  -0.8299  -0.7716  -0.7529  -0.6873  -0.6652  -0.5833  -0.5008
    -0.4002  -0.3672  -0.3561  -0.3136  -0.3105  -0.2113  -0.2034  -0.1819
    -0.1256  -0.1053  -0.0945  -0.0422  -0.0275  -0.0116   0.0046   0.1975
     0.2661   0.2735   0.2971   0.3593   0.3928   0.4404   0.5283   0.5918
     0.7973   0.8306   0.8706   0.9650   0.9739   1.0460   1.0466   1.0919
     1.1642   1.2868   1.3114   1.3145   1.3830   1.4313   1.5453   1.5952
     1.6337   1.7000   1.8820   2.0584   2.0716   2.2729   2.3583   2.5030
     3.5489   4.5698   4.9987   5.1433   5.1516   5.2283   5.5334   6.0493
     6.0868   6.3496   6.5101   6.6688   6.7090   6.9013   7.2154   7.4653
     7.6929   7.7569

          k = 0.0000 0.2563 0.0000 ( 38804 PWs)   bands (ev):

   -41.5787 -38.7649 -23.6206 -23.3520 -23.2121 -22.9436 -21.7082 -21.5777
   -21.4502 -19.1805 -19.0968 -18.7665 -16.5976 -15.9349 -15.7460 -15.2260
   -15.0842 -14.9932 -14.9767 -14.7907 -14.7392 -14.6016 -14.4961 -14.3916
   -14.3325 -14.3049 -13.7498  -8.9641  -8.6808  -8.5895  -8.5126  -8.4945
    -8.4528  -8.2829  -8.2746  -8.1017  -8.0897  -8.0764  -7.8988  -3.9329
    -3.3692  -3.2652  -3.1477  -3.0162  -2.8060  -2.6886  -2.6605  -2.6109
    -2.5403  -2.3979  -2.3898  -2.3165  -2.3011  -2.2975  -2.1244  -1.8675
    -1.8195  -1.5471  -1.4750  -1.4547  -1.4056  -1.3648  -1.2552  -1.2405
    -1.2214  -1.1355  -1.0495  -0.9999  -0.9430  -0.9114  -0.7332  -0.6998
    -0.6581  -0.6459  -0.5475  -0.4955  -0.3870  -0.3329  -0.2888  -0.2088
    -0.1559  -0.0697  -0.0524  -0.0326  -0.0316   0.0489   0.1202   0.2258
     0.4901   0.5011   0.5366   0.6650   0.7041   0.7195   0.7349   0.8600
     0.8669   0.9098   0.9681   1.0014   1.0320   1.1015   1.1020   1.1861
     1.2075   1.2733   1.3698   1.3709   1.4980   1.5675   1.6127   1.6730
     1.7203   1.9841   2.0259   2.0881   2.1312   2.6352   2.8225   3.1408
     3.7019   4.4924   4.8568   5.8693   5.8962   6.0114   6.1439   6.1939
     6.2345   7.0875   7.2054   7.3353   7.3769   7.5147   7.5275   7.7278
     7.9665   8.1455

          k = 0.0000 0.3844 0.0000 ( 38732 PWs)   bands (ev):

   -41.5744 -38.7593 -23.5684 -23.2975 -23.1596 -22.8876 -21.7299 -21.6275
   -21.4445 -19.2946 -19.0823 -18.7588 -16.4158 -16.0529 -15.4970 -15.3682
   -15.0915 -15.0842 -14.9429 -14.7595 -14.7411 -14.6374 -14.4807 -14.3830
   -14.3326 -14.2387 -13.9034  -8.9310  -8.7187  -8.5495  -8.4861  -8.4788
    -8.3950  -8.3233  -8.1656  -8.1146  -8.0460  -7.9995  -7.7854  -4.1792
    -3.7225  -3.6155  -3.3938  -3.2166  -3.2062  -3.1256  -2.9133  -2.7933
    -2.7015  -2.5685  -2.5016  -2.3748  -2.3392  -2.3332  -2.2028  -2.1321
    -2.0558  -1.8279  -1.6936  -1.6723  -1.5070  -1.4928  -1.4908  -1.4206
    -1.3748  -1.3704  -1.2412  -1.2278  -1.1419  -1.0751  -0.9435  -0.9113
    -0.8943  -0.8562  -0.7536  -0.6912  -0.6053  -0.5135  -0.2166  -0.1192
    -0.0757  -0.0560  -0.0548  -0.0477  -0.0282   0.0825   0.3076   0.4138
     0.4418   0.5190   0.5919   0.6531   0.7212   0.7401   0.8126   0.9333
     0.9641   0.9989   1.0584   1.1248   1.1975   1.1980   1.2507   1.3042
     1.3322   1.4706   1.4752   1.5816   1.5940   1.7385   1.8000   1.9736
     2.0202   2.0577   2.1067   2.1404   2.3444   2.6066   2.8099   3.6880
     3.7356   4.5737   4.6270   6.2664   6.3834   6.6445   6.7919   6.9881
     6.9966   7.2229   7.2285   7.7683   8.0000   8.1096   8.2014   8.2588
     8.3123   8.3878

          k = 0.0000-0.5125 0.0000 ( 38850 PWs)   bands (ev):

   -41.5727 -38.7570 -23.5463 -23.2745 -23.1374 -22.8640 -21.7556 -21.6304
   -21.4422 -19.3706 -19.0392 -18.7556 -16.2492 -16.1956 -15.4490 -15.3655
   -15.1501 -15.1394 -14.8610 -14.7673 -14.7454 -14.6962 -14.5362 -14.3014
   -14.2471 -14.1110 -14.1038  -8.9148  -8.7350  -8.5333  -8.4974  -8.4622
    -8.3523  -8.3411  -8.1277  -8.1185  -8.0282  -7.9555  -7.7363  -4.2820
    -3.9560  -3.7658  -3.5286  -3.4486  -3.4434  -3.0921  -2.8159  -2.7891
    -2.7716  -2.7353  -2.6032  -2.5402  -2.4326  -2.2211  -2.1877  -2.1326
    -2.0135  -1.9546  -1.7800  -1.7524  -1.6795  -1.6424  -1.5300  -1.4815
    -1.4726  -1.3455  -1.2584  -1.2522  -1.1953  -1.1686  -1.0305  -1.0008
    -0.9710  -0.9669  -0.9193  -0.7451  -0.7111  -0.5024  -0.1456  -0.1142
    -0.1031  -0.0645  -0.0600  -0.0222  -0.0195   0.0921   0.3962   0.4962
     0.5009   0.5183   0.5306   0.6418   0.7218   0.7412   0.8813   0.8865
     0.9386   0.9886   1.1080   1.1495   1.1555   1.2273   1.2468   1.3825
     1.4029   1.4865   1.6326   1.8205   1.8843   1.8878   1.9002   1.9356
     1.9759   2.1233   2.1826   2.2507   2.4666   2.5086   2.6928   3.6762
     3.8921   4.5428   4.6614   6.2924   6.5394   6.8434   7.1130   7.1803
     7.2762   7.3924   7.4483   7.6647   8.1555   8.2922   8.3076   8.5466
     8.5569   8.8377

          k = 0.1250 0.0000 0.0000 ( 38782 PWs)   bands (ev):

   -41.5833 -38.7710 -23.6747 -23.4083 -23.2664 -23.0010 -21.7209 -21.4937
   -21.4504 -19.2750 -18.8776 -18.7651 -16.7317 -15.9868 -15.8718 -15.2700
   -15.1695 -14.9651 -14.9590 -14.8658 -14.7692 -14.6552 -14.4096 -14.3497
   -14.3281 -14.1442 -13.6582  -9.0266  -8.6590  -8.6265  -8.5858  -8.5382
    -8.3840  -8.3580  -8.2001  -8.1870  -8.1617  -8.0087  -7.9776  -3.6622
    -3.4938  -3.0028  -2.8225  -2.7517  -2.6484  -2.6205  -2.4934  -2.4934
    -2.4327  -2.3889  -2.1635  -1.6299  -1.5587  -1.5113  -1.4997  -1.4111
    -1.3646  -1.2214  -1.1033  -1.1010  -1.0559  -0.9901  -0.9402  -0.8051
    -0.7938  -0.7935  -0.7052  -0.7019  -0.6951  -0.5890  -0.5117  -0.5057
    -0.4655  -0.4028  -0.3356  -0.3195  -0.2437  -0.1971  -0.1801  -0.1749
    -0.1393  -0.1167  -0.1057  -0.0856  -0.0818   0.0056   0.0239   0.0815
     0.0872   0.1709   0.3225   0.3354   0.3886   0.3920   0.5024   0.5955
     0.5995   0.6600   0.7606   0.8037   0.8855   1.0145   1.0348   1.0762
     1.2089   1.3298   1.3708   1.4171   1.4319   1.4805   1.5737   1.6389
     1.6483   1.6595   1.6945   1.8064   2.0633   2.0756   2.0961   2.2661
     3.5411   4.4865   4.8199   4.9634   5.2058   5.2304   5.5354   5.8362
     6.1025   6.2692   6.4774   6.6117   6.6393   6.8671   7.2156   7.5063
     7.6764   7.7487

          k = 0.1250 0.1281 0.0000 ( 38802 PWs)   bands (ev):

   -41.5815 -38.7687 -23.6547 -23.3874 -23.2462 -22.9797 -21.7139 -21.4954
   -21.4851 -19.2395 -18.8813 -18.8601 -16.6836 -15.8854 -15.8791 -15.2236
   -15.1670 -14.9678 -14.9555 -14.8380 -14.7157 -14.7089 -14.4090 -14.3921
   -14.3250 -14.1968 -13.6851  -9.0119  -8.7592  -8.6445  -8.5622  -8.5315
    -8.4515  -8.3539  -8.2342  -8.1865  -8.1141  -8.0648  -7.8587  -3.7879
    -3.4634  -2.9483  -2.9166  -2.8673  -2.6808  -2.6384  -2.5290  -2.5243
    -2.4799  -2.3100  -2.1443  -2.0095  -1.7767  -1.7621  -1.6226  -1.6161
    -1.5999  -1.5674  -1.4382  -1.4182  -1.2673  -1.1176  -1.0957  -1.0890
    -0.9807  -0.8727  -0.8500  -0.7658  -0.7132  -0.6922  -0.5762  -0.4885
    -0.4509  -0.3742  -0.3628  -0.3335  -0.2640  -0.2560  -0.2001  -0.1981
    -0.1562  -0.1374  -0.1110  -0.0756  -0.0527  -0.0058   0.0164   0.1967
     0.2455   0.3291   0.3387   0.4373   0.4933   0.5557   0.5991   0.6131
     0.6320   0.8117   0.8612   0.8939   0.9028   1.0774   1.0883   1.1928
     1.2435   1.2627   1.2694   1.3810   1.3819   1.5894   1.6833   1.7119
     1.7416   1.7749   1.8411   2.0478   2.2942   2.3714   2.4652   2.5130
     3.6265   4.5091   5.0204   5.1463   5.2723   5.3825   5.6825   5.9332
     6.1036   6.5791   6.7855   6.8749   6.9202   7.0892   7.3560   7.4551
     7.8518   7.9287

          k = 0.1250 0.2563 0.0000 ( 38854 PWs)   bands (ev):

   -41.5774 -38.7631 -23.6054 -23.3362 -23.1967 -22.9274 -21.7032 -21.5764
   -21.4835 -19.1497 -19.0923 -18.8619 -16.5542 -15.9371 -15.6340 -15.2110
   -15.1003 -15.0015 -14.9782 -14.7957 -14.7736 -14.5640 -14.4979 -14.3829
   -14.3280 -14.2957 -13.7664  -8.9775  -8.8682  -8.6556  -8.5897  -8.5325
    -8.4695  -8.4054  -8.2763  -8.1901  -8.0931  -8.0273  -7.8142  -4.0550
    -3.3829  -3.3648  -3.1670  -3.0089  -2.7455  -2.6978  -2.6803  -2.6211
    -2.5754  -2.4935  -2.3958  -2.3840  -2.3134  -2.2974  -2.2407  -2.0621
    -1.8885  -1.6107  -1.5675  -1.5216  -1.4637  -1.4538  -1.4401  -1.3635
    -1.2398  -1.2023  -1.0667  -0.9375  -0.9234  -0.8567  -0.8454  -0.7387
    -0.6975  -0.5971  -0.5141  -0.4524  -0.4054  -0.2637  -0.2124  -0.1745
    -0.1656  -0.1467  -0.0690  -0.0342  -0.0196   0.1100   0.1782   0.2936
     0.3361   0.5564   0.6147   0.6758   0.7591   0.7883   0.8231   0.8434
     0.8524   0.9606   1.0065   1.0309   1.0629   1.0797   1.1011   1.1980
     1.2208   1.4285   1.4843   1.5598   1.5830   1.6201   1.6651   1.8057
     1.8928   2.0654   2.0838   2.3164   2.6097   2.6399   2.8593   3.1389
     3.7913   4.4468   4.7328   5.8708   5.9497   6.0690   6.1090   6.2076
     6.2478   7.1844   7.2998   7.4056   7.5741   7.6762   7.6819   7.8094
     8.0297   8.1380

          k = 0.1250 0.3844 0.0000 ( 38857 PWs)   bands (ev):

   -41.5732 -38.7576 -23.5548 -23.2837 -23.1460 -22.8736 -21.7262 -21.6252
   -21.4769 -19.2886 -19.0529 -18.8520 -16.3798 -16.0415 -15.3951 -15.3232
   -15.0664 -15.0552 -14.9389 -14.8023 -14.7377 -14.6183 -14.4616 -14.3546
   -14.3287 -14.2332 -13.9049  -8.9453  -8.8839  -8.6602  -8.5597  -8.5356
    -8.4838  -8.4231  -8.2875  -8.2381  -8.0725  -8.0571  -7.8609  -4.3122
    -3.7625  -3.6755  -3.4445  -3.2508  -3.2065  -3.1976  -2.9271  -2.7962
    -2.6741  -2.6364  -2.6004  -2.5004  -2.4323  -2.4196  -2.2703  -2.0818
    -1.9812  -1.9147  -1.8176  -1.7519  -1.6410  -1.4886  -1.4810  -1.4638
    -1.3552  -1.3012  -1.2946  -1.1643  -1.1212  -1.0825  -1.0372  -0.9926
    -0.9428  -0.8459  -0.6256  -0.5167  -0.4462  -0.3936  -0.1793  -0.1744
    -0.1289  -0.0529   0.0026   0.0087   0.0576   0.1711   0.2671   0.4279
     0.4440   0.5885   0.6171   0.7208   0.7585   0.8064   0.8671   0.9227
     0.9740   1.0209   1.1228   1.1735   1.2263   1.2433   1.3093   1.3715
     1.4692   1.5992   1.6905   1.7293   1.7357   1.8342   1.9942   2.0533
     2.0863   2.0993   2.3315   2.4075   2.5633   2.6311   2.8837   3.6633
     3.8360   4.4752   4.5473   6.1352   6.2905   6.5979   6.6740   6.8618
     6.8799   7.1188   7.3611   7.8883   7.9591   8.1882   8.2557   8.3151
     8.3644   8.5409

          k = 0.1250-0.5125 0.0000 ( 38824 PWs)   bands (ev):

   -41.5714 -38.7552 -23.5335 -23.2615 -23.1246 -22.8509 -21.7524 -21.6279
   -21.4741 -19.3641 -19.0105 -18.8479 -16.2201 -16.1745 -15.4082 -15.2481
   -15.1154 -15.1003 -14.8266 -14.7927 -14.7385 -14.7101 -14.5102 -14.3001
   -14.2409 -14.1036 -14.0851  -8.9310  -8.8652  -8.6349  -8.5618  -8.5432
    -8.4714  -8.4281  -8.2862  -8.2650  -8.1132  -8.0416  -7.9076  -4.4205
    -3.9561  -3.8715  -3.5866  -3.4428  -3.4325  -3.1115  -3.0594  -3.0478
    -2.7083  -2.6559  -2.6182  -2.5363  -2.3805  -2.3145  -2.2960  -2.1354
    -2.0779  -2.0113  -1.9340  -1.8122  -1.6938  -1.5726  -1.4955  -1.4338
    -1.3773  -1.3283  -1.3267  -1.2644  -1.1929  -1.1394  -1.1213  -1.0761
    -1.0332  -0.9371  -0.6605  -0.5479  -0.5259  -0.4384  -0.1821  -0.1704
    -0.1121  -0.0377   0.0074   0.0539   0.1348   0.1930   0.3017   0.4786
     0.5296   0.5836   0.6009   0.7027   0.7462   0.7958   0.8824   0.8927
     0.9178   1.0458   1.0996   1.2339   1.2831   1.3203   1.3392   1.4712
     1.6233   1.7374   1.8745   1.8774   1.8937   1.9456   2.0633   2.1616
     2.1834   2.2455   2.2493   2.4485   2.5199   2.5668   2.7899   3.7675
     3.8438   4.4457   4.6002   6.1804   6.3792   6.7872   6.8465   6.9493
     7.1124   7.2071   7.4297   7.7680   8.1853   8.4562   8.4713   8.6555
     8.7086   8.7850

          k = 0.2500 0.0000 0.0000 ( 38902 PWs)   bands (ev):

   -41.5801 -38.7667 -23.6318 -23.3631 -23.2230 -22.9543 -21.7100 -21.5735
   -21.4461 -19.1933 -19.0925 -18.7590 -16.5994 -15.9294 -15.7225 -15.3517
   -15.2754 -15.0859 -15.0698 -14.8285 -14.6897 -14.6495 -14.4799 -14.4039
   -14.3167 -14.1961 -13.7452  -9.0663  -8.6681  -8.6102  -8.5080  -8.5053
    -8.3140  -8.2727  -8.1721  -8.1361  -8.1070  -7.9414  -7.8885  -3.8702
    -3.3637  -3.1309  -3.0425  -2.8627  -2.6375  -2.5963  -2.5414  -2.5040
    -2.3977  -2.3040  -2.2070  -2.1740  -1.8845  -1.6874  -1.5779  -1.5595
    -1.4777  -1.3603  -1.3291  -1.3226  -1.1904  -1.1515  -1.0967  -1.0901
    -1.0669  -1.0427  -1.0053  -0.9036  -0.7849  -0.7608  -0.5555  -0.5323
    -0.4493  -0.4182  -0.3977  -0.3720  -0.2674  -0.2266  -0.1960  -0.1454
    -0.1294  -0.1248  -0.1131  -0.0962   0.0206   0.0417   0.0845   0.1388
     0.1599   0.1907   0.2475   0.3827   0.4420   0.4818   0.5041   0.5915
     0.6544   0.7520   0.8795   0.9081   0.9435   1.0180   1.0334   1.1878
     1.1879   1.2208   1.2787   1.3711   1.3721   1.4887   1.5217   1.5566
     1.6672   1.8556   1.9744   1.9924   2.1003   2.1026   2.2008   2.4628
     3.7027   4.2309   4.9991   5.2741   5.3860   5.6505   6.0140   6.0730
     6.1819   6.9003   6.9848   7.0868   7.2081   7.3894   7.4606   7.6796
     8.0642   8.1602

          k = 0.2500 0.1281 0.0000 ( 38874 PWs)   bands (ev):

   -41.5784 -38.7644 -23.6134 -23.3441 -23.2045 -22.9350 -21.7038 -21.5715
   -21.4833 -19.1592 -19.0867 -18.8590 -16.5557 -15.9328 -15.6176 -15.2985
   -15.2463 -15.0674 -15.0450 -14.7992 -14.7550 -14.5979 -14.4866 -14.3935
   -14.3050 -14.2255 -13.7623  -9.0606  -8.7912  -8.6750  -8.5853  -8.5588
    -8.4196  -8.3573  -8.2433  -8.1600  -8.1154  -8.0012  -7.7838  -4.0122
    -3.3809  -3.2690  -3.0867  -2.8025  -2.6314  -2.6186  -2.6163  -2.5805
    -2.5155  -2.3460  -2.2227  -2.1643  -2.1322  -2.0337  -1.7277  -1.7201
    -1.6508  -1.6194  -1.5655  -1.4857  -1.4512  -1.4467  -1.3370  -1.2916
    -1.1853  -1.0752  -0.9443  -0.9248  -0.8583  -0.8339  -0.6464  -0.4732
    -0.4456  -0.4111  -0.3721  -0.3507  -0.3389  -0.2738  -0.2205  -0.1950
    -0.1598  -0.1410  -0.0547  -0.0257   0.0709   0.1433   0.1440   0.1889
     0.2129   0.2893   0.3596   0.4010   0.5845   0.6495   0.6868   0.7293
     0.7533   0.7902   0.8846   0.9083   1.0352   1.0764   1.0932   1.1032
     1.1516   1.1953   1.3181   1.4823   1.5018   1.5533   1.7187   1.7711
     1.9206   2.0671   2.1270   2.3423   2.3556   2.4599   2.5104   2.7707
     3.7945   4.2425   4.8258   5.5163   5.6293   5.6750   6.0938   6.1429
     6.1652   7.1559   7.2122   7.2448   7.3810   7.4584   7.6216   7.8199
     8.1304   8.2140

          k = 0.2500 0.2563 0.0000 ( 38887 PWs)   bands (ev):

   -41.5742 -38.7588 -23.5681 -23.2976 -23.1592 -22.8877 -21.6941 -21.5908
   -21.5410 -19.0929 -19.0733 -19.0564 -16.4394 -15.9562 -15.3859 -15.2032
   -15.1386 -15.0304 -14.9952 -14.8995 -14.7322 -14.5085 -14.4592 -14.3611
   -14.3110 -14.2709 -13.8159  -9.0962  -8.9910  -8.8618  -8.6734  -8.6081
    -8.5628  -8.4848  -8.4517  -8.2572  -8.1090  -8.0964  -7.8831  -4.3489
    -3.6890  -3.3844  -3.3121  -2.9822  -2.9179  -2.7651  -2.7511  -2.6969
    -2.6349  -2.6129  -2.5352  -2.4040  -2.3923  -2.3009  -2.1335  -2.1297
    -2.0499  -2.0291  -1.9758  -1.8434  -1.4927  -1.4910  -1.4258  -1.3655
    -1.2492  -1.2204  -1.1610  -0.9857  -0.9582  -0.8761  -0.8170  -0.7709
    -0.7187  -0.6749  -0.6274  -0.4416  -0.4001  -0.3062  -0.2008  -0.0764
     0.0068   0.0396   0.0668   0.0777   0.1393   0.2249   0.2640   0.3436
     0.5941   0.6418   0.6768   0.7406   0.7498   0.7537   0.8413   0.8665
     0.8872   0.9643   1.0430   1.1025   1.1282   1.1905   1.2693   1.3374
     1.4185   1.4695   1.5045   1.5626   1.6156   1.6881   1.7382   2.0032
     2.2642   2.3243   2.6082   2.7364   2.7669   2.9253   3.1319   3.2644
     4.0275   4.2094   4.5149   5.7810   6.0295   6.1246   6.1752   6.1915
     6.5034   6.9813   7.6389   7.6965   7.8912   7.9167   8.0999   8.1570
     8.2409   8.3628

          k = 0.2500 0.3844 0.0000 ( 38919 PWs)   bands (ev):

   -41.5700 -38.7533 -23.5218 -23.2500 -23.1129 -22.8393 -21.7175 -21.6330
   -21.5393 -19.2741 -19.0569 -18.9778 -16.2869 -16.0221 -15.2616 -15.1329
   -15.0065 -14.9748 -14.9524 -14.9337 -14.6855 -14.5642 -14.4148 -14.3175
   -14.2883 -14.2130 -13.9112  -9.1833  -8.9939  -8.9684  -8.7950  -8.7151
    -8.5941  -8.5866  -8.4962  -8.4936  -8.3123  -8.1244  -8.0833  -4.6769
    -4.1031  -3.6943  -3.5892  -3.3940  -3.2350  -3.1885  -3.1800  -2.9823
    -2.7912  -2.7182  -2.6366  -2.5022  -2.4987  -2.4921  -2.4373  -2.2649
    -2.0951  -2.0384  -1.9830  -1.9279  -1.5919  -1.5548  -1.4700  -1.4260
    -1.4249  -1.3633  -1.1932  -1.1175  -1.0900  -0.9863  -0.9567  -0.9329
    -0.8959  -0.8286  -0.7258  -0.4472  -0.3838  -0.2968  -0.1629   0.0174
     0.0967   0.0996   0.1864   0.2248   0.3106   0.4103   0.4582   0.4755
     0.6551   0.6726   0.7664   0.8244   0.8875   0.9590   0.9843   1.0943
     1.1166   1.1631   1.1833   1.2175   1.3327   1.3859   1.4325   1.4486
     1.5146   1.6252   1.7068   1.7921   1.8080   1.9281   2.0118   2.2665
     2.4893   2.5387   2.6372   2.7106   3.0142   3.1932   3.5342   3.5815
     4.0168   4.2434   4.4609   5.5852   6.1930   6.2021   6.3952   6.4919
     6.6412   7.2628   7.7310   8.0550   8.0770   8.3077   8.4824   8.5116
     8.5844   8.7867

          k = 0.2500-0.5125 0.0000 ( 38962 PWs)   bands (ev):

   -41.5683 -38.7510 -23.5024 -23.2300 -23.0934 -22.8189 -21.7446 -21.6354
   -21.5354 -19.3486 -19.0511 -18.9371 -16.1480 -16.1268 -15.3047 -15.0294
   -15.0012 -14.9867 -14.9365 -14.7395 -14.7158 -14.6684 -14.4449 -14.2966
   -14.2308 -14.0991 -14.0224  -9.1711  -8.9848  -8.9530  -8.8784  -8.7761
    -8.6535  -8.5807  -8.5727  -8.4976  -8.4355  -8.2786  -8.0734  -4.8119
    -4.2664  -3.9110  -3.7740  -3.4299  -3.4189  -3.4140  -3.3000  -3.1819
    -2.7850  -2.7173  -2.6554  -2.6037  -2.5296  -2.4868  -2.4179  -2.3801
    -2.0683  -2.0300  -2.0007  -1.9520  -1.6838  -1.5995  -1.5164  -1.4646
    -1.4504  -1.3422  -1.2389  -1.1753  -1.1301  -1.0597  -1.0049  -0.9356
    -0.9026  -0.8861  -0.7416  -0.4621  -0.3493  -0.2822  -0.1460   0.0342
     0.0976   0.1035   0.2363   0.3718   0.3742   0.5142   0.5411   0.5514
     0.7121   0.7254   0.7612   0.8268   0.9586   0.9967   1.0188   1.0242
     1.0375   1.2086   1.2340   1.3212   1.3970   1.4200   1.4458   1.5492
     1.6000   1.8240   1.8722   1.8741   1.9473   2.1067   2.1799   2.3783
     2.4120   2.5791   2.5799   2.7494   3.0719   3.2477   3.5891   3.7222
     3.8718   4.2384   4.5954   5.4813   6.1464   6.2121   6.3531   6.4263
     7.0802   7.4167   7.4975   8.0696   8.2134   8.6748   8.6752   8.8929
     8.9432   8.9540

          k = 0.3750 0.0000 0.0000 ( 38920 PWs)   bands (ev):

   -41.5769 -38.7623 -23.5879 -23.3168 -23.1785 -22.9064 -21.7190 -21.6306
   -21.4418 -19.2817 -19.1046 -18.7529 -16.4242 -16.0371 -15.4843 -15.4573
   -15.3810 -15.2241 -15.1844 -14.8341 -14.6820 -14.6010 -14.4826 -14.3923
   -14.2881 -14.2276 -13.8764  -9.0911  -8.6692  -8.5781  -8.4808  -8.4271
    -8.2547  -8.1833  -8.1679  -8.0976  -8.0236  -7.8894  -7.7950  -4.0725
    -3.4533  -3.3029  -3.1503  -2.8078  -2.7882  -2.6549  -2.6102  -2.4743
    -2.3494  -2.3436  -2.2762  -2.2760  -2.2145  -1.8064  -1.7715  -1.6654
    -1.5939  -1.5775  -1.5627  -1.4510  -1.4493  -1.3648  -1.2880  -1.2289
    -1.2077  -1.1062  -1.0745  -1.0281  -0.9402  -0.8485  -0.8184  -0.7385
    -0.5475  -0.5265  -0.4583  -0.2637  -0.2633  -0.2010  -0.1695  -0.1428
    -0.1114  -0.1096  -0.1050   0.0658   0.0800   0.1018   0.1204   0.1558
     0.2116   0.2430   0.2767   0.3110   0.3953   0.4217   0.5159   0.6702
     0.7403   0.8327   0.8985   0.9154   1.0167   1.0779   1.0808   1.1784
     1.2208   1.2788   1.2831   1.3302   1.3570   1.3928   1.6253   1.6589
     1.6985   1.8959   2.0189   2.0991   2.1174   2.3071   2.3394   2.5310
     3.5904   4.2257   4.8336   5.9101   5.9868   6.0215   6.2329   6.3903
     6.6195   7.2302   7.4114   7.4167   7.5907   7.8385   7.8595   8.0620
     8.1951   8.3489

          k = 0.3750 0.1281 0.0000 ( 38880 PWs)   bands (ev):

   -41.5752 -38.7600 -23.5711 -23.2998 -23.1618 -22.8893 -21.7143 -21.6272
   -21.4782 -19.2744 -19.0717 -18.8512 -16.3872 -16.0276 -15.4257 -15.3837
   -15.3000 -15.1806 -15.1413 -14.8002 -14.7493 -14.5776 -14.4398 -14.3759
   -14.2713 -14.2388 -13.8798  -9.0877  -8.7295  -8.6700  -8.5739  -8.5014
    -8.4626  -8.3222  -8.2160  -8.1992  -8.0964  -8.0627  -7.8398  -4.2283
    -3.6009  -3.3581  -3.2730  -2.8265  -2.8144  -2.6901  -2.6425  -2.6061
    -2.5432  -2.4696  -2.4223  -2.1740  -2.1066  -2.0705  -1.9407  -1.8694
    -1.8031  -1.6569  -1.6234  -1.5716  -1.5199  -1.4413  -1.4135  -1.4124
    -1.3552  -1.1977  -1.1438  -1.1168  -1.0467  -0.8983  -0.7288  -0.5683
    -0.5404  -0.4716  -0.4138  -0.3948  -0.3486  -0.2329  -0.2215  -0.2066
    -0.1037  -0.0393   0.0211   0.0374   0.1479   0.2293   0.2318   0.2607
     0.3093   0.3145   0.3796   0.4812   0.5649   0.6144   0.6214   0.7304
     0.7554   0.8237   0.9791   0.9833   1.0344   1.0755   1.0761   1.1493
     1.1941   1.2459   1.2946   1.3682   1.5602   1.6850   1.7600   1.9267
     2.0833   2.2382   2.3433   2.3821   2.4366   2.4994   2.6103   2.8646
     3.6855   4.2190   4.6578   5.8537   6.0347   6.1627   6.1806   6.4620
     6.7088   7.0697   7.4828   7.4869   7.6323   8.0612   8.1487   8.1770
     8.2127   8.3017

          k = 0.3750 0.2563 0.0000 ( 38879 PWs)   bands (ev):

   -41.5711 -38.7545 -23.5301 -23.2582 -23.1209 -22.8472 -21.7039 -21.6362
   -21.5457 -19.2569 -19.0663 -18.9885 -16.2915 -16.0139 -15.3026 -15.2018
   -15.1145 -15.0697 -15.0034 -14.9155 -14.7178 -14.5232 -14.3383 -14.3327
   -14.2859 -14.2306 -13.8938  -9.1520  -9.0256  -8.9108  -8.7562  -8.6902
    -8.6264  -8.5334  -8.5207  -8.4847  -8.3147  -8.1298  -8.1113  -4.6433
    -4.0406  -3.5890  -3.3749  -3.2862  -2.9370  -2.9275  -2.8290  -2.7273
    -2.6568  -2.6171  -2.5018  -2.4980  -2.4199  -2.3985  -2.3610  -2.2778
    -2.2429  -2.0644  -1.9041  -1.8661  -1.5014  -1.4581  -1.3993  -1.3235
    -1.3097  -1.2564  -1.1581  -1.0864  -0.9925  -0.9230  -0.8699  -0.8102
    -0.7854  -0.6958  -0.6641  -0.4830  -0.3650  -0.1927  -0.1134   0.0559
     0.1125   0.1519   0.2137   0.2934   0.3054   0.4083   0.4354   0.5064
     0.5813   0.6470   0.7036   0.8061   0.8090   0.8476   0.9149   0.9254
     0.9853   1.0369   1.0660   1.1264   1.1712   1.1849   1.2675   1.3766
     1.3966   1.4141   1.5384   1.6000   1.6539   1.7296   1.8059   2.2519
     2.5343   2.6113   2.6984   2.7571   3.1107   3.1447   3.2812   3.5935
     3.8269   4.2913   4.3660   5.4612   6.0091   6.1905   6.1954   6.4791
     6.5489   7.1724   7.7281   7.8984   7.9950   8.1914   8.4275   8.4976
     8.5264   8.6101

          k = 0.3750 0.3844 0.0000 ( 38979 PWs)   bands (ev):

   -41.5669 -38.7490 -23.4883 -23.2158 -23.0792 -22.8044 -21.7097 -21.6803
   -21.5587 -19.2609 -19.2365 -18.8991 -16.1753 -16.0245 -15.1898 -15.0792
   -14.9972 -14.9487 -14.9351 -14.8137 -14.6434 -14.5033 -14.3648 -14.3046
   -14.2449 -14.1568 -13.9264  -9.3910  -9.1773  -9.0622  -9.0470  -8.9536
    -8.8135  -8.8001  -8.6155  -8.6069  -8.5204  -8.4458  -8.1139  -5.0550
    -4.4929  -3.9513  -3.5893  -3.5796  -3.3930  -3.2668  -3.1523  -3.0567
    -2.9264  -2.8951  -2.8145  -2.6641  -2.5534  -2.5081  -2.4178  -2.3940
    -2.2841  -2.1285  -1.9256  -1.7655  -1.7464  -1.5463  -1.4934  -1.3816
    -1.3710  -1.3233  -1.2100  -1.1360  -1.0916  -1.0439  -1.0260  -0.9164
    -0.8880  -0.6117  -0.5790  -0.4934  -0.2682  -0.0739  -0.0431   0.1868
     0.2683   0.3307   0.3792   0.4372   0.5294   0.5759   0.7028   0.7832
     0.8072   0.8136   0.8932   1.0018   1.0260   1.0297   1.0885   1.0981
     1.2209   1.3107   1.3273   1.3590   1.4019   1.4738   1.4917   1.5036
     1.5887   1.6536   1.8213   1.8275   1.8494   1.8885   1.9460   2.5281
     2.5395   2.6891   2.7616   3.1886   3.5125   3.6777   3.7762   3.8419
     4.0593   4.1221   4.6400   4.9422   5.6438   5.8433   6.1890   6.4660
     6.7744   7.4910   8.0660   8.2108   8.3081   8.3395   8.4297   8.6027
     8.6164   8.8140

          k = 0.3750-0.5125 0.0000 ( 39018 PWs)   bands (ev):

   -41.5652 -38.7467 -23.4707 -23.1980 -23.0616 -22.7864 -21.7368 -21.6819
   -21.5552 -19.3330 -19.2312 -18.8601 -16.0836 -16.0734 -15.1925 -15.0945
   -14.9403 -14.8945 -14.7437 -14.7158 -14.6426 -14.6015 -14.3749 -14.2930
   -14.2292 -14.0876 -13.9603  -9.4687  -9.2563  -9.1953  -9.0704  -9.0383
    -8.9688  -8.8792  -8.7326  -8.6101  -8.6012  -8.5164  -8.1083  -5.2201
    -4.6740  -4.1188  -3.8353  -3.6738  -3.4587  -3.3911  -3.3904  -3.2831
    -3.0350  -2.9429  -2.8278  -2.6619  -2.5895  -2.5036  -2.4426  -2.4123
    -2.2650  -2.1555  -1.9348  -1.8634  -1.7561  -1.5716  -1.5071  -1.4331
    -1.4207  -1.3677  -1.2445  -1.2147  -1.1482  -1.1203  -0.9984  -0.9860
    -0.8905  -0.5779  -0.4838  -0.4404  -0.2420  -0.0384   0.0115   0.1964
     0.3051   0.4531   0.4567   0.4866   0.6158   0.6537   0.7633   0.8261
     0.8445   0.9449   1.0142   1.0612   1.1065   1.1727   1.2034   1.2508
     1.2551   1.2978   1.3028   1.3873   1.4979   1.5755   1.5936   1.6841
     1.8103   1.8451   1.8456   1.8910   2.0045   2.0458   2.1177   2.3589
     2.5366   2.6786   2.8748   3.3282   3.6167   3.7541   3.8372   3.9410
     4.0172   4.2939   4.7370   4.7974   5.4461   5.6508   6.0998   6.5327
     7.3003   7.5318   7.6365   8.2757   8.2840   8.4399   8.5923   8.6703
     8.7449   8.8195

          k =-0.5000 0.0000 0.0000 ( 38882 PWs)   bands (ev):

   -41.5756 -38.7605 -23.5694 -23.2972 -23.1598 -22.8862 -21.7366 -21.6395
   -21.4400 -19.3538 -19.0662 -18.7504 -16.2968 -16.1386 -15.5357 -15.4661
   -15.2926 -15.2830 -15.2461 -14.8645 -14.6703 -14.6443 -14.4021 -14.3865
   -14.2448 -14.2358 -13.9712  -9.0979  -8.6684  -8.5616  -8.4729  -8.3925
    -8.2320  -8.1637  -8.1450  -8.0871  -7.9879  -7.8704  -7.7547  -4.1586
    -3.5768  -3.4171  -2.9515  -2.9380  -2.7363  -2.7068  -2.6374  -2.6370
    -2.5344  -2.3100  -2.3037  -2.2046  -2.0556  -1.9054  -1.8530  -1.7821
    -1.7135  -1.6923  -1.5655  -1.5002  -1.4909  -1.4860  -1.3248  -1.2698
    -1.2591  -1.1330  -1.0735  -1.0687  -1.0585  -1.0222  -0.8319  -0.7868
    -0.5752  -0.5517  -0.4968  -0.2582  -0.2119  -0.1862  -0.1587  -0.1484
    -0.1155  -0.1151  -0.0948   0.0820   0.0949   0.1478   0.1487   0.1788
     0.1822   0.2278   0.2284   0.3382   0.4144   0.4619   0.6466   0.6572
     0.7850   0.8195   0.8498   0.9340   0.9671   1.0419   1.0831   1.2285
     1.2798   1.2804   1.3050   1.3180   1.3961   1.4122   1.6105   1.6371
     1.8950   1.9382   2.0134   2.0405   2.1251   2.3204   2.5074   2.5143
     3.4350   4.3120   4.7722   6.0962   6.2502   6.5126   6.6566   6.7660
     6.8420   6.8474   6.9365   7.2332   7.3989   8.0381   8.1808   8.2520
     8.4687   8.5780

          k =-0.5000 0.1281 0.0000 ( 38856 PWs)   bands (ev):

   -41.5739 -38.7582 -23.5534 -23.2811 -23.1438 -22.8700 -21.7326 -21.6356
   -21.4761 -19.3460 -19.0339 -18.8479 -16.2645 -16.1218 -15.4815 -15.4010
   -15.2294 -15.2049 -15.1766 -14.8306 -14.7370 -14.6103 -14.3682 -14.3660
   -14.2407 -14.2267 -13.9654  -9.0929  -8.6642  -8.6008  -8.5977  -8.5585
    -8.3671  -8.3564  -8.2101  -8.1920  -8.1651  -8.0061  -7.9644  -4.3207
    -3.7298  -3.4806  -3.1717  -2.9923  -2.9602  -2.6864  -2.6560  -2.6127
    -2.5319  -2.5288  -2.2374  -2.1822  -2.1621  -2.0938  -2.0837  -2.0280
    -1.8253  -1.6243  -1.6103  -1.5673  -1.5316  -1.4815  -1.3973  -1.3826
    -1.3714  -1.2461  -1.2432  -1.1988  -1.1721  -0.9117  -0.7779  -0.5871
    -0.5808  -0.5450  -0.4568  -0.4279  -0.3429  -0.2330  -0.2031  -0.1990
    -0.1078   0.0083   0.0444   0.0559   0.1418   0.2319   0.3243   0.3294
     0.3447   0.3874   0.4613   0.4758   0.5111   0.5347   0.6862   0.7361
     0.7889   0.8208   0.9433   0.9819   0.9908   1.0052   1.0801   1.2179
     1.2364   1.2406   1.3056   1.3828   1.5814   1.6550   1.9265   1.9700
     2.1784   2.2596   2.3517   2.3758   2.4847   2.5874   2.6445   2.8448
     3.5042   4.3167   4.5970   5.8875   6.1814   6.4831   6.6652   6.6813
     6.8893   7.0448   7.1134   7.1430   7.3484   8.3259   8.4370   8.4413
     8.4820   8.5862

          k =-0.5000 0.2563 0.0000 ( 38902 PWs)   bands (ev):

   -41.5697 -38.7527 -23.5142 -23.2416 -23.1048 -22.8302 -21.7230 -21.6436
   -21.5432 -19.3273 -19.0619 -18.9523 -16.1846 -16.0851 -15.3500 -15.2137
   -15.0962 -15.0887 -14.9201 -14.8987 -14.7487 -14.5275 -14.3286 -14.2851
   -14.2732 -14.1811 -13.9519  -9.1108  -9.0101  -8.9024  -8.8330  -8.6784
    -8.6648  -8.6325  -8.5209  -8.4915  -8.4482  -8.3169  -8.1327  -4.7659
    -4.1823  -3.7244  -3.4147  -3.3579  -3.0696  -2.9064  -2.8441  -2.7217
    -2.6562  -2.6519  -2.6087  -2.5498  -2.4006  -2.4002  -2.3692  -2.3226
    -2.2654  -2.0924  -1.8667  -1.8612  -1.5964  -1.4352  -1.3589  -1.2881
    -1.2369  -1.2188  -1.1685  -1.1128  -1.0983  -0.8837  -0.8773  -0.8525
    -0.7900  -0.7107  -0.6689  -0.5160  -0.3239  -0.1886  -0.0072   0.0831
     0.1829   0.1938   0.2335   0.3445   0.4035   0.4622   0.5606   0.5636
     0.5939   0.6850   0.7571   0.8728   0.8875   0.9002   0.9439   0.9473
     0.9572   0.9694   1.0103   1.0945   1.1388   1.3246   1.3314   1.3605
     1.3631   1.4095   1.4735   1.5180   1.6039   1.7785   1.9122   2.3782
     2.6005   2.6859   2.7451   2.8080   3.1613   3.2422   3.3765   3.5928
     3.6859   4.2578   4.4677   5.3036   5.9670   6.1567   6.2038   6.3971
     6.9900   7.3346   7.5249   7.8254   7.9346   8.4093   8.4606   8.6395
     8.6788   8.7428

          k =-0.5000 0.3844 0.0000 ( 39038 PWs)   bands (ev):

   -41.5656 -38.7472 -23.4742 -23.2015 -23.0650 -22.7897 -21.7133 -21.7012
   -21.5578 -19.3085 -19.2528 -18.8647 -16.1021 -16.0534 -15.2160 -15.0708
   -14.9741 -14.9373 -14.9257 -14.6808 -14.6709 -14.4761 -14.3417 -14.2990
   -14.2354 -14.1163 -13.9397  -9.4428  -9.2266  -9.1971  -9.0629  -9.0348
    -8.9722  -8.8463  -8.7519  -8.6283  -8.6082  -8.5262  -8.1266  -5.2091
    -4.6533  -4.0916  -3.6726  -3.5742  -3.4049  -3.3651  -3.1406  -3.0676
    -3.0368  -2.9601  -2.8427  -2.6597  -2.6094  -2.5072  -2.4452  -2.4268
    -2.2634  -2.1857  -1.8909  -1.8518  -1.6585  -1.6018  -1.4971  -1.3489
    -1.3369  -1.2881  -1.2828  -1.1462  -1.0729  -1.0511  -1.0017  -0.9605
    -0.9298  -0.5577  -0.4734  -0.4264  -0.2379  -0.0360   0.0865   0.2211
     0.3493   0.3991   0.5018   0.5390   0.5987   0.7340   0.7960   0.7984
     0.8366   0.8593   0.9593   1.0516   1.0739   1.1491   1.2175   1.2453
     1.2609   1.2702   1.3162   1.3378   1.4026   1.4957   1.5283   1.5702
     1.6573   1.7018   1.7552   1.8115   1.8887   1.9163   1.9474   2.5260
     2.6653   2.6709   2.8821   3.4090   3.5681   3.5941   3.9001   3.9726
     3.9976   4.3284   4.6705   4.7750   5.4051   5.6066   6.0823   6.5665
     7.2441   7.6234   7.6795   8.0863   8.1478   8.3412   8.5880   8.6218
     8.7529   8.7736

          k =-0.5000-0.5125 0.0000 ( 39028 PWs)   bands (ev):

   -41.5639 -38.7450 -23.4575 -23.1846 -23.0484 -22.7728 -21.7336 -21.7093
   -21.5544 -19.3266 -19.3007 -18.8265 -16.0670 -16.0417 -15.1601 -15.1428
   -14.9027 -14.8477 -14.7227 -14.6429 -14.5880 -14.5864 -14.3439 -14.2912
   -14.2309 -14.0808 -13.9351  -9.5905  -9.3786  -9.3182  -9.1902  -9.0897
    -9.0535  -8.9990  -8.8537  -8.7241  -8.6261  -8.5234  -8.1233  -5.3851
    -4.8428  -4.2599  -3.8240  -3.7560  -3.5413  -3.4087  -3.3783  -3.3010
    -3.1676  -2.9880  -2.8662  -2.6610  -2.6552  -2.4954  -2.4608  -2.4385
    -2.2410  -2.2274  -1.9424  -1.8902  -1.6749  -1.5806  -1.5756  -1.3954
    -1.3930  -1.3584  -1.3138  -1.2357  -1.1562  -1.0900  -1.0316  -0.9585
    -0.9446  -0.5146  -0.4463  -0.2420  -0.2126   0.0178   0.1722   0.2323
     0.4327   0.4339   0.4732   0.6474   0.7580   0.8306   0.8636   0.8704
     0.9139   0.9314   0.9498   1.1332   1.1962   1.2009   1.3654   1.3820
     1.3867   1.3996   1.4051   1.4080   1.5126   1.5690   1.6232   1.8255
     1.8374   1.9108   1.9217   1.9276   2.0185   2.0433   2.0856   2.3533
     2.5063   2.7990   2.9716   3.5661   3.6162   3.6537   3.8814   4.1225
     4.2085   4.4418   4.5523   4.9045   5.1554   5.3637   5.9846   6.8734
     7.5447   7.6398   7.7454   7.7615   8.1218   8.1555   8.5516   8.6534
     8.6552   8.7867

     the Fermi energy is     2.3162 ev

!    total energy              =   -1868.38454026 Ry
     Harris-Foulkes estimate   =   -1868.38454055 Ry
     estimated scf accuracy    <       0.00000038 Ry

     The total energy is the sum of the following terms:

     one-electron contribution =  -29393.53220852 Ry
     hartree contribution      =   14844.16322048 Ry
     xc contribution           =    -641.71962886 Ry
     ewald contribution        =   13322.71288269 Ry
     smearing contrib. (-TS)   =      -0.00880605 Ry

     convergence has been achieved in  37 iterations

     negative rho (up, down):  9.004E-02 0.000E+00

     Forces acting on atoms (cartesian axes, Ry/au):

     atom    1 type  3   force =     0.00000000    0.00000000   -0.00010761
     atom    2 type  2   force =     0.00000000    0.00000000   -0.00055636
     atom    3 type  3   force =     0.00000000    0.00000000   -0.00008162
     atom    4 type  1   force =     0.00000000    0.00000000   -0.00012358
     atom    5 type  2   force =     0.00000000    0.00000000   -0.00037194
     atom    6 type  3   force =     0.00000000    0.00000000    0.00028927
     atom    7 type  3   force =     0.00000000    0.00000000    0.00010757
     atom    8 type  4   force =     0.00000000    0.00000000   -0.00056943
     atom    9 type  3   force =     0.00000000    0.00000000    0.00078324
     atom   10 type  3   force =     0.00000000    0.00000000    0.00105049
     atom   11 type  2   force =     0.00000000    0.00000000   -0.00125249
     atom   12 type  1   force =     0.00000000    0.00000000   -0.00163482
     atom   13 type  3   force =     0.00000000    0.00000000    0.00231559
     atom   14 type  3   force =     0.00000000    0.00000000    0.00568095
     atom   15 type  2   force =     0.00000000    0.00000000   -0.00990247
     atom   16 type  3   force =     0.00000000    0.00000000    0.01911873
     atom   17 type  1   force =     0.00000000    0.00000000   -0.02242500
     atom   18 type  2   force =     0.00000000    0.00000000    0.00302232
     atom   19 type  3   force =     0.00000000    0.00000000    0.06068080
     atom   20 type  3   force =     0.00000000    0.00000000    0.06193882
     atom   21 type  4   force =     0.00000000    0.00000000   -0.11675227
     atom   22 type  3   force =     0.00000000    0.00000000    0.02485008
     atom   23 type  3   force =     0.00000000    0.00000000    0.03085253
     atom   24 type  2   force =     0.00000000    0.00000000   -0.02175150
     atom   25 type  1   force =     0.00000000    0.00000000   -0.03306407
     atom   26 type  3   force =     0.00000000    0.00000000   -0.00469650
     atom   27 type  2   force =     0.00000000    0.00000000   -0.00289058
     atom   28 type  3   force =     0.00000000    0.00000000    0.00548988

     Total force =     0.159267     Total SCF correction =     0.002535


     Computing stress (Cartesian axis) and pressure


     negative rho (up, down):  9.004E-02 0.000E+00
          total   stress  (Ry/bohr**3)                   (kbar)     P=       -9.72
  -0.00006149   0.00000000   0.00000000           -9.05        0.00        0.00
   0.00000000  -0.00004965   0.00000000            0.00       -7.30        0.00
   0.00000000   0.00000000  -0.00008712            0.00        0.00      -12.82

 
     init_run     :      9.49s CPU      9.81s WALL (       1 calls)
     electrons    :    589.69s CPU    613.68s WALL (       1 calls)
     forces       :      4.06s CPU      4.25s WALL (       1 calls)
     stress       :     24.59s CPU     25.09s WALL (       1 calls)

     Called by init_run:
     wfcinit      :      6.38s CPU      6.50s WALL (       1 calls)
     potinit      :      0.67s CPU      0.69s WALL (       1 calls)
     hinit0       :      1.28s CPU      1.30s WALL (       1 calls)

     Called by electrons:
     c_bands      :    447.23s CPU    459.13s WALL (      37 calls)
     sum_band     :     93.83s CPU    100.29s WALL (      37 calls)
     v_of_rho     :      3.01s CPU      3.05s WALL (      38 calls)
     newd         :     27.85s CPU     33.40s WALL (      38 calls)
     mix_rho      :     18.31s CPU     18.48s WALL (      37 calls)

     Called by c_bands:
     init_us_2    :      4.25s CPU      4.28s WALL (    1925 calls)
     cegterg      :    416.65s CPU    427.98s WALL (     925 calls)

     Called by sum_band:
     sum_band:bec :      0.25s CPU      0.25s WALL (     925 calls)
     addusdens    :     27.25s CPU     32.93s WALL (      37 calls)

     Called by *egterg:
     h_psi        :    224.58s CPU    232.49s WALL (    3575 calls)
     s_psi        :     25.20s CPU     25.41s WALL (    3575 calls)
     g_psi        :      0.75s CPU      0.75s WALL (    2625 calls)
     cdiaghg      :     84.65s CPU     84.99s WALL (    3550 calls)

     Called by h_psi:
     h_psi:calbec :     27.29s CPU     28.64s WALL (    3575 calls)
     vloc_psi     :    170.67s CPU    173.50s WALL (    3575 calls)
     add_vuspsi   :     25.40s CPU     27.39s WALL (    3575 calls)

     General routines
     calbec       :     42.50s CPU     43.90s WALL (    4625 calls)
     fft          :      2.50s CPU      2.52s WALL (     517 calls)
     ffts         :      9.96s CPU     10.05s WALL (   16269 calls)
     fftw         :    194.23s CPU    197.36s WALL (  658616 calls)
     interpolate  :      0.20s CPU      0.20s WALL (      38 calls)
 
     Parallel routines
     fft_scatt_xy :     26.57s CPU     26.94s WALL (  675402 calls)
     fft_scatt_yz :    115.13s CPU    116.98s WALL (  675402 calls)
 
     PWSCF        :  10m28.88s CPU  10m53.93s WALL

 
   This run was terminated on:  18:20: 9   5May2021            

=------------------------------------------------------------------------------=
   JOB DONE.
=------------------------------------------------------------------------------=
[1620253209.538683] [holy7c04112:60323:0]          mpool.c:43   UCX  WARN  object 0x3277c00 was not returned to mpool ucp_requests
[1620253209.539131] [holy7c04112:60327:0]          mpool.c:43   UCX  WARN  object 0x32d3a40 was not returned to mpool ucp_requests
[1620253209.539150] [holy7c04112:60327:0]          mpool.c:43   UCX  WARN  object 0x32d3f80 was not returned to mpool ucp_requests
[1620253209.537409] [holy7c04112:60322:0]          mpool.c:43   UCX  WARN  object 0x3705700 was not returned to mpool ucp_requests
[1620253209.539872] [holy7c06310:177456:0]          mpool.c:43   UCX  WARN  object 0x358f6c0 was not returned to mpool ucp_requests
[1620253209.539903] [holy7c06310:177456:0]          mpool.c:43   UCX  WARN  object 0x358f880 was not returned to mpool ucp_requests
[1620253209.540814] [holy7c06310:177458:0]          mpool.c:43   UCX  WARN  object 0x3b5b840 was not returned to mpool ucp_requests
[1620253209.540706] [holy7c06310:177454:0]          mpool.c:43   UCX  WARN  object 0x3fb8780 was not returned to mpool ucp_requests
[1620253209.545724] [holy7c06310:177457:0]          mpool.c:43   UCX  WARN  object 0x2a3ef80 was not returned to mpool ucp_requests
