
     Program PWSCF v.6.5 starts on  5May2021 at 18:29:33 

     This program is part of the open-source Quantum ESPRESSO suite
     for quantum simulation of materials; please cite
         "P. Giannozzi et al., J. Phys.:Condens. Matter 21 395502 (2009);
         "P. Giannozzi et al., J. Phys.:Condens. Matter 29 465901 (2017);
          URL http://www.quantum-espresso.org", 
     in publications or presentations arising from this work. More details at
     http://www.quantum-espresso.org/quote

     Parallel version (MPI), running on    20 processors

     MPI processes distributed on    12 nodes
     R & G space division:  proc/nbgrp/npool/nimage =      20
     Reading input from YBCO_Y_cleave_7.0_sep_scf.pwi
Warning: card &IONS ignored
Warning: card     ION_DYNAMICS = 'BFGS' ignored
Warning: card / ignored
Warning: card &CELL ignored
Warning: card     CELL_DYNAMICS = 'BFGS' ignored
Warning: card / ignored

     Current dimensions of program PWSCF are:
     Max number of different atomic species (ntypx) = 10
     Max number of k-points (npk) =  40000
     Max angular momentum in pseudopotentials (lmaxx) =  3

     Subspace diagonalization in iterative solution of the eigenvalue problem:
     one sub-group per band group will be used
     scalapack distributed-memory algorithm (size of sub-group:  4*  4 procs)

     Message from routine setup:
     using ibrav=0 with symmetry is DISCOURAGED, use correct ibrav instead
 
     Parallelization info
     --------------------
     sticks:   dense  smooth     PW     G-vecs:    dense   smooth      PW
     Min         150      50     14                82424    15851    2472
     Max         151      51     15                82467    15877    2527
     Sum        3015    1011    293              1648933   317199   49999
 


     bravais-lattice index     =            0
     lattice parameter (alat)  =       7.3477  a.u.
     unit-cell volume          =    5053.4933 (a.u.)^3
     number of atoms/cell      =           28
     number of atomic types    =            4
     number of electrons       =       229.00
     number of Kohn-Sham states=          138
     kinetic-energy cutoff     =      60.0000  Ry
     charge density cutoff     =     720.0000  Ry
     convergence threshold     =      1.0E-06
     mixing beta               =       0.2000
     number of iterations used =           10  local-TF  mixing
     Exchange-correlation= SLA PW PBE PBE
                           (   1   4   3   4   0   0   0)

     celldm(1)=   7.347715  celldm(2)=   0.000000  celldm(3)=   0.000000
     celldm(4)=   0.000000  celldm(5)=   0.000000  celldm(6)=   0.000000

     crystal axes: (cart. coord. in units of alat)
               a(1) = (   1.000000   0.000000   0.000000 )  
               a(2) = (   0.000000   0.975577   0.000000 )  
               a(3) = (   0.000000   0.000000  13.057892 )  

     reciprocal axes: (cart. coord. in units 2 pi/alat)
               b(1) = (  1.000000  0.000000  0.000000 )  
               b(2) = (  0.000000  1.025034  0.000000 )  
               b(3) = (  0.000000  0.000000  0.076582 )  


     PseudoPot. # 1 for Ba read from file:
     /n/holyscratch01/hoffman_lab/ruizhe/YBCO_Project/pseudo/Ba.pbe-nsp-van.UPF
     MD5 check sum: 2b9c31dd849566dd297d80989662b7a0
     Pseudo is Ultrasoft + core correction, Zval = 10.0
     Generated by new atomic code, or converted to UPF format
     Using radial grid of  907 points,  6 beta functions with: 
                l(1) =   0
                l(2) =   0
                l(3) =   1
                l(4) =   1
                l(5) =   2
                l(6) =   2
     Q(r) pseudized with  6 coefficients,  rinner =    1.200   1.200   1.200
                                                       1.200   1.200

     PseudoPot. # 2 for Cu read from file:
     /n/holyscratch01/hoffman_lab/ruizhe/YBCO_Project/pseudo/Cu.pbe-n-van_ak.UPF
     MD5 check sum: 34e3282627ffb533726feb647e090d62
     Pseudo is Ultrasoft + core correction, Zval = 11.0
     Generated by new atomic code, or converted to UPF format
     Using radial grid of  867 points,  6 beta functions with: 
                l(1) =   0
                l(2) =   0
                l(3) =   1
                l(4) =   1
                l(5) =   2
                l(6) =   2
     Q(r) pseudized with  8 coefficients,  rinner =    1.400   1.400   1.400
                                                       1.400   1.400

     PseudoPot. # 3 for O  read from file:
     /n/holyscratch01/hoffman_lab/ruizhe/YBCO_Project/pseudo/O.pbe-van_ak.UPF
     MD5 check sum: 783ce7fe4c79b6a4916957118fed0856
     Pseudo is Ultrasoft, Zval =  6.0
     Generated by new atomic code, or converted to UPF format
     Using radial grid of  737 points,  4 beta functions with: 
                l(1) =   0
                l(2) =   0
                l(3) =   1
                l(4) =   1
     Q(r) pseudized with  8 coefficients,  rinner =    0.800   0.800   0.800


     PseudoPot. # 4 for Y  read from file:
     /n/holyscratch01/hoffman_lab/ruizhe/YBCO_Project/pseudo/Y.pbe-nsp-van.UPF
     MD5 check sum: 4412fed3ab108fed87a1b7d6a69a4a38
     Pseudo is Ultrasoft + core correction, Zval = 11.0
     Generated by new atomic code, or converted to UPF format
     Using radial grid of  885 points,  6 beta functions with: 
                l(1) =   0
                l(2) =   0
                l(3) =   1
                l(4) =   1
                l(5) =   2
                l(6) =   2
     Q(r) pseudized with  6 coefficients,  rinner =    1.200   1.200   1.200
                                                       1.200   1.200

     atomic species   valence    mass     pseudopotential
        Ba            10.00   137.32700     Ba( 1.00)
        Cu            11.00    63.54600     Cu( 1.00)
        O              6.00    15.99900     O ( 1.00)
        Y             11.00    88.90584     Y ( 1.00)

      4 Sym. Ops. (no inversion) found



   Cartesian axes

     site n.     atom                  positions (alat units)
         1           O   tau(   1) = (   0.0000000   0.4877884  -0.0257983  )
         2           Cu  tau(   2) = (   0.0000000   0.0000000   0.0215779  )
         3           O   tau(   3) = (   0.0000000   0.0000000   0.5073114  )
         4           Ba  tau(   4) = (   0.4999996   0.4877884   0.5319677  )
         5           Cu  tau(   5) = (   0.0000000   0.0000000   1.0495845  )
         6           O   tau(   6) = (   0.4999996   0.0000000   1.1181579  )
         7           O   tau(   7) = (   0.0000000   0.4877884   1.1273137  )
         8           Y   tau(   8) = (   0.4999996   0.4877884   1.4938777  )
         9           O   tau(   9) = (   0.0000000   0.4877884   1.8497402  )
        10           O   tau(  10) = (   0.4999996   0.0000000   1.8692709  )
        11           Cu  tau(  11) = (   0.0000000   0.0000000   1.9417560  )
        12           Ba  tau(  12) = (   0.4999996   0.4877884   2.4526063  )
        13           O   tau(  13) = (   0.0000000   0.0000000   2.5103470  )
        14           O   tau(  14) = (   0.0000000   0.4877884   2.9968469  )
        15           Cu  tau(  15) = (   0.0000000   0.0000000   2.9968521  )
        16           O   tau(  16) = (   0.0000000   0.0000000   3.4833288  )
        17           Ba  tau(  17) = (   0.4999996   0.4877884   3.5410618  )
        18           Cu  tau(  18) = (   0.0000000   0.0000000   4.0519352  )
        19           O   tau(  19) = (   0.4999996   0.0000000   4.1244075  )
        20           O   tau(  20) = (   0.0000000   0.4877884   4.1439202  )
        21           Y   tau(  21) = (   0.4999996   0.4877884   4.4997853  )
        22           O   tau(  22) = (   0.0000000   0.4877884   6.6666481  )
        23           O   tau(  23) = (   0.4999996   0.0000000   6.6758168  )
        24           Cu  tau(  24) = (   0.0000000   0.0000000   6.7443953  )
        25           Ba  tau(  25) = (   0.4999996   0.4877884   7.2619966  )
        26           O   tau(  26) = (   0.0000000   0.0000000   7.2866530  )
        27           Cu  tau(  27) = (   0.0000000   0.0000000   7.7723582  )
        28           O   tau(  28) = (   0.0000000   0.4877884   7.8197395  )

     number of k points=    25  Gaussian smearing, width (Ry)=  0.0100
                       cart. coord. in units 2pi/alat
        k(    1) = (   0.0000000   0.0000000   0.0000000), wk =   0.0312500
        k(    2) = (   0.0000000   0.1281293   0.0000000), wk =   0.0625000
        k(    3) = (   0.0000000   0.2562585   0.0000000), wk =   0.0625000
        k(    4) = (   0.0000000   0.3843878   0.0000000), wk =   0.0625000
        k(    5) = (   0.0000000  -0.5125170   0.0000000), wk =   0.0312500
        k(    6) = (   0.1250000   0.0000000   0.0000000), wk =   0.0625000
        k(    7) = (   0.1250000   0.1281293   0.0000000), wk =   0.1250000
        k(    8) = (   0.1250000   0.2562585   0.0000000), wk =   0.1250000
        k(    9) = (   0.1250000   0.3843878   0.0000000), wk =   0.1250000
        k(   10) = (   0.1250000  -0.5125170   0.0000000), wk =   0.0625000
        k(   11) = (   0.2500000   0.0000000   0.0000000), wk =   0.0625000
        k(   12) = (   0.2500000   0.1281293   0.0000000), wk =   0.1250000
        k(   13) = (   0.2500000   0.2562585   0.0000000), wk =   0.1250000
        k(   14) = (   0.2500000   0.3843878   0.0000000), wk =   0.1250000
        k(   15) = (   0.2500000  -0.5125170   0.0000000), wk =   0.0625000
        k(   16) = (   0.3750000   0.0000000   0.0000000), wk =   0.0625000
        k(   17) = (   0.3750000   0.1281293   0.0000000), wk =   0.1250000
        k(   18) = (   0.3750000   0.2562585   0.0000000), wk =   0.1250000
        k(   19) = (   0.3750000   0.3843878   0.0000000), wk =   0.1250000
        k(   20) = (   0.3750000  -0.5125170   0.0000000), wk =   0.0625000
        k(   21) = (  -0.5000000   0.0000000   0.0000000), wk =   0.0312500
        k(   22) = (  -0.5000000   0.1281293   0.0000000), wk =   0.0625000
        k(   23) = (  -0.5000000   0.2562585   0.0000000), wk =   0.0625000
        k(   24) = (  -0.5000000   0.3843878   0.0000000), wk =   0.0625000
        k(   25) = (  -0.5000000  -0.5125170   0.0000000), wk =   0.0312500

     Dense  grid:  1648933 G-vectors     FFT dimensions: (  64,  64, 864)

     Smooth grid:   317199 G-vectors     FFT dimensions: (  40,  36, 480)

     Estimated max dynamical RAM per process >     526.04 MB

     Estimated total dynamical RAM >      10.27 GB

     Initial potential from superposition of free atoms

     starting charge  228.84827, renormalised to  229.00000

     negative rho (up, down):  8.967E-02 0.000E+00
     Starting wfcs are  201 randomized atomic wfcs

     total cpu time spent up to now is       12.9 secs

     Self-consistent Calculation

     iteration #  1     ecut=    60.00 Ry     beta= 0.20
     Davidson diagonalization with overlap
     ethr =  1.00E-02,  avg # of iterations =  2.0

     negative rho (up, down):  8.734E-02 0.000E+00

     total cpu time spent up to now is       33.7 secs

     total energy              =   -1869.46243583 Ry
     Harris-Foulkes estimate   =   -1871.04213355 Ry
     estimated scf accuracy    <      14.85458632 Ry

     iteration #  2     ecut=    60.00 Ry     beta= 0.20
     Davidson diagonalization with overlap
     ethr =  6.49E-03,  avg # of iterations =  1.0

     negative rho (up, down):  8.611E-02 0.000E+00

     total cpu time spent up to now is       53.0 secs

     total energy              =   -1869.11068570 Ry
     Harris-Foulkes estimate   =   -1869.80100666 Ry
     estimated scf accuracy    <      10.11782407 Ry

     iteration #  3     ecut=    60.00 Ry     beta= 0.20
     Davidson diagonalization with overlap
     ethr =  4.42E-03,  avg # of iterations =  1.0

     negative rho (up, down):  8.504E-02 0.000E+00

     total cpu time spent up to now is       71.8 secs

     total energy              =   -1868.47166425 Ry
     Harris-Foulkes estimate   =   -1869.24626497 Ry
     estimated scf accuracy    <       5.49462221 Ry

     iteration #  4     ecut=    60.00 Ry     beta= 0.20
     Davidson diagonalization with overlap
     ethr =  2.40E-03,  avg # of iterations =  1.0

     negative rho (up, down):  8.486E-02 0.000E+00

     total cpu time spent up to now is       90.7 secs

     total energy              =   -1868.83623322 Ry
     Harris-Foulkes estimate   =   -1868.80316946 Ry
     estimated scf accuracy    <      11.66687454 Ry

     iteration #  5     ecut=    60.00 Ry     beta= 0.20
     Davidson diagonalization with overlap
     ethr =  2.40E-03,  avg # of iterations =  1.0

     negative rho (up, down):  8.529E-02 0.000E+00

     total cpu time spent up to now is      109.4 secs

     total energy              =   -1868.48885379 Ry
     Harris-Foulkes estimate   =   -1868.86494555 Ry
     estimated scf accuracy    <      17.21159884 Ry

     iteration #  6     ecut=    60.00 Ry     beta= 0.20
     Davidson diagonalization with overlap
     ethr =  2.40E-03,  avg # of iterations =  1.0

     negative rho (up, down):  8.573E-02 0.000E+00

     total cpu time spent up to now is      127.8 secs

     total energy              =   -1868.51307995 Ry
     Harris-Foulkes estimate   =   -1868.66782675 Ry
     estimated scf accuracy    <       2.83627236 Ry

     iteration #  7     ecut=    60.00 Ry     beta= 0.20
     Davidson diagonalization with overlap
     ethr =  1.24E-03,  avg # of iterations =  2.0

     negative rho (up, down):  8.635E-02 0.000E+00

     total cpu time spent up to now is      147.9 secs

     total energy              =   -1868.36277752 Ry
     Harris-Foulkes estimate   =   -1868.55354580 Ry
     estimated scf accuracy    <       2.23149146 Ry

     iteration #  8     ecut=    60.00 Ry     beta= 0.20
     Davidson diagonalization with overlap
     ethr =  9.74E-04,  avg # of iterations =  4.6

     negative rho (up, down):  8.818E-02 0.000E+00

     total cpu time spent up to now is      172.1 secs

     total energy              =   -1868.42056471 Ry
     Harris-Foulkes estimate   =   -1868.48757997 Ry
     estimated scf accuracy    <       3.52685304 Ry

     iteration #  9     ecut=    60.00 Ry     beta= 0.20
     Davidson diagonalization with overlap
     ethr =  9.74E-04,  avg # of iterations =  3.4

     negative rho (up, down):  8.755E-02 0.000E+00

     total cpu time spent up to now is      194.3 secs

     total energy              =   -1868.32666330 Ry
     Harris-Foulkes estimate   =   -1868.53651862 Ry
     estimated scf accuracy    <      19.61383185 Ry

     iteration # 10     ecut=    60.00 Ry     beta= 0.20
     Davidson diagonalization with overlap
     ethr =  9.74E-04,  avg # of iterations =  1.0

     negative rho (up, down):  8.916E-02 0.000E+00

     total cpu time spent up to now is      212.8 secs

     total energy              =   -1868.37143716 Ry
     Harris-Foulkes estimate   =   -1868.42623777 Ry
     estimated scf accuracy    <       2.10393532 Ry

     iteration # 11     ecut=    60.00 Ry     beta= 0.20
     Davidson diagonalization with overlap
     ethr =  9.19E-04,  avg # of iterations =  1.0

     negative rho (up, down):  8.859E-02 0.000E+00

     total cpu time spent up to now is      231.4 secs

     total energy              =   -1868.39145982 Ry
     Harris-Foulkes estimate   =   -1868.40550165 Ry
     estimated scf accuracy    <       0.33466609 Ry

     iteration # 12     ecut=    60.00 Ry     beta= 0.20
     Davidson diagonalization with overlap
     ethr =  1.46E-04,  avg # of iterations =  5.0

     negative rho (up, down):  8.912E-02 0.000E+00

     total cpu time spent up to now is      256.2 secs

     total energy              =   -1868.39845613 Ry
     Harris-Foulkes estimate   =   -1868.40546040 Ry
     estimated scf accuracy    <       0.42374949 Ry

     iteration # 13     ecut=    60.00 Ry     beta= 0.20
     Davidson diagonalization with overlap
     ethr =  1.46E-04,  avg # of iterations =  1.1

     negative rho (up, down):  8.937E-02 0.000E+00

     total cpu time spent up to now is      274.9 secs

     total energy              =   -1868.39143424 Ry
     Harris-Foulkes estimate   =   -1868.40206459 Ry
     estimated scf accuracy    <       0.28382722 Ry

     iteration # 14     ecut=    60.00 Ry     beta= 0.20
     Davidson diagonalization with overlap
     ethr =  1.24E-04,  avg # of iterations =  1.5

     negative rho (up, down):  8.972E-02 0.000E+00

     total cpu time spent up to now is      294.2 secs

     total energy              =   -1868.38805198 Ry
     Harris-Foulkes estimate   =   -1868.39363823 Ry
     estimated scf accuracy    <       0.19598017 Ry

     iteration # 15     ecut=    60.00 Ry     beta= 0.20
     Davidson diagonalization with overlap
     ethr =  8.56E-05,  avg # of iterations =  3.2

     negative rho (up, down):  8.937E-02 0.000E+00

     total cpu time spent up to now is      315.7 secs

     total energy              =   -1868.38910179 Ry
     Harris-Foulkes estimate   =   -1868.38989845 Ry
     estimated scf accuracy    <       0.20437078 Ry

     iteration # 16     ecut=    60.00 Ry     beta= 0.20
     Davidson diagonalization with overlap
     ethr =  8.56E-05,  avg # of iterations =  1.0

     negative rho (up, down):  8.964E-02 0.000E+00

     total cpu time spent up to now is      334.1 secs

     total energy              =   -1868.38101236 Ry
     Harris-Foulkes estimate   =   -1868.39009491 Ry
     estimated scf accuracy    <       0.09748498 Ry

     iteration # 17     ecut=    60.00 Ry     beta= 0.20
     Davidson diagonalization with overlap
     ethr =  4.26E-05,  avg # of iterations =  6.0

     negative rho (up, down):  8.947E-02 0.000E+00

     total cpu time spent up to now is      360.4 secs

     total energy              =   -1868.38646530 Ry
     Harris-Foulkes estimate   =   -1868.39023907 Ry
     estimated scf accuracy    <       0.45937119 Ry

     iteration # 18     ecut=    60.00 Ry     beta= 0.20
     Davidson diagonalization with overlap
     ethr =  4.26E-05,  avg # of iterations =  1.0

     negative rho (up, down):  8.907E-02 0.000E+00

     total cpu time spent up to now is      378.7 secs

     total energy              =   -1868.38549141 Ry
     Harris-Foulkes estimate   =   -1868.38762046 Ry
     estimated scf accuracy    <       0.19059626 Ry

     iteration # 19     ecut=    60.00 Ry     beta= 0.20
     Davidson diagonalization with overlap
     ethr =  4.26E-05,  avg # of iterations =  1.0

     negative rho (up, down):  8.873E-02 0.000E+00

     total cpu time spent up to now is      397.1 secs

     total energy              =   -1868.38536839 Ry
     Harris-Foulkes estimate   =   -1868.38631454 Ry
     estimated scf accuracy    <       0.06799889 Ry

     iteration # 20     ecut=    60.00 Ry     beta= 0.20
     Davidson diagonalization with overlap
     ethr =  2.97E-05,  avg # of iterations =  1.0

     negative rho (up, down):  9.678E-02 0.000E+00

     total cpu time spent up to now is      413.6 secs

     total energy              =   -1868.38488790 Ry
     Harris-Foulkes estimate   =   -1868.38565182 Ry
     estimated scf accuracy    <       0.01814304 Ry

     iteration # 21     ecut=    60.00 Ry     beta= 0.20
     Davidson diagonalization with overlap
     ethr =  7.92E-06,  avg # of iterations =  3.6

     negative rho (up, down):  1.009E-01 0.000E+00

     total cpu time spent up to now is      434.8 secs

     total energy              =   -1868.38467064 Ry
     Harris-Foulkes estimate   =   -1868.38510965 Ry
     estimated scf accuracy    <       0.01360050 Ry

     iteration # 22     ecut=    60.00 Ry     beta= 0.20
     Davidson diagonalization with overlap
     ethr =  5.94E-06,  avg # of iterations =  1.6

     negative rho (up, down):  1.055E-01 0.000E+00

     total cpu time spent up to now is      453.7 secs

     total energy              =   -1868.38481756 Ry
     Harris-Foulkes estimate   =   -1868.38481208 Ry
     estimated scf accuracy    <       0.00967568 Ry

     iteration # 23     ecut=    60.00 Ry     beta= 0.20
     Davidson diagonalization with overlap
     ethr =  4.23E-06,  avg # of iterations =  3.9

     negative rho (up, down):  1.123E-01 0.000E+00

     total cpu time spent up to now is      476.2 secs

     total energy              =   -1868.38471542 Ry
     Harris-Foulkes estimate   =   -1868.38485864 Ry
     estimated scf accuracy    <       0.00651998 Ry

     iteration # 24     ecut=    60.00 Ry     beta= 0.20
     Davidson diagonalization with overlap
     ethr =  2.85E-06,  avg # of iterations =  4.9

     negative rho (up, down):  1.084E-01 0.000E+00

     total cpu time spent up to now is      500.8 secs

     total energy              =   -1868.38399532 Ry
     Harris-Foulkes estimate   =   -1868.38477578 Ry
     estimated scf accuracy    <       0.00672470 Ry

     iteration # 25     ecut=    60.00 Ry     beta= 0.20
     Davidson diagonalization with overlap
     ethr =  2.85E-06,  avg # of iterations =  2.7

     negative rho (up, down):  1.074E-01 0.000E+00

     total cpu time spent up to now is      521.7 secs

     total energy              =   -1868.38329391 Ry
     Harris-Foulkes estimate   =   -1868.38407497 Ry
     estimated scf accuracy    <       0.00334932 Ry

     iteration # 26     ecut=    60.00 Ry     beta= 0.20
     Davidson diagonalization with overlap
     c_bands:  1 eigenvalues not converged
     ethr =  1.46E-06,  avg # of iterations =  7.8

     negative rho (up, down):  1.044E-01 0.000E+00

     total cpu time spent up to now is      550.6 secs

     total energy              =   -1868.38295780 Ry
     Harris-Foulkes estimate   =   -1868.38336981 Ry
     estimated scf accuracy    <       0.00582247 Ry

     iteration # 27     ecut=    60.00 Ry     beta= 0.20
     Davidson diagonalization with overlap
     ethr =  1.46E-06,  avg # of iterations =  6.2

     negative rho (up, down):  9.240E-02 0.000E+00

     total cpu time spent up to now is      577.0 secs

     total energy              =   -1868.38245838 Ry
     Harris-Foulkes estimate   =   -1868.38298749 Ry
     estimated scf accuracy    <       0.00297678 Ry

     iteration # 28     ecut=    60.00 Ry     beta= 0.20
     Davidson diagonalization with overlap
     ethr =  1.30E-06,  avg # of iterations =  7.9

     negative rho (up, down):  9.015E-02 0.000E+00

     total cpu time spent up to now is      606.4 secs

     total energy              =   -1868.38235736 Ry
     Harris-Foulkes estimate   =   -1868.38250053 Ry
     estimated scf accuracy    <       0.00121588 Ry

     iteration # 29     ecut=    60.00 Ry     beta= 0.20
     Davidson diagonalization with overlap
     ethr =  5.31E-07,  avg # of iterations =  4.7

     negative rho (up, down):  9.011E-02 0.000E+00

     total cpu time spent up to now is      630.7 secs

     total energy              =   -1868.38237396 Ry
     Harris-Foulkes estimate   =   -1868.38238252 Ry
     estimated scf accuracy    <       0.00097833 Ry

     iteration # 30     ecut=    60.00 Ry     beta= 0.20
     Davidson diagonalization with overlap
     ethr =  4.27E-07,  avg # of iterations =  2.5

     negative rho (up, down):  8.940E-02 0.000E+00

     total cpu time spent up to now is      651.2 secs

     total energy              =   -1868.38239467 Ry
     Harris-Foulkes estimate   =   -1868.38238202 Ry
     estimated scf accuracy    <       0.00054237 Ry

     iteration # 31     ecut=    60.00 Ry     beta= 0.20
     Davidson diagonalization with overlap
     ethr =  2.37E-07,  avg # of iterations =  3.3

     negative rho (up, down):  8.955E-02 0.000E+00

     total cpu time spent up to now is      673.4 secs

     total energy              =   -1868.38242598 Ry
     Harris-Foulkes estimate   =   -1868.38239779 Ry
     estimated scf accuracy    <       0.00025199 Ry

     iteration # 32     ecut=    60.00 Ry     beta= 0.20
     Davidson diagonalization with overlap
     ethr =  1.10E-07,  avg # of iterations =  2.3

     negative rho (up, down):  8.967E-02 0.000E+00

     total cpu time spent up to now is      694.3 secs

     total energy              =   -1868.38244764 Ry
     Harris-Foulkes estimate   =   -1868.38242827 Ry
     estimated scf accuracy    <       0.00012232 Ry

     iteration # 33     ecut=    60.00 Ry     beta= 0.20
     Davidson diagonalization with overlap
     ethr =  5.34E-08,  avg # of iterations =  3.0

     negative rho (up, down):  8.989E-02 0.000E+00

     total cpu time spent up to now is      715.5 secs

     total energy              =   -1868.38245530 Ry
     Harris-Foulkes estimate   =   -1868.38244998 Ry
     estimated scf accuracy    <       0.00003594 Ry

     iteration # 34     ecut=    60.00 Ry     beta= 0.20
     Davidson diagonalization with overlap
     ethr =  1.57E-08,  avg # of iterations =  2.8

     negative rho (up, down):  8.977E-02 0.000E+00

     total cpu time spent up to now is      736.8 secs

     total energy              =   -1868.38245556 Ry
     Harris-Foulkes estimate   =   -1868.38245616 Ry
     estimated scf accuracy    <       0.00002509 Ry

     iteration # 35     ecut=    60.00 Ry     beta= 0.20
     Davidson diagonalization with overlap
     ethr =  1.10E-08,  avg # of iterations =  1.2

     negative rho (up, down):  8.975E-02 0.000E+00

     total cpu time spent up to now is      755.6 secs

     total energy              =   -1868.38245616 Ry
     Harris-Foulkes estimate   =   -1868.38245604 Ry
     estimated scf accuracy    <       0.00000779 Ry

     iteration # 36     ecut=    60.00 Ry     beta= 0.20
     Davidson diagonalization with overlap
     ethr =  3.40E-09,  avg # of iterations =  1.6

     negative rho (up, down):  9.014E-02 0.000E+00

     total cpu time spent up to now is      775.0 secs

     total energy              =   -1868.38245527 Ry
     Harris-Foulkes estimate   =   -1868.38245633 Ry
     estimated scf accuracy    <       0.00000455 Ry

     iteration # 37     ecut=    60.00 Ry     beta= 0.20
     Davidson diagonalization with overlap
     ethr =  1.99E-09,  avg # of iterations =  2.1

     negative rho (up, down):  9.007E-02 0.000E+00

     total cpu time spent up to now is      795.9 secs

     total energy              =   -1868.38245558 Ry
     Harris-Foulkes estimate   =   -1868.38245559 Ry
     estimated scf accuracy    <       0.00000208 Ry

     iteration # 38     ecut=    60.00 Ry     beta= 0.20
     Davidson diagonalization with overlap
     ethr =  9.09E-10,  avg # of iterations =  1.0

     negative rho (up, down):  9.002E-02 0.000E+00

     total cpu time spent up to now is      813.7 secs

     End of self-consistent calculation

          k = 0.0000 0.0000 0.0000 ( 39547 PWs)   bands (ev):

   -41.7305 -38.9324 -23.8493 -23.5860 -23.4429 -23.1769 -21.8728 -21.6047
   -21.5989 -19.4671 -18.9370 -18.9271 -16.9353 -16.2621 -16.0104 -15.4018
   -15.3015 -15.0925 -15.0708 -15.0475 -14.9488 -14.7860 -14.5690 -14.4873
   -14.4548 -14.2744 -13.7833  -9.1612  -8.8073  -8.7844  -8.7742  -8.7148
    -8.5785  -8.5516  -8.3967  -8.3781  -8.3024  -8.2055  -8.1703  -3.7156
    -3.6918  -3.2386  -2.8907  -2.8576  -2.8291  -2.7093  -2.6695  -2.6171
    -2.6031  -2.5256  -2.2941  -1.6960  -1.6608  -1.6206  -1.5803  -1.4394
    -1.3460  -1.2686  -1.2183  -1.1893  -1.1787  -0.9846  -0.9165  -0.8797
    -0.8431  -0.7845  -0.7584  -0.7483  -0.6896  -0.6784  -0.6657  -0.6612
    -0.6272  -0.5840  -0.5271  -0.5201  -0.4134  -0.4080  -0.3638  -0.3062
    -0.2781  -0.2652  -0.2641  -0.2307  -0.2161  -0.1837  -0.1487  -0.1461
    -0.1248  -0.0050   0.0087   0.1376   0.2741   0.2923   0.4213   0.4785
     0.5204   0.5574   0.5753   0.6375   0.6780   0.6930   0.7889   0.8963
     1.1101   1.1306   1.1627   1.1754   1.2862   1.3065   1.3739   1.4352
     1.4741   1.5662   1.5932   1.5972   1.8609   1.8942   1.9418   1.9879
     3.2783   4.4120   4.4649   4.6474   4.8780   5.1669   5.2217   5.8606
     5.8701   5.8992   6.0834   6.1182   6.2458   6.4843   6.8310   7.3295
     7.3662   7.4047

          k = 0.0000 0.1281 0.0000 ( 39557 PWs)   bands (ev):

   -41.7287 -38.9300 -23.8285 -23.5645 -23.4221 -23.1548 -21.8656 -21.6382
   -21.6024 -19.4311 -19.0314 -18.9338 -16.8857 -16.1534 -16.0278 -15.3588
   -15.3088 -15.0943 -15.0799 -15.0169 -14.9042 -14.8323 -14.5743 -14.5137
   -14.4894 -14.3385 -13.8136  -9.1498  -8.7963  -8.7894  -8.7464  -8.7014
    -8.5711  -8.5372  -8.3982  -8.3577  -8.2859  -8.1908  -8.1628  -3.8238
    -3.6680  -3.1482  -2.9941  -2.9797  -2.8414  -2.8091  -2.6710  -2.6532
    -2.5308  -2.5101  -2.3036  -2.1562  -1.9460  -1.7884  -1.7319  -1.7180
    -1.6332  -1.5277  -1.4312  -1.4247  -1.2435  -1.2355  -1.2266  -1.1316
    -1.0083  -0.9896  -0.9313  -0.9126  -0.8444  -0.8248  -0.7408  -0.6601
    -0.5599  -0.5163  -0.5157  -0.4707  -0.4679  -0.3708  -0.3592  -0.3394
    -0.2851  -0.2649  -0.2523  -0.1987  -0.1869  -0.1689  -0.1538   0.0377
     0.1063   0.1147   0.1422   0.2056   0.2330   0.2825   0.3686   0.4326
     0.6377   0.6709   0.7127   0.8075   0.8146   0.8865   0.8871   0.9381
     1.0046   1.1303   1.1516   1.1570   1.2220   1.2723   1.3860   1.4339
     1.4604   1.5486   1.7225   1.9028   1.9168   2.1132   2.1987   2.3475
     3.3799   4.4181   4.8389   4.9865   5.0033   5.0698   5.3742   5.8954
     5.9356   6.1899   6.3376   6.5062   6.5519   6.7259   7.0512   7.3058
     7.5310   7.5897

          k = 0.0000 0.2563 0.0000 ( 39594 PWs)   bands (ev):

   -41.7245 -38.9245 -23.7776 -23.5114 -23.3709 -23.1004 -21.8543 -21.7243
   -21.5967 -19.3401 -19.2564 -18.9261 -16.7519 -16.0897 -15.9058 -15.3858
   -15.2431 -15.1505 -15.1365 -14.9505 -14.8990 -14.7562 -14.6548 -14.5515
   -14.4919 -14.4621 -13.9046  -9.1211  -8.8380  -8.7489  -8.6715  -8.6516
    -8.6122  -8.4418  -8.4340  -8.2606  -8.2465  -8.2333  -8.0557  -4.0883
    -3.5240  -3.4248  -3.3070  -3.1749  -2.9609  -2.8451  -2.8202  -2.7699
    -2.7000  -2.5534  -2.5495  -2.4725  -2.4607  -2.4573  -2.2793  -2.0265
    -1.9750  -1.7066  -1.6313  -1.6138  -1.5649  -1.5195  -1.4087  -1.3997
    -1.3805  -1.2952  -1.2091  -1.1595  -1.1026  -1.0687  -0.8893  -0.8595
    -0.8125  -0.8031  -0.7071  -0.6550  -0.5451  -0.4925  -0.4476  -0.3670
    -0.3072  -0.2293  -0.2121  -0.1915  -0.1875  -0.1083  -0.0395   0.0691
     0.3317   0.3424   0.3770   0.5066   0.5445   0.5646   0.5753   0.7003
     0.7132   0.7505   0.8084   0.8462   0.8747   0.9419   0.9431   1.0264
     1.0490   1.1149   1.2115   1.2163   1.3386   1.4165   1.4528   1.5153
     1.5608   1.8110   1.8647   1.9325   1.9773   2.4754   2.6672   2.9814
     3.5326   4.3379   4.7084   5.7122   5.7363   5.8540   5.9844   6.0432
     6.0805   6.8945   7.0449   7.1758   7.2132   7.3574   7.3657   7.5682
     7.8000   7.9855

          k = 0.0000 0.3844 0.0000 ( 39506 PWs)   bands (ev):

   -41.7203 -38.9189 -23.7254 -23.4569 -23.3184 -23.0445 -21.8769 -21.7732
   -21.5910 -19.4542 -19.2419 -18.9183 -16.5703 -16.2076 -15.6568 -15.5280
   -15.2490 -15.2440 -15.1018 -14.9193 -14.9008 -14.7961 -14.6401 -14.5379
   -14.4926 -14.3955 -14.0579  -9.0880  -8.8759  -8.7089  -8.6455  -8.6378
    -8.5521  -8.4822  -8.3250  -8.2714  -8.2028  -8.1584  -7.9423  -4.3350
    -3.8815  -3.7752  -3.5533  -3.3764  -3.3632  -3.2805  -3.0681  -2.9487
    -2.8601  -2.7282  -2.6586  -2.5340  -2.4958  -2.4916  -2.3625  -2.2908
    -2.2112  -1.9842  -1.8529  -1.8271  -1.6664  -1.6514  -1.6505  -1.5799
    -1.5341  -1.5300  -1.4009  -1.3834  -1.2990  -1.2347  -1.1032  -1.0656
    -1.0508  -1.0111  -0.9134  -0.8509  -0.7638  -0.6728  -0.3764  -0.2698
    -0.2354  -0.2134  -0.2127  -0.2051  -0.1879  -0.0746   0.1488   0.2550
     0.2848   0.3607   0.4330   0.4943   0.5641   0.5804   0.6529   0.7736
     0.8048   0.8416   0.9045   0.9660   1.0388   1.0450   1.0915   1.1463
     1.1725   1.3110   1.3160   1.4218   1.4445   1.5840   1.6409   1.8141
     1.8604   1.9004   1.9540   1.9843   2.1755   2.4468   2.6552   3.5224
     3.5670   4.4191   4.4785   6.1160   6.2235   6.4871   6.6327   6.8308
     6.8369   7.0617   7.0633   7.6056   7.8398   7.9078   8.0415   8.0998
     8.1388   8.2285

          k = 0.0000-0.5125 0.0000 ( 39630 PWs)   bands (ev):

   -41.7186 -38.9165 -23.7033 -23.4339 -23.2963 -23.0209 -21.9028 -21.7760
   -21.5887 -19.5301 -19.1987 -18.9151 -16.4039 -16.3499 -15.6088 -15.5253
   -15.3099 -15.2970 -15.0199 -14.9268 -14.9048 -14.8554 -14.6957 -14.4613
   -14.4045 -14.2656 -14.2581  -9.0717  -8.8922  -8.6928  -8.6569  -8.6211
    -8.5093  -8.5000  -8.2846  -8.2779  -8.1850  -8.1144  -7.8932  -4.4379
    -4.1149  -3.9255  -3.6882  -3.6084  -3.6004  -3.2470  -2.9717  -2.9445
    -2.9262  -2.8941  -2.7629  -2.6972  -2.5916  -2.3796  -2.3474  -2.2923
    -2.1692  -2.1110  -1.9344  -1.9118  -1.8392  -1.8020  -1.6893  -1.6399
    -1.6317  -1.5051  -1.4158  -1.4119  -1.3521  -1.3282  -1.1902  -1.1550
    -1.1282  -1.1267  -1.0721  -0.9048  -0.8697  -0.6618  -0.3055  -0.2647
    -0.2627  -0.2230  -0.2170  -0.1819  -0.1775  -0.0649   0.2379   0.3374
     0.3422   0.3604   0.3740   0.4848   0.5623   0.5817   0.7216   0.7268
     0.7793   0.8313   0.9546   0.9913   0.9963   1.0751   1.0888   1.2228
     1.2433   1.3268   1.4735   1.6609   1.7244   1.7373   1.7413   1.7831
     1.8218   1.9673   2.0228   2.0932   2.3065   2.3450   2.5386   3.4957
     3.7329   4.3943   4.5084   6.1423   6.3728   6.6858   6.9536   7.0207
     7.1165   7.2386   7.2915   7.5068   7.9957   8.0686   8.1396   8.3870
     8.3970   8.6774

          k = 0.1250 0.0000 0.0000 ( 39572 PWs)   bands (ev):

   -41.7292 -38.9306 -23.8318 -23.5676 -23.4252 -23.1579 -21.8668 -21.6402
   -21.5972 -19.4346 -19.0371 -18.9246 -16.8859 -16.1466 -16.0266 -15.4289
   -15.3292 -15.1218 -15.1188 -15.0256 -14.9241 -14.8151 -14.5695 -14.5085
   -14.4854 -14.3035 -13.8131  -9.1836  -8.8183  -8.7845  -8.7428  -8.6963
    -8.5434  -8.5174  -8.3590  -8.3459  -8.3184  -8.1656  -8.1346  -3.8172
    -3.6486  -3.1573  -2.9822  -2.9111  -2.8081  -2.7795  -2.6530  -2.6505
    -2.5924  -2.5486  -2.3180  -1.7828  -1.7176  -1.6708  -1.6583  -1.5632
    -1.5205  -1.3806  -1.2631  -1.2599  -1.2129  -1.1455  -1.0993  -0.9647
    -0.9532  -0.9493  -0.8622  -0.8614  -0.8547  -0.7468  -0.6712  -0.6650
    -0.6252  -0.5518  -0.4929  -0.4771  -0.4035  -0.3541  -0.3368  -0.3345
    -0.2989  -0.2757  -0.2653  -0.2449  -0.2387  -0.1541  -0.1356  -0.0757
    -0.0684   0.0142   0.1627   0.1764   0.2298   0.2388   0.3432   0.4357
     0.4398   0.5023   0.6020   0.6441   0.7257   0.8565   0.8810   0.9166
     1.0518   1.1697   1.2122   1.2558   1.2748   1.3207   1.4107   1.4874
     1.4888   1.4889   1.5350   1.6470   1.9036   1.9215   1.9404   2.1104
     3.3717   4.3348   4.6601   4.8068   5.0576   5.0719   5.3761   5.6808
     5.9516   6.1096   6.3192   6.4465   6.4696   6.6944   7.0511   7.3468
     7.5151   7.5830

          k = 0.1250 0.1281 0.0000 ( 39598 PWs)   bands (ev):

   -41.7274 -38.9282 -23.8117 -23.5468 -23.4051 -23.1366 -21.8598 -21.6421
   -21.6317 -19.3991 -19.0408 -19.0197 -16.8379 -16.0403 -16.0388 -15.3825
   -15.3267 -15.1248 -15.1153 -14.9979 -14.8705 -14.8687 -14.5690 -14.5509
   -14.4823 -14.3561 -13.8400  -9.1689  -8.9164  -8.8040  -8.7209  -8.6909
    -8.6087  -8.5127  -8.3936  -8.3433  -8.2708  -8.2236  -8.0157  -3.9428
    -3.6186  -3.1058  -3.0744  -3.0258  -2.8405  -2.7971  -2.6887  -2.6813
    -2.6395  -2.4697  -2.2991  -2.1681  -1.9294  -1.9174  -1.7825  -1.7693
    -1.7588  -1.7242  -1.5977  -1.5774  -1.4269  -1.2741  -1.2554  -1.2480
    -1.1403  -1.0304  -1.0062  -0.9255  -0.8701  -0.8495  -0.7357  -0.6482
    -0.6103  -0.5337  -0.5188  -0.4915  -0.4212  -0.4135  -0.3577  -0.3498
    -0.3156  -0.2943  -0.2694  -0.2341  -0.2122  -0.1649  -0.1395   0.0370
     0.0865   0.1743   0.1790   0.2790   0.3336   0.3960   0.4394   0.4598
     0.4731   0.6520   0.7020   0.7368   0.7433   0.9190   0.9334   1.0331
     1.0840   1.1032   1.1128   1.2238   1.2249   1.4303   1.5207   1.5591
     1.5686   1.6217   1.6814   1.8881   2.1346   2.2118   2.3092   2.3575
     3.4569   4.3572   4.8715   4.9865   5.1154   5.2246   5.5233   5.7788
     5.9508   6.4194   6.6208   6.7000   6.7619   6.9168   7.1947   7.2942
     7.6905   7.7596

          k = 0.1250 0.2563 0.0000 ( 39622 PWs)   bands (ev):

   -41.7232 -38.9227 -23.7624 -23.4956 -23.3556 -23.0842 -21.8493 -21.7230
   -21.6299 -19.3093 -19.2518 -19.0214 -16.7085 -16.0918 -15.7937 -15.3708
   -15.2592 -15.1589 -15.1380 -14.9555 -14.9335 -14.7186 -14.6566 -14.5429
   -14.4873 -14.4528 -13.9212  -9.1345  -9.0254  -8.8150  -8.7491  -8.6912
    -8.6283  -8.5627  -8.4332  -8.3495  -8.2498  -8.1862  -7.9711  -4.2103
    -3.5383  -3.5244  -3.3265  -3.1677  -2.9006  -2.8542  -2.8400  -2.7800
    -2.7350  -2.6531  -2.5515  -2.5437  -2.4692  -2.4525  -2.4003  -2.2168
    -2.0476  -1.7703  -1.7210  -1.6779  -1.6234  -1.6129  -1.5994  -1.5231
    -1.3989  -1.3612  -1.2219  -1.0972  -1.0801  -1.0138  -1.0050  -0.8949
    -0.8571  -0.7531  -0.6730  -0.6116  -0.5646  -0.4234  -0.3708  -0.3315
    -0.3244  -0.3057  -0.2282  -0.1888  -0.1792  -0.0406   0.0213   0.1348
     0.1764   0.3967   0.4558   0.5167   0.5996   0.6286   0.6687   0.6865
     0.6940   0.8009   0.8472   0.8772   0.9033   0.9205   0.9420   1.0420
     1.0611   1.2751   1.3253   1.4066   1.4233   1.4620   1.5079   1.6463
     1.7398   1.8967   1.9200   2.1567   2.4536   2.4801   2.7039   2.9797
     3.6205   4.2924   4.5840   5.7138   5.7898   5.9116   5.9563   6.0545
     6.0884   7.0246   7.1043   7.2456   7.4125   7.5162   7.5221   7.6507
     7.8653   7.9780

          k = 0.1250 0.3844 0.0000 ( 39621 PWs)   bands (ev):

   -41.7190 -38.9171 -23.7119 -23.4431 -23.3049 -23.0305 -21.8732 -21.7710
   -21.6233 -19.4482 -19.2125 -19.0116 -16.5342 -16.1961 -15.5549 -15.4831
   -15.2239 -15.2149 -15.0977 -14.9620 -14.8974 -14.7770 -14.6210 -14.5098
   -14.4886 -14.3898 -14.0595  -9.1023  -9.0411  -8.8196  -8.7191  -8.6938
    -8.6427  -8.5809  -8.4443  -8.3975  -8.2314  -8.2139  -8.0178  -4.4678
    -3.9219  -3.8346  -3.6041  -3.4062  -3.3662  -3.3545  -3.0819  -2.9521
    -2.8323  -2.7913  -2.7601  -2.6573  -2.5918  -2.5793  -2.4296  -2.2408
    -2.1365  -2.0743  -1.9771  -1.9084  -1.8006  -1.6475  -1.6348  -1.6224
    -1.5107  -1.4605  -1.4535  -1.3202  -1.2808  -1.2421  -1.1944  -1.1485
    -1.1025  -1.0017  -0.7847  -0.6756  -0.6056  -0.5533  -0.3364  -0.3337
    -0.2879  -0.2126  -0.1541  -0.1511  -0.0996   0.0223   0.1086   0.2701
     0.2856   0.4297   0.4576   0.5628   0.6020   0.6468   0.7074   0.7631
     0.8171   0.8617   0.9636   1.0200   1.0668   1.0836   1.1553   1.2123
     1.3100   1.4394   1.5412   1.5718   1.5802   1.6755   1.8344   1.8969
     1.9309   1.9396   2.1716   2.2404   2.4075   2.4713   2.7294   3.5035
     3.6621   4.3207   4.3965   5.9817   6.1345   6.4415   6.5149   6.7047
     6.7203   6.9590   7.1958   7.7215   7.7988   8.0044   8.0817   8.1422
     8.2036   8.3953

          k = 0.1250-0.5125 0.0000 ( 39612 PWs)   bands (ev):

   -41.7173 -38.9148 -23.6905 -23.4209 -23.2835 -23.0077 -21.8996 -21.7735
   -21.6205 -19.5237 -19.1700 -19.0074 -16.3748 -16.3287 -15.5680 -15.4079
   -15.2752 -15.2578 -14.9855 -14.9524 -14.8979 -14.8690 -14.6697 -14.4601
   -14.3983 -14.2579 -14.2396  -9.0879  -9.0224  -8.7944  -8.7198  -8.7024
    -8.6304  -8.5862  -8.4455  -8.4219  -8.2720  -8.1984  -8.0645  -4.5762
    -4.1152  -4.0310  -3.7462  -3.6025  -3.5895  -3.2662  -3.2141  -3.2037
    -2.8670  -2.8112  -2.7778  -2.6933  -2.5401  -2.4734  -2.4556  -2.2948
    -2.2375  -2.1707  -2.0896  -1.9687  -1.8532  -1.7313  -1.6542  -1.5887
    -1.5307  -1.4856  -1.4842  -1.4241  -1.3524  -1.2990  -1.2785  -1.2321
    -1.1928  -1.0929  -0.8197  -0.7066  -0.6857  -0.5978  -0.3392  -0.3296
    -0.2713  -0.1974  -0.1495  -0.1060  -0.0228   0.0441   0.1431   0.3203
     0.3728   0.4245   0.4429   0.5433   0.5892   0.6363   0.7261   0.7332
     0.7581   0.8866   0.9405   1.0800   1.1240   1.1678   1.1795   1.3115
     1.4642   1.5803   1.7155   1.7176   1.7446   1.7896   1.9037   2.0018
     2.0275   2.0885   2.0896   2.2931   2.3598   2.4043   2.6364   3.5890
     3.6850   4.2955   4.4451   6.0286   6.2210   6.6228   6.6870   6.7896
     6.9557   7.0477   7.2738   7.6101   8.0206   8.2386   8.3071   8.4958
     8.6255   8.6812

          k = 0.2500 0.0000 0.0000 ( 39674 PWs)   bands (ev):

   -41.7260 -38.9262 -23.7888 -23.5225 -23.3818 -23.1112 -21.8560 -21.7199
   -21.5929 -19.3528 -19.2520 -18.9185 -16.7536 -16.0842 -15.8823 -15.5106
   -15.4351 -15.2432 -15.2296 -14.9883 -14.8495 -14.8041 -14.6387 -14.5638
   -14.4739 -14.3554 -13.9000  -9.2234  -8.8275  -8.7687  -8.6651  -8.6628
    -8.4734  -8.4321  -8.3289  -8.2949  -8.2659  -8.0983  -8.0455  -4.0257
    -3.5186  -3.2906  -3.2021  -3.0180  -2.7958  -2.7529  -2.7010  -2.6637
    -2.5574  -2.4637  -2.3617  -2.3286  -2.0399  -1.8463  -1.7373  -1.7183
    -1.6324  -1.5130  -1.4884  -1.4819  -1.3501  -1.3070  -1.2558  -1.2499
    -1.2265  -1.1997  -1.1650  -1.0606  -0.9445  -0.9179  -0.7149  -0.6918
    -0.6086  -0.5722  -0.5572  -0.5317  -0.4189  -0.3850  -0.3557  -0.3022
    -0.2890  -0.2822  -0.2713  -0.2531  -0.1390  -0.1180  -0.0717  -0.0206
     0.0028   0.0311   0.0907   0.2244   0.2822   0.3243   0.3458   0.4322
     0.4947   0.5923   0.7259   0.7484   0.7838   0.8582   0.8765   1.0288
     1.0348   1.0624   1.1207   1.2123   1.2139   1.3292   1.3721   1.3971
     1.5084   1.6962   1.8087   1.8233   1.9464   1.9468   2.0411   2.3079
     3.5329   4.0763   4.8508   5.1142   5.2287   5.4919   5.8545   5.9212
     6.0314   6.7406   6.8008   6.9192   7.0503   7.2262   7.3011   7.5142
     7.8921   7.9978

          k = 0.2500 0.1281 0.0000 ( 39646 PWs)   bands (ev):

   -41.7242 -38.9239 -23.7704 -23.5035 -23.3633 -23.0919 -21.8499 -21.7179
   -21.6300 -19.3187 -19.2463 -19.0186 -16.7099 -16.0875 -15.7774 -15.4575
   -15.4060 -15.2248 -15.2048 -14.9591 -14.9149 -14.7525 -14.6455 -14.5534
   -14.4621 -14.3847 -13.9171  -9.2176  -8.9483  -8.8344  -8.7440  -8.7182
    -8.5776  -8.5154  -8.4001  -8.3194  -8.2721  -8.1601  -7.9407  -4.1676
    -3.5363  -3.4287  -3.2464  -2.9583  -2.7901  -2.7775  -2.7728  -2.7400
    -2.6752  -2.5011  -2.3823  -2.3189  -2.2872  -2.1921  -1.8805  -1.8789
    -1.8104  -1.7793  -1.7226  -1.6452  -1.6106  -1.6062  -1.4934  -1.4512
    -1.3415  -1.2331  -1.1037  -1.0816  -1.0177  -0.9903  -0.8060  -0.6329
    -0.6017  -0.5705  -0.5289  -0.5096  -0.4982  -0.4334  -0.3797  -0.3520
    -0.3193  -0.2985  -0.2049  -0.1846  -0.0887  -0.0131  -0.0123   0.0297
     0.0535   0.1338   0.2011   0.2414   0.4248   0.4907   0.5274   0.5700
     0.5966   0.6306   0.7248   0.7487   0.8793   0.9229   0.9336   0.9441
     0.9928   1.0392   1.1584   1.3232   1.3494   1.3991   1.5599   1.6124
     1.7672   1.8943   1.9673   2.1829   2.1959   2.3003   2.3548   2.6149
     3.6232   4.0883   4.6768   5.3565   5.4719   5.5171   5.9418   5.9834
     6.0132   6.9961   7.0266   7.0851   7.2109   7.3002   7.4594   7.6591
     7.9685   8.0460

          k = 0.2500 0.2563 0.0000 ( 39669 PWs)   bands (ev):

   -41.7201 -38.9184 -23.7251 -23.4570 -23.3180 -23.0446 -21.8403 -21.7376
   -21.6871 -19.2524 -19.2328 -19.2159 -16.5937 -16.1108 -15.5457 -15.3629
   -15.2975 -15.1879 -15.1549 -15.0594 -14.8920 -14.6673 -14.6140 -14.5210
   -14.4702 -14.4278 -13.9705  -9.2533  -9.1480  -9.0212  -8.8322  -8.7675
    -8.7211  -8.6417  -8.6094  -8.4167  -8.2658  -8.2553  -8.0400  -4.5042
    -3.8487  -3.5403  -3.4717  -3.1406  -3.0734  -2.9248  -2.9068  -2.8565
    -2.7934  -2.7727  -2.6905  -2.5601  -2.5521  -2.4563  -2.2894  -2.2885
    -2.2074  -2.1888  -2.1326  -2.0024  -1.6506  -1.6492  -1.5848  -1.5251
    -1.4084  -1.3766  -1.3199  -1.1431  -1.1152  -1.0321  -0.9766  -0.9278
    -0.8783  -0.8344  -0.7834  -0.5999  -0.5555  -0.4655  -0.3599  -0.2360
    -0.1502  -0.1197  -0.0883  -0.0820  -0.0201   0.0662   0.1064   0.1924
     0.4345   0.4830   0.5176   0.5808   0.5901   0.5971   0.6815   0.7072
     0.7326   0.8054   0.8842   0.9435   0.9688   1.0310   1.1123   1.1778
     1.2654   1.3157   1.3447   1.4084   1.4565   1.5330   1.5792   1.8498
     2.0950   2.1667   2.4484   2.5767   2.6112   2.7656   2.9729   3.1080
     3.8533   4.0544   4.3652   5.6226   5.8698   5.9730   6.0178   6.0411
     6.3438   6.8218   7.4551   7.5317   7.7325   7.7450   7.9382   7.9977
     8.0806   8.2029

          k = 0.2500 0.3844 0.0000 ( 39707 PWs)   bands (ev):

   -41.7159 -38.9128 -23.6788 -23.4094 -23.2717 -22.9961 -21.8645 -21.7793
   -21.6853 -19.4337 -19.2165 -19.1374 -16.4413 -16.1766 -15.4214 -15.2927
   -15.1641 -15.1346 -15.1122 -15.0926 -14.8453 -14.7229 -14.5742 -14.4774
   -14.4445 -14.3686 -14.0658  -9.3404  -9.1510  -9.1278  -8.9535  -8.8728
    -8.7509  -8.7461  -8.6551  -8.6528  -8.4712  -8.2812  -8.2402  -4.8323
    -4.2628  -3.8537  -3.7485  -3.5495  -3.3904  -3.3448  -3.3398  -3.1370
    -2.9509  -2.8774  -2.7958  -2.6590  -2.6584  -2.6517  -2.5923  -2.4245
    -2.2500  -2.1970  -2.1390  -2.0871  -1.7481  -1.7143  -1.6293  -1.5847
    -1.5808  -1.5229  -1.3525  -1.2768  -1.2457  -1.1460  -1.1164  -1.0872
    -1.0524  -0.9843  -0.8855  -0.6028  -0.5419  -0.4560  -0.3220  -0.1423
    -0.0598  -0.0594   0.0275   0.0679   0.1516   0.2505   0.3011   0.3248
     0.4954   0.5130   0.6087   0.6678   0.7281   0.7993   0.8253   0.9350
     0.9569   1.0036   1.0238   1.0605   1.1732   1.2325   1.2734   1.2937
     1.3554   1.4655   1.5557   1.6331   1.6550   1.7683   1.8549   2.1113
     2.3282   2.3790   2.4773   2.5551   2.8545   3.0335   3.3783   3.4224
     3.8510   4.0869   4.2997   5.4269   6.0350   6.0508   6.2383   6.3324
     6.4865   7.1032   7.5675   7.8950   7.9129   8.1515   8.2765   8.3391
     8.4239   8.6263

          k = 0.2500-0.5125 0.0000 ( 39726 PWs)   bands (ev):

   -41.7142 -38.9105 -23.6594 -23.3894 -23.2522 -22.9757 -21.8918 -21.7815
   -21.6814 -19.5082 -19.2107 -19.0967 -16.3027 -16.2810 -15.4645 -15.1892
   -15.1588 -15.1464 -15.0963 -14.8985 -14.8747 -14.8278 -14.6044 -14.4566
   -14.3884 -14.2533 -14.1770  -9.3282  -9.1417  -9.1124  -9.0356  -8.9350
    -8.8129  -8.7376  -8.7321  -8.6564  -8.5943  -8.4354  -8.2302  -4.9674
    -4.4261  -4.0701  -3.9335  -3.5846  -3.5787  -3.5706  -3.4562  -3.3363
    -2.9447  -2.8765  -2.8150  -2.7631  -2.6866  -2.6465  -2.5732  -2.5394
    -2.2232  -2.1893  -2.1561  -2.1114  -1.8396  -1.7587  -1.6760  -1.6233
    -1.6065  -1.5019  -1.3985  -1.3310  -1.2892  -1.2193  -1.1646  -1.0913
    -1.0567  -1.0426  -0.9013  -0.6177  -0.5076  -0.4408  -0.3052  -0.1255
    -0.0620  -0.0528   0.0769   0.2151   0.2159   0.3635   0.3813   0.3944
     0.5527   0.5676   0.6015   0.6679   0.7990   0.8401   0.8616   0.8645
     0.8779   1.0494   1.0742   1.1619   1.2378   1.2653   1.2862   1.3977
     1.4409   1.6651   1.7123   1.7233   1.7924   1.9468   2.0228   2.2185
     2.2563   2.4220   2.4240   2.5901   2.9122   3.0879   3.4337   3.5638
     3.7036   4.0849   4.4307   5.3229   5.9868   6.0627   6.1963   6.2668
     6.9139   7.2572   7.3376   7.9116   8.0411   8.5144   8.5157   8.7206
     8.7829   8.8584

          k = 0.3750 0.0000 0.0000 ( 39698 PWs)   bands (ev):

   -41.7228 -38.9218 -23.7449 -23.4762 -23.3374 -23.0633 -21.8656 -21.7765
   -21.5885 -19.4412 -19.2641 -18.9125 -16.5785 -16.1918 -15.6441 -15.6165
   -15.5405 -15.3816 -15.3442 -14.9938 -14.8419 -14.7600 -14.6377 -14.5522
   -14.4448 -14.3867 -14.0310  -9.2482  -8.8286  -8.7368  -8.6381  -8.5841
    -8.4142  -8.3427  -8.3247  -8.2565  -8.1824  -8.0462  -7.9519  -4.2284
    -3.6130  -3.4625  -3.3053  -2.9633  -2.9445  -2.8124  -2.7699  -2.6309
    -2.5045  -2.5032  -2.4358  -2.4357  -2.3698  -1.9610  -1.9297  -1.8242
    -1.7534  -1.7371  -1.7222  -1.6086  -1.6066  -1.5244  -1.4418  -1.3886
    -1.3666  -1.2626  -1.2344  -1.1852  -1.0966  -1.0082  -0.9779  -0.8980
    -0.7070  -0.6818  -0.6173  -0.4233  -0.4127  -0.3603  -0.3293  -0.3024
    -0.2681  -0.2665  -0.2626  -0.0920  -0.0796  -0.0578  -0.0363  -0.0036
     0.0546   0.0843   0.1176   0.1537   0.2385   0.2631   0.3571   0.5110
     0.5806   0.6730   0.7413   0.7557   0.8575   0.9224   0.9239   1.0188
     1.0610   1.1234   1.1253   1.1730   1.1975   1.2355   1.4658   1.5002
     1.5505   1.7365   1.8593   1.9456   1.9616   2.1474   2.1700   2.3771
     3.4183   4.0682   4.6852   5.7502   5.8273   5.8641   6.0827   6.2324
     6.4600   7.0635   7.2516   7.2571   7.4337   7.6785   7.6999   7.8476
     8.0363   8.1898

          k = 0.3750 0.1281 0.0000 ( 39650 PWs)   bands (ev):

   -41.7211 -38.9195 -23.7281 -23.4592 -23.3206 -23.0461 -21.8609 -21.7731
   -21.6250 -19.4339 -19.2312 -19.0108 -16.5415 -16.1823 -15.5853 -15.5429
   -15.4596 -15.3381 -15.3011 -14.9600 -14.9092 -14.7366 -14.5950 -14.5358
   -14.4278 -14.3980 -14.0343  -9.2448  -8.8866  -8.8294  -8.7327  -8.6609
    -8.6199  -8.4810  -8.3754  -8.3560  -8.2533  -8.2216  -7.9967  -4.3840
    -3.7606  -3.5178  -3.4285  -2.9818  -2.9699  -2.8474  -2.8021  -2.7624
    -2.7027  -2.6262  -2.5820  -2.3336  -2.2623  -2.2292  -2.1003  -2.0290
    -1.9614  -1.8098  -1.7832  -1.7286  -1.6792  -1.6006  -1.5696  -1.5670
    -1.5146  -1.3570  -1.3001  -1.2761  -1.2031  -1.0575  -0.8884  -0.7280
    -0.6966  -0.6312  -0.5706  -0.5541  -0.5073  -0.3921  -0.3785  -0.3661
    -0.2621  -0.1990  -0.1282  -0.1216  -0.0117   0.0738   0.0743   0.1011
     0.1509   0.1576   0.2225   0.3217   0.4060   0.4575   0.4623   0.5711
     0.5958   0.6641   0.8193   0.8270   0.8759   0.9163   0.9201   0.9896
     1.0344   1.0916   1.1351   1.2088   1.4062   1.5262   1.6107   1.7692
     1.9287   2.0785   2.1805   2.2224   2.2726   2.3437   2.4506   2.7099
     3.5151   4.0591   4.5082   5.6956   5.8749   6.0053   6.0283   6.3069
     6.5492   6.9102   7.3139   7.3270   7.4749   7.8890   7.9753   7.9923
     8.0520   8.1421

          k = 0.3750 0.2563 0.0000 ( 39655 PWs)   bands (ev):

   -41.7169 -38.9141 -23.6871 -23.4176 -23.2797 -23.0041 -21.8506 -21.7827
   -21.6918 -19.4165 -19.2259 -19.1480 -16.4458 -16.1685 -15.4623 -15.3609
   -15.2741 -15.2273 -15.1632 -15.0754 -14.8776 -14.6821 -14.4982 -14.4886
   -14.4451 -14.3865 -14.0484  -9.3091  -9.1827  -9.0702  -8.9143  -8.8482
    -8.7859  -8.6903  -8.6794  -8.6441  -8.4736  -8.2867  -8.2680  -4.7987
    -4.2003  -3.7486  -3.5309  -3.4410  -3.0913  -3.0865  -2.9887  -2.8869
    -2.8157  -2.7768  -2.6585  -2.6576  -2.5753  -2.5582  -2.5177  -2.4329
    -2.4025  -2.2206  -2.0629  -2.0246  -1.6571  -1.6177  -1.5586  -1.4826
    -1.4659  -1.4157  -1.3174  -1.2455  -1.1480  -1.0776  -1.0294  -0.9699
    -0.9422  -0.8513  -0.8238  -0.6389  -0.5230  -0.3516  -0.2727  -0.1037
    -0.0464  -0.0027   0.0550   0.1354   0.1464   0.2509   0.2756   0.3541
     0.4229   0.4873   0.5442   0.6464   0.6522   0.6880   0.7562   0.7705
     0.8260   0.8772   0.9066   0.9676   1.0146   1.0254   1.1080   1.2204
     1.2370   1.2544   1.3824   1.4408   1.4948   1.5778   1.6555   2.0967
     2.3702   2.4514   2.5416   2.6014   2.9512   2.9851   3.1215   3.4374
     3.6653   4.1275   4.2083   5.3028   5.8494   6.0333   6.0451   6.3196
     6.3942   7.0129   7.5682   7.7411   7.8224   8.0332   8.2263   8.3328
     8.3639   8.4470

          k = 0.3750 0.3844 0.0000 ( 39761 PWs)   bands (ev):

   -41.7128 -38.9085 -23.6453 -23.3752 -23.2380 -22.9612 -21.8566 -21.8272
   -21.7042 -19.4205 -19.3960 -19.0587 -16.3296 -16.1790 -15.3497 -15.2391
   -15.1569 -15.1063 -15.0941 -14.9735 -14.8032 -14.6620 -14.5243 -14.4646
   -14.4025 -14.3110 -14.0810  -9.5482  -9.3367  -9.2200  -9.2041  -9.1119
    -8.9729  -8.9570  -8.7748  -8.7657  -8.6792  -8.6026  -8.2708  -5.2104
    -4.6526  -4.1109  -3.7481  -3.7347  -3.5493  -3.4208  -3.3121  -3.2128
    -3.0861  -3.0548  -2.9741  -2.8230  -2.7098  -2.6677  -2.5746  -2.5535
    -2.4396  -2.2843  -2.0841  -1.9205  -1.9059  -1.7060  -1.6526  -1.5410
    -1.5300  -1.4799  -1.3695  -1.2956  -1.2472  -1.2035  -1.1854  -1.0719
    -1.0428  -0.7713  -0.7329  -0.6498  -0.4265  -0.2329  -0.2016   0.0312
     0.1088   0.1733   0.2200   0.2794   0.3716   0.4171   0.5504   0.6239
     0.6477   0.6549   0.7335   0.8421   0.8666   0.8730   0.9288   0.9385
     1.0618   1.1513   1.1675   1.2020   1.2429   1.3145   1.3366   1.3494
     1.4296   1.4939   1.6621   1.6778   1.6896   1.7342   1.7907   2.3683
     2.3837   2.5336   2.6021   3.0317   3.3533   3.5180   3.6165   3.6839
     3.9032   3.9655   4.4700   4.7837   5.4842   5.6864   6.0295   6.3169
     6.6153   7.3315   7.9059   8.0494   8.1458   8.1760   8.2675   8.4436
     8.4597   8.6361

          k = 0.3750-0.5125 0.0000 ( 39806 PWs)   bands (ev):

   -41.7110 -38.9063 -23.6277 -23.3574 -23.2205 -22.9432 -21.8839 -21.8286
   -21.7006 -19.4926 -19.3907 -19.0196 -16.2378 -16.2281 -15.3523 -15.2543
   -15.1001 -15.0522 -14.9034 -14.8747 -14.8018 -14.7609 -14.5343 -14.4529
   -14.3867 -14.2418 -14.1149  -9.6258  -9.4157  -9.3525  -9.2293  -9.1954
    -9.1282  -9.0361  -8.8913  -8.7695  -8.7580  -8.6752  -8.2652  -5.3755
    -4.8336  -4.2784  -3.9944  -3.8285  -3.6132  -3.5502  -3.5475  -3.4387
    -3.1947  -3.1026  -2.9874  -2.8209  -2.7460  -2.6632  -2.6021  -2.5691
    -2.4204  -2.3111  -2.0937  -2.0182  -1.9156  -1.7308  -1.6667  -1.5928
    -1.5794  -1.5244  -1.4040  -1.3743  -1.3039  -1.2800  -1.1576  -1.1412
    -1.0450  -0.7375  -0.6404  -0.5944  -0.4005  -0.1979  -0.1461   0.0407
     0.1456   0.2962   0.2993   0.3272   0.4587   0.4944   0.6108   0.6668
     0.6849   0.7861   0.8544   0.9016   0.9468   1.0133   1.0442   1.0941
     1.0954   1.1406   1.1431   1.2277   1.3428   1.4163   1.4344   1.5249
     1.6599   1.6865   1.6931   1.7311   1.8506   1.8860   1.9605   2.1992
     2.3816   2.5225   2.7183   3.1712   3.4581   3.5942   3.6777   3.7812
     3.8607   4.1375   4.5786   4.6292   5.2865   5.4939   5.9403   6.3831
     7.1315   7.3729   7.4767   8.1026   8.1236   8.2795   8.4306   8.5111
     8.5849   8.6596

          k =-0.5000 0.0000 0.0000 ( 39626 PWs)   bands (ev):

   -41.7215 -38.9200 -23.7264 -23.4566 -23.3186 -23.0431 -21.8835 -21.7851
   -21.5868 -19.5134 -19.2258 -18.9099 -16.4511 -16.2933 -15.6952 -15.6252
   -15.4525 -15.4406 -15.4058 -15.0241 -14.8302 -14.8033 -14.5584 -14.5464
   -14.4004 -14.3949 -14.1256  -9.2551  -8.8279  -8.7203  -8.6301  -8.5496
    -8.3914  -8.3205  -8.3044  -8.2460  -8.1467  -8.0272  -7.9116  -4.3147
    -3.7364  -3.5768  -3.1068  -3.0933  -2.8916  -2.8654  -2.7966  -2.7923
    -2.6913  -2.4697  -2.4633  -2.3603  -2.2154  -2.0594  -2.0127  -1.9402
    -1.8723  -1.8517  -1.7211  -1.6595  -1.6506  -1.6456  -1.4845  -1.4258
    -1.4180  -1.2867  -1.2332  -1.2285  -1.2155  -1.1792  -0.9914  -0.9465
    -0.7305  -0.7112  -0.6557  -0.4073  -0.3714  -0.3457  -0.3185  -0.3080
    -0.2731  -0.2720  -0.2514  -0.0765  -0.0647  -0.0116  -0.0086   0.0190
     0.0226   0.0709   0.0715   0.1802   0.2573   0.3052   0.4876   0.4976
     0.6253   0.6598   0.6927   0.7743   0.8079   0.8836   0.9296   1.0688
     1.1204   1.1206   1.1515   1.1609   1.2364   1.2550   1.4509   1.4785
     1.7356   1.7902   1.8538   1.8871   1.9692   2.1607   2.3496   2.3541
     3.2585   4.1550   4.6238   5.9355   6.1001   6.3486   6.4969   6.6061
     6.6847   6.6899   6.7770   7.0809   7.2393   7.8785   7.9475   8.0945
     8.3119   8.4189

          k =-0.5000 0.1281 0.0000 ( 39660 PWs)   bands (ev):

   -41.7198 -38.9177 -23.7104 -23.4405 -23.3027 -23.0268 -21.8795 -21.7812
   -21.6228 -19.5056 -19.1935 -19.0075 -16.4187 -16.2766 -15.6411 -15.5600
   -15.3869 -15.3646 -15.3365 -14.9903 -14.8969 -14.7693 -14.5281 -14.5224
   -14.3998 -14.3822 -14.1198  -9.2500  -8.8237  -8.7581  -8.7548  -8.7172
    -8.5266  -8.5158  -8.3690  -8.3509  -8.3220  -8.1629  -8.1213  -4.4765
    -3.8895  -3.6403  -3.3274  -3.1470  -3.1153  -2.8452  -2.8156  -2.7680
    -2.6915  -2.6857  -2.3969  -2.3419  -2.3218  -2.2516  -2.2409  -2.1877
    -1.9830  -1.7841  -1.7632  -1.7245  -1.6896  -1.6371  -1.5529  -1.5423
    -1.5305  -1.4028  -1.4021  -1.3578  -1.3291  -1.0709  -0.9376  -0.7468
    -0.7369  -0.7047  -0.6165  -0.5848  -0.5012  -0.3900  -0.3627  -0.3579
    -0.2666  -0.1512  -0.1045  -0.1038  -0.0179   0.0760   0.1662   0.1715
     0.1850   0.2304   0.3037   0.3169   0.3531   0.3775   0.5272   0.5765
     0.6294   0.6611   0.7836   0.8247   0.8324   0.8501   0.9209   1.0584
     1.0766   1.0865   1.1461   1.2230   1.4273   1.4962   1.7782   1.8128
     2.0228   2.0999   2.1920   2.2161   2.3290   2.4252   2.4843   2.6908
     3.3310   4.1566   4.4470   5.7292   6.0288   6.3234   6.5077   6.5178
     6.7297   6.8853   6.9536   6.9859   7.1929   8.1010   8.2785   8.2803
     8.3242   8.4272

          k =-0.5000 0.2563 0.0000 ( 39694 PWs)   bands (ev):

   -41.7156 -38.9123 -23.6712 -23.4010 -23.2636 -22.9871 -21.8698 -21.7900
   -21.6894 -19.4868 -19.2215 -19.1118 -16.3388 -16.2398 -15.5097 -15.3726
   -15.2559 -15.2463 -15.0800 -15.0586 -14.9084 -14.6864 -14.4885 -14.4422
   -14.4324 -14.3358 -14.1064  -9.2679  -9.1672  -9.0596  -8.9924  -8.8378
    -8.8237  -8.7920  -8.6797  -8.6504  -8.6050  -8.4737  -8.2895  -4.9214
    -4.3419  -3.8840  -3.5694  -3.5140  -3.2237  -3.0654  -3.0037  -2.8813
    -2.8153  -2.8115  -2.7683  -2.7068  -2.5599  -2.5562  -2.5260  -2.4821
    -2.4204  -2.2490  -2.0239  -2.0208  -1.7517  -1.5948  -1.5183  -1.4470
    -1.3966  -1.3780  -1.3253  -1.2676  -1.2573  -1.0379  -1.0369  -1.0122
    -0.9472  -0.8656  -0.8286  -0.6722  -0.4819  -0.3474  -0.1664  -0.0765
     0.0285   0.0343   0.0751   0.1849   0.2456   0.3050   0.4063   0.4080
     0.4340   0.5254   0.5975   0.7134   0.7288   0.7406   0.7843   0.7911
     0.8001   0.8102   0.8553   0.9357   0.9792   1.1650   1.1749   1.2008
     1.2036   1.2501   1.3142   1.3623   1.4449   1.6257   1.7634   2.2225
     2.4407   2.5256   2.5893   2.6513   3.0017   3.0824   3.2168   3.4283
     3.5301   4.1051   4.2999   5.1453   5.8074   5.9995   6.0537   6.2376
     6.8246   7.1751   7.3625   7.6655   7.7779   8.2373   8.3018   8.4590
     8.5200   8.5812

          k =-0.5000 0.3844 0.0000 ( 39830 PWs)   bands (ev):

   -41.7115 -38.9068 -23.6312 -23.3608 -23.2239 -22.9466 -21.8602 -21.8483
   -21.7032 -19.4681 -19.4124 -19.0243 -16.2562 -16.2081 -15.3758 -15.2307
   -15.1338 -15.0963 -15.0833 -14.8407 -14.8307 -14.6348 -14.5011 -14.4589
   -14.3931 -14.2706 -14.0942  -9.5999  -9.3860  -9.3544  -9.2205  -9.1932
    -9.1316  -9.0031  -8.9107  -8.7877  -8.7650  -8.6850  -8.2835  -5.3645
    -4.8130  -4.2513  -3.8273  -3.7333  -3.5613  -3.5182  -3.3003  -3.2243
    -3.1965  -3.1198  -3.0023  -2.8187  -2.7659  -2.6668  -2.6022  -2.5865
    -2.4189  -2.3416  -2.0491  -2.0066  -1.8182  -1.7614  -1.6563  -1.5078
    -1.4964  -1.4447  -1.4424  -1.3058  -1.2326  -1.2075  -1.1610  -1.1145
    -1.0848  -0.7173  -0.6301  -0.5803  -0.3963  -0.1947  -0.0719   0.0657
     0.1898   0.2418   0.3447   0.3797   0.4413   0.5745   0.6397   0.6430
     0.6770   0.6999   0.7995   0.8919   0.9148   0.9893   1.0579   1.0859
     1.1042   1.1133   1.1568   1.1781   1.2435   1.3404   1.3740   1.4112
     1.4975   1.5426   1.5960   1.6517   1.7317   1.7668   1.7952   2.3663
     2.5092   2.5153   2.7255   3.2523   3.4086   3.4345   3.7405   3.8141
     3.8405   4.1718   4.5113   4.6075   5.2455   5.4496   5.9227   6.4174
     7.0754   7.4635   7.5181   7.9251   7.9863   8.1774   8.4270   8.4621
     8.5987   8.6089

          k =-0.5000-0.5125 0.0000 ( 39764 PWs)   bands (ev):

   -41.7097 -38.9045 -23.6145 -23.3440 -23.2072 -22.9296 -21.8807 -21.8562
   -21.6998 -19.4862 -19.4603 -18.9860 -16.2212 -16.1963 -15.3199 -15.3027
   -15.0625 -15.0054 -14.8816 -14.8026 -14.7479 -14.7452 -14.5033 -14.4511
   -14.3884 -14.2351 -14.0896  -9.7476  -9.5380  -9.4755  -9.3491  -9.2491
    -9.2105  -9.1558  -9.0124  -8.8810  -8.7855  -8.6822  -8.2802  -5.5405
    -5.0024  -4.4195  -3.9831  -3.9107  -3.6945  -3.5652  -3.5380  -3.4575
    -3.3273  -3.1476  -3.0258  -2.8177  -2.8142  -2.6550  -2.6205  -2.5955
    -2.3968  -2.3830  -2.0971  -2.0488  -1.8345  -1.7397  -1.7353  -1.5541
    -1.5526  -1.5149  -1.4734  -1.3952  -1.3159  -1.2473  -1.1855  -1.1178
    -1.0986  -0.6742  -0.6031  -0.3958  -0.3711  -0.1414   0.0144   0.0767
     0.2745   0.2756   0.3167   0.4903   0.5982   0.6713   0.7040   0.7171
     0.7542   0.7720   0.7904   0.9736   1.0365   1.0417   1.2063   1.2222
     1.2301   1.2401   1.2481   1.2482   1.3574   1.4099   1.4641   1.6663
     1.6853   1.7510   1.7625   1.7778   1.8587   1.8895   1.9281   2.1936
     2.3510   2.6427   2.8172   3.4074   3.4595   3.4953   3.7232   3.9628
     4.0487   4.2834   4.3955   4.7386   4.9959   5.2069   5.8251   6.7256
     7.3869   7.4583   7.5875   7.6014   7.9623   7.9928   8.3918   8.4932
     8.4947   8.6352

     the Fermi energy is     2.1565 ev

!    total energy              =   -1868.38245571 Ry
     Harris-Foulkes estimate   =   -1868.38245561 Ry
     estimated scf accuracy    <       0.00000092 Ry

     The total energy is the sum of the following terms:

     one-electron contribution =  -29478.94397127 Ry
     hartree contribution      =   14885.49209024 Ry
     xc contribution           =    -641.71374871 Ry
     ewald contribution        =   13366.79201436 Ry
     smearing contrib. (-TS)   =      -0.00884033 Ry

     convergence has been achieved in  38 iterations

     negative rho (up, down):  9.002E-02 0.000E+00

     Forces acting on atoms (cartesian axes, Ry/au):

     atom    1 type  3   force =     0.00000000    0.00000000   -0.00007574
     atom    2 type  2   force =     0.00000000    0.00000000    0.00017040
     atom    3 type  3   force =     0.00000000    0.00000000   -0.00000795
     atom    4 type  1   force =     0.00000000    0.00000000   -0.00015618
     atom    5 type  2   force =     0.00000000    0.00000000   -0.00032137
     atom    6 type  3   force =     0.00000000    0.00000000    0.00032233
     atom    7 type  3   force =     0.00000000    0.00000000    0.00012276
     atom    8 type  4   force =     0.00000000    0.00000000   -0.00066844
     atom    9 type  3   force =     0.00000000    0.00000000    0.00087244
     atom   10 type  3   force =     0.00000000    0.00000000    0.00111208
     atom   11 type  2   force =     0.00000000    0.00000000   -0.00039548
     atom   12 type  1   force =     0.00000000    0.00000000   -0.00165827
     atom   13 type  3   force =     0.00000000    0.00000000    0.00238068
     atom   14 type  3   force =     0.00000000    0.00000000    0.00565851
     atom   15 type  2   force =     0.00000000    0.00000000   -0.00961959
     atom   16 type  3   force =     0.00000000    0.00000000    0.01888181
     atom   17 type  1   force =     0.00000000    0.00000000   -0.02232921
     atom   18 type  2   force =     0.00000000    0.00000000    0.00172276
     atom   19 type  3   force =     0.00000000    0.00000000    0.06063169
     atom   20 type  3   force =     0.00000000    0.00000000    0.06179307
     atom   21 type  4   force =     0.00000000    0.00000000   -0.11693638
     atom   22 type  3   force =     0.00000000    0.00000000    0.02549355
     atom   23 type  3   force =     0.00000000    0.00000000    0.03144344
     atom   24 type  2   force =     0.00000000    0.00000000   -0.02242754
     atom   25 type  1   force =     0.00000000    0.00000000   -0.03302293
     atom   26 type  3   force =     0.00000000    0.00000000   -0.00509271
     atom   27 type  2   force =     0.00000000    0.00000000   -0.00336506
     atom   28 type  3   force =     0.00000000    0.00000000    0.00547134

     Total force =     0.159568     Total SCF correction =     0.004859


     Computing stress (Cartesian axis) and pressure


     negative rho (up, down):  9.002E-02 0.000E+00
          total   stress  (Ry/bohr**3)                   (kbar)     P=      -10.68
  -0.00006861   0.00000000   0.00000000          -10.09        0.00        0.00
   0.00000000  -0.00005709   0.00000000            0.00       -8.40        0.00
   0.00000000   0.00000000  -0.00009213            0.00        0.00      -13.55

 
     init_run     :     11.54s CPU     11.88s WALL (       1 calls)
     electrons    :    775.82s CPU    800.86s WALL (       1 calls)
     forces       :      5.02s CPU      5.20s WALL (       1 calls)
     stress       :     54.71s CPU     55.29s WALL (       1 calls)

     Called by init_run:
     wfcinit      :      8.22s CPU      8.37s WALL (       1 calls)
     potinit      :      0.74s CPU      0.75s WALL (       1 calls)
     hinit0       :      1.24s CPU      1.25s WALL (       1 calls)

     Called by electrons:
     c_bands      :    579.67s CPU    592.46s WALL (      38 calls)
     sum_band     :    132.45s CPU    139.07s WALL (      38 calls)
     v_of_rho     :      5.29s CPU      5.34s WALL (      39 calls)
     newd         :     29.02s CPU     34.51s WALL (      39 calls)
     mix_rho      :     29.51s CPU     29.70s WALL (      38 calls)

     Called by c_bands:
     init_us_2    :      4.13s CPU      4.16s WALL (    1975 calls)
     cegterg      :    543.62s CPU    555.79s WALL (     950 calls)

     Called by sum_band:
     sum_band:bec :      0.25s CPU      0.25s WALL (     950 calls)
     addusdens    :     27.91s CPU     33.60s WALL (      38 calls)

     Called by *egterg:
     h_psi        :    265.28s CPU    273.56s WALL (    3557 calls)
     s_psi        :     24.37s CPU     24.56s WALL (    3557 calls)
     g_psi        :      0.75s CPU      0.76s WALL (    2582 calls)
     cdiaghg      :    103.32s CPU    103.79s WALL (    3532 calls)

     Called by h_psi:
     h_psi:calbec :     35.57s CPU     36.80s WALL (    3557 calls)
     vloc_psi     :    203.51s CPU    206.57s WALL (    3557 calls)
     add_vuspsi   :     25.16s CPU     27.30s WALL (    3557 calls)

     General routines
     calbec       :     90.04s CPU     91.45s WALL (    4632 calls)
     fft          :      5.76s CPU      5.78s WALL (     530 calls)
     ffts         :     12.93s CPU     13.02s WALL (   16386 calls)
     fftw         :    237.72s CPU    241.17s WALL (  674938 calls)
     interpolate  :      0.41s CPU      0.41s WALL (      39 calls)
 
     Parallel routines
     fft_scatt_xy :     27.52s CPU     27.89s WALL (  691854 calls)
     fft_scatt_yz :    164.36s CPU    166.62s WALL (  691854 calls)
 
     PWSCF        :  14m 8.05s CPU  14m34.24s WALL

 
   This run was terminated on:  18:44: 7   5May2021            

=------------------------------------------------------------------------------=
   JOB DONE.
=------------------------------------------------------------------------------=
[1620254647.359707] [holy7c06306:46717:0]          mpool.c:43   UCX  WARN  object 0x29f0ec0 was not returned to mpool ucp_requests
[1620254647.361621] [holy7c06302:26899:0]          mpool.c:43   UCX  WARN  object 0x468fe80 was not returned to mpool ucp_requests
[1620254647.361637] [holy7c06302:26899:0]          mpool.c:43   UCX  WARN  object 0x4690740 was not returned to mpool ucp_requests
[1620254647.364453] [holy7c06212:20993:0]          mpool.c:43   UCX  WARN  object 0x3500b00 was not returned to mpool ucp_requests
[1620254647.364335] [holy7c06311:200071:0]          mpool.c:43   UCX  WARN  object 0x39f92c0 was not returned to mpool ucp_requests
[1620254647.362912] [holy7c06310:180182:0]          mpool.c:43   UCX  WARN  object 0x3c0c100 was not returned to mpool ucp_requests
[1620254647.372992] [holy7c06212:20992:0]          mpool.c:43   UCX  WARN  object 0x3ace300 was not returned to mpool ucp_requests
[1620254647.369913] [holy7c06310:180181:0]          mpool.c:43   UCX  WARN  object 0x3014ac0 was not returned to mpool ucp_requests
[1620254647.369928] [holy7c06310:180181:0]          mpool.c:43   UCX  WARN  object 0x3014c80 was not returned to mpool ucp_requests
