
     Program PWSCF v.6.5 starts on  5May2021 at 17:10:44 

     This program is part of the open-source Quantum ESPRESSO suite
     for quantum simulation of materials; please cite
         "P. Giannozzi et al., J. Phys.:Condens. Matter 21 395502 (2009);
         "P. Giannozzi et al., J. Phys.:Condens. Matter 29 465901 (2017);
          URL http://www.quantum-espresso.org", 
     in publications or presentations arising from this work. More details at
     http://www.quantum-espresso.org/quote

     Parallel version (MPI), running on    20 processors

     MPI processes distributed on    13 nodes
     R & G space division:  proc/nbgrp/npool/nimage =      20
     Reading input from YBCO_BaO_cleave_3.0_sep_scf.pwi
Warning: card &IONS ignored
Warning: card     ION_DYNAMICS = 'BFGS' ignored
Warning: card / ignored
Warning: card &CELL ignored
Warning: card     CELL_DYNAMICS = 'BFGS' ignored
Warning: card / ignored

     Current dimensions of program PWSCF are:
     Max number of different atomic species (ntypx) = 10
     Max number of k-points (npk) =  40000
     Max angular momentum in pseudopotentials (lmaxx) =  3

     Subspace diagonalization in iterative solution of the eigenvalue problem:
     one sub-group per band group will be used
     scalapack distributed-memory algorithm (size of sub-group:  4*  4 procs)

     Message from routine setup:
     using ibrav=0 with symmetry is DISCOURAGED, use correct ibrav instead
 
     Parallelization info
     --------------------
     sticks:   dense  smooth     PW     G-vecs:    dense   smooth      PW
     Min         150      50     14                75932    14604    2278
     Max         151      51     15                75973    14629    2325
     Sum        3015    1011    293              1519021   292277   46055
 


     bravais-lattice index     =            0
     lattice parameter (alat)  =       7.3477  a.u.
     unit-cell volume          =    4655.3630 (a.u.)^3
     number of atoms/cell      =           28
     number of atomic types    =            4
     number of electrons       =       229.00
     number of Kohn-Sham states=          138
     kinetic-energy cutoff     =      60.0000  Ry
     charge density cutoff     =     720.0000  Ry
     convergence threshold     =      1.0E-06
     mixing beta               =       0.2000
     number of iterations used =           10  local-TF  mixing
     Exchange-correlation= SLA PW PBE PBE
                           (   1   4   3   4   0   0   0)

     celldm(1)=   7.347715  celldm(2)=   0.000000  celldm(3)=   0.000000
     celldm(4)=   0.000000  celldm(5)=   0.000000  celldm(6)=   0.000000

     crystal axes: (cart. coord. in units of alat)
               a(1) = (   1.000000   0.000000   0.000000 )  
               a(2) = (   0.000000   0.975577   0.000000 )  
               a(3) = (   0.000000   0.000000  12.029150 )  

     reciprocal axes: (cart. coord. in units 2 pi/alat)
               b(1) = (  1.000000  0.000000  0.000000 )  
               b(2) = (  0.000000  1.025034  0.000000 )  
               b(3) = (  0.000000  0.000000  0.083131 )  


     PseudoPot. # 1 for Ba read from file:
     /n/holyscratch01/hoffman_lab/ruizhe/YBCO_Project/pseudo/Ba.pbe-nsp-van.UPF
     MD5 check sum: 2b9c31dd849566dd297d80989662b7a0
     Pseudo is Ultrasoft + core correction, Zval = 10.0
     Generated by new atomic code, or converted to UPF format
     Using radial grid of  907 points,  6 beta functions with: 
                l(1) =   0
                l(2) =   0
                l(3) =   1
                l(4) =   1
                l(5) =   2
                l(6) =   2
     Q(r) pseudized with  6 coefficients,  rinner =    1.200   1.200   1.200
                                                       1.200   1.200

     PseudoPot. # 2 for Cu read from file:
     /n/holyscratch01/hoffman_lab/ruizhe/YBCO_Project/pseudo/Cu.pbe-n-van_ak.UPF
     MD5 check sum: 34e3282627ffb533726feb647e090d62
     Pseudo is Ultrasoft + core correction, Zval = 11.0
     Generated by new atomic code, or converted to UPF format
     Using radial grid of  867 points,  6 beta functions with: 
                l(1) =   0
                l(2) =   0
                l(3) =   1
                l(4) =   1
                l(5) =   2
                l(6) =   2
     Q(r) pseudized with  8 coefficients,  rinner =    1.400   1.400   1.400
                                                       1.400   1.400

     PseudoPot. # 3 for O  read from file:
     /n/holyscratch01/hoffman_lab/ruizhe/YBCO_Project/pseudo/O.pbe-van_ak.UPF
     MD5 check sum: 783ce7fe4c79b6a4916957118fed0856
     Pseudo is Ultrasoft, Zval =  6.0
     Generated by new atomic code, or converted to UPF format
     Using radial grid of  737 points,  4 beta functions with: 
                l(1) =   0
                l(2) =   0
                l(3) =   1
                l(4) =   1
     Q(r) pseudized with  8 coefficients,  rinner =    0.800   0.800   0.800


     PseudoPot. # 4 for Y  read from file:
     /n/holyscratch01/hoffman_lab/ruizhe/YBCO_Project/pseudo/Y.pbe-nsp-van.UPF
     MD5 check sum: 4412fed3ab108fed87a1b7d6a69a4a38
     Pseudo is Ultrasoft + core correction, Zval = 11.0
     Generated by new atomic code, or converted to UPF format
     Using radial grid of  885 points,  6 beta functions with: 
                l(1) =   0
                l(2) =   0
                l(3) =   1
                l(4) =   1
                l(5) =   2
                l(6) =   2
     Q(r) pseudized with  6 coefficients,  rinner =    1.200   1.200   1.200
                                                       1.200   1.200

     atomic species   valence    mass     pseudopotential
        Ba            10.00   137.32700     Ba( 1.00)
        Cu            11.00    63.54600     Cu( 1.00)
        O              6.00    15.99900     O ( 1.00)
        Y             11.00    88.90584     Y ( 1.00)

      4 Sym. Ops. (no inversion) found



   Cartesian axes

     site n.     atom                  positions (alat units)
         1           O   tau(   1) = (   0.0000000   0.4877884  -0.0257983  )
         2           Cu  tau(   2) = (   0.0000000   0.0000000   0.0215779  )
         3           O   tau(   3) = (   0.0000000   0.0000000   0.5073114  )
         4           Ba  tau(   4) = (   0.4999996   0.4877884   0.5319677  )
         5           Cu  tau(   5) = (   0.0000000   0.0000000   1.0495845  )
         6           O   tau(   6) = (   0.4999996   0.0000000   1.1181579  )
         7           O   tau(   7) = (   0.0000000   0.4877884   1.1273137  )
         8           Y   tau(   8) = (   0.4999996   0.4877884   1.4938777  )
         9           O   tau(   9) = (   0.0000000   0.4877884   1.8497402  )
        10           O   tau(  10) = (   0.4999996   0.0000000   1.8692709  )
        11           Cu  tau(  11) = (   0.0000000   0.0000000   1.9417560  )
        12           Ba  tau(  12) = (   0.4999996   0.4877884   2.4526063  )
        13           O   tau(  13) = (   0.0000000   0.0000000   2.5103470  )
        14           O   tau(  14) = (   0.0000000   0.4877884   2.9968469  )
        15           Cu  tau(  15) = (   0.0000000   0.0000000   2.9968521  )
        16           O   tau(  16) = (   0.0000000   0.0000000   3.4833288  )
        17           Ba  tau(  17) = (   0.4999996   0.4877884   3.5410618  )
        18           Cu  tau(  18) = (   0.0000000   0.0000000   4.8234918  )
        19           O   tau(  19) = (   0.4999996   0.0000000   4.8959642  )
        20           O   tau(  20) = (   0.0000000   0.4877884   4.9154768  )
        21           Y   tau(  21) = (   0.4999996   0.4877884   5.2713419  )
        22           O   tau(  22) = (   0.0000000   0.4877884   5.6379059  )
        23           O   tau(  23) = (   0.4999996   0.0000000   5.6470746  )
        24           Cu  tau(  24) = (   0.0000000   0.0000000   5.7156531  )
        25           Ba  tau(  25) = (   0.4999996   0.4877884   6.2332544  )
        26           O   tau(  26) = (   0.0000000   0.0000000   6.2579108  )
        27           Cu  tau(  27) = (   0.0000000   0.0000000   6.7436160  )
        28           O   tau(  28) = (   0.0000000   0.4877884   6.7909973  )

     number of k points=    25  Gaussian smearing, width (Ry)=  0.0100
                       cart. coord. in units 2pi/alat
        k(    1) = (   0.0000000   0.0000000   0.0000000), wk =   0.0312500
        k(    2) = (   0.0000000   0.1281293   0.0000000), wk =   0.0625000
        k(    3) = (   0.0000000   0.2562585   0.0000000), wk =   0.0625000
        k(    4) = (   0.0000000   0.3843878   0.0000000), wk =   0.0625000
        k(    5) = (   0.0000000  -0.5125170   0.0000000), wk =   0.0312500
        k(    6) = (   0.1250000   0.0000000   0.0000000), wk =   0.0625000
        k(    7) = (   0.1250000   0.1281293   0.0000000), wk =   0.1250000
        k(    8) = (   0.1250000   0.2562585   0.0000000), wk =   0.1250000
        k(    9) = (   0.1250000   0.3843878   0.0000000), wk =   0.1250000
        k(   10) = (   0.1250000  -0.5125170   0.0000000), wk =   0.0625000
        k(   11) = (   0.2500000   0.0000000   0.0000000), wk =   0.0625000
        k(   12) = (   0.2500000   0.1281293   0.0000000), wk =   0.1250000
        k(   13) = (   0.2500000   0.2562585   0.0000000), wk =   0.1250000
        k(   14) = (   0.2500000   0.3843878   0.0000000), wk =   0.1250000
        k(   15) = (   0.2500000  -0.5125170   0.0000000), wk =   0.0625000
        k(   16) = (   0.3750000   0.0000000   0.0000000), wk =   0.0625000
        k(   17) = (   0.3750000   0.1281293   0.0000000), wk =   0.1250000
        k(   18) = (   0.3750000   0.2562585   0.0000000), wk =   0.1250000
        k(   19) = (   0.3750000   0.3843878   0.0000000), wk =   0.1250000
        k(   20) = (   0.3750000  -0.5125170   0.0000000), wk =   0.0625000
        k(   21) = (  -0.5000000   0.0000000   0.0000000), wk =   0.0312500
        k(   22) = (  -0.5000000   0.1281293   0.0000000), wk =   0.0625000
        k(   23) = (  -0.5000000   0.2562585   0.0000000), wk =   0.0625000
        k(   24) = (  -0.5000000   0.3843878   0.0000000), wk =   0.0625000
        k(   25) = (  -0.5000000  -0.5125170   0.0000000), wk =   0.0312500

     Dense  grid:  1519021 G-vectors     FFT dimensions: (  64,  64, 768)

     Smooth grid:   292277 G-vectors     FFT dimensions: (  40,  36, 450)

     Estimated max dynamical RAM per process >     484.76 MB

     Estimated total dynamical RAM >       9.47 GB

     Initial potential from superposition of free atoms

     starting charge  228.84827, renormalised to  229.00000

     negative rho (up, down):  8.964E-02 0.000E+00
     Starting wfcs are  201 randomized atomic wfcs

     total cpu time spent up to now is       10.8 secs

     Self-consistent Calculation

     iteration #  1     ecut=    60.00 Ry     beta= 0.20
     Davidson diagonalization with overlap
     ethr =  1.00E-02,  avg # of iterations =  2.0

     negative rho (up, down):  8.753E-02 0.000E+00

     total cpu time spent up to now is       27.2 secs

     total energy              =   -1869.58107789 Ry
     Harris-Foulkes estimate   =   -1871.18840387 Ry
     estimated scf accuracy    <      14.84130375 Ry

     iteration #  2     ecut=    60.00 Ry     beta= 0.20
     Davidson diagonalization with overlap
     ethr =  6.48E-03,  avg # of iterations =  1.0

     negative rho (up, down):  8.638E-02 0.000E+00

     total cpu time spent up to now is       42.0 secs

     total energy              =   -1869.08608153 Ry
     Harris-Foulkes estimate   =   -1869.94435390 Ry
     estimated scf accuracy    <       5.80595101 Ry

     iteration #  3     ecut=    60.00 Ry     beta= 0.20
     Davidson diagonalization with overlap
     ethr =  2.54E-03,  avg # of iterations =  1.0

     negative rho (up, down):  8.599E-02 0.000E+00

     total cpu time spent up to now is       56.7 secs

     total energy              =   -1868.74856148 Ry
     Harris-Foulkes estimate   =   -1869.29517867 Ry
     estimated scf accuracy    <       3.95406198 Ry

     iteration #  4     ecut=    60.00 Ry     beta= 0.20
     Davidson diagonalization with overlap
     ethr =  1.73E-03,  avg # of iterations =  1.5

     negative rho (up, down):  8.628E-02 0.000E+00

     total cpu time spent up to now is       71.8 secs

     total energy              =   -1868.90635973 Ry
     Harris-Foulkes estimate   =   -1868.98078220 Ry
     estimated scf accuracy    <       2.46667157 Ry

     iteration #  5     ecut=    60.00 Ry     beta= 0.20
     Davidson diagonalization with overlap
     ethr =  1.08E-03,  avg # of iterations =  1.0

     negative rho (up, down):  8.684E-02 0.000E+00

     total cpu time spent up to now is       86.4 secs

     total energy              =   -1868.86111829 Ry
     Harris-Foulkes estimate   =   -1868.95201244 Ry
     estimated scf accuracy    <       1.38975406 Ry

     iteration #  6     ecut=    60.00 Ry     beta= 0.20
     Davidson diagonalization with overlap
     ethr =  6.07E-04,  avg # of iterations =  1.1

     negative rho (up, down):  8.817E-02 0.000E+00

     total cpu time spent up to now is      101.1 secs

     total energy              =   -1868.80805750 Ry
     Harris-Foulkes estimate   =   -1868.88058622 Ry
     estimated scf accuracy    <       0.85716724 Ry

     iteration #  7     ecut=    60.00 Ry     beta= 0.20
     Davidson diagonalization with overlap
     ethr =  3.74E-04,  avg # of iterations =  4.0

     negative rho (up, down):  8.980E-02 0.000E+00

     total cpu time spent up to now is      118.8 secs

     total energy              =   -1868.78334045 Ry
     Harris-Foulkes estimate   =   -1868.82577994 Ry
     estimated scf accuracy    <       0.42783523 Ry

     iteration #  8     ecut=    60.00 Ry     beta= 0.20
     Davidson diagonalization with overlap
     ethr =  1.87E-04,  avg # of iterations =  5.8

     negative rho (up, down):  9.055E-02 0.000E+00

     total cpu time spent up to now is      139.8 secs

     total energy              =   -1868.78767315 Ry
     Harris-Foulkes estimate   =   -1868.81172695 Ry
     estimated scf accuracy    <       0.29253819 Ry

     iteration #  9     ecut=    60.00 Ry     beta= 0.20
     Davidson diagonalization with overlap
     ethr =  1.28E-04,  avg # of iterations =  2.0

     negative rho (up, down):  9.111E-02 0.000E+00

     total cpu time spent up to now is      155.2 secs

     total energy              =   -1868.79471729 Ry
     Harris-Foulkes estimate   =   -1868.80049502 Ry
     estimated scf accuracy    <       0.48396867 Ry

     iteration # 10     ecut=    60.00 Ry     beta= 0.20
     Davidson diagonalization with overlap
     ethr =  1.28E-04,  avg # of iterations =  1.0

     negative rho (up, down):  9.117E-02 0.000E+00

     total cpu time spent up to now is      169.5 secs

     total energy              =   -1868.78224085 Ry
     Harris-Foulkes estimate   =   -1868.80062822 Ry
     estimated scf accuracy    <       0.33361228 Ry

     iteration # 11     ecut=    60.00 Ry     beta= 0.20
     Davidson diagonalization with overlap
     ethr =  1.28E-04,  avg # of iterations =  3.5

     negative rho (up, down):  9.085E-02 0.000E+00

     total cpu time spent up to now is      186.5 secs

     total energy              =   -1868.78747724 Ry
     Harris-Foulkes estimate   =   -1868.78967192 Ry
     estimated scf accuracy    <       0.04588950 Ry

     iteration # 12     ecut=    60.00 Ry     beta= 0.20
     Davidson diagonalization with overlap
     ethr =  2.00E-05,  avg # of iterations =  9.5

     negative rho (up, down):  9.047E-02 0.000E+00

     total cpu time spent up to now is      212.5 secs

     total energy              =   -1868.78516184 Ry
     Harris-Foulkes estimate   =   -1868.78926819 Ry
     estimated scf accuracy    <       0.04129312 Ry

     iteration # 13     ecut=    60.00 Ry     beta= 0.20
     Davidson diagonalization with overlap
     ethr =  1.80E-05,  avg # of iterations =  1.4

     negative rho (up, down):  8.972E-02 0.000E+00

     total cpu time spent up to now is      227.1 secs

     total energy              =   -1868.78228754 Ry
     Harris-Foulkes estimate   =   -1868.78595198 Ry
     estimated scf accuracy    <       0.02338140 Ry

     iteration # 14     ecut=    60.00 Ry     beta= 0.20
     Davidson diagonalization with overlap
     ethr =  1.02E-05,  avg # of iterations =  6.1

     negative rho (up, down):  8.969E-02 0.000E+00

     total cpu time spent up to now is      249.1 secs

     total energy              =   -1868.78292577 Ry
     Harris-Foulkes estimate   =   -1868.78516892 Ry
     estimated scf accuracy    <       0.01594896 Ry

     iteration # 15     ecut=    60.00 Ry     beta= 0.20
     Davidson diagonalization with overlap
     ethr =  6.96E-06,  avg # of iterations =  2.2

     negative rho (up, down):  8.940E-02 0.000E+00

     total cpu time spent up to now is      264.9 secs

     total energy              =   -1868.78356156 Ry
     Harris-Foulkes estimate   =   -1868.78419609 Ry
     estimated scf accuracy    <       0.01124719 Ry

     iteration # 16     ecut=    60.00 Ry     beta= 0.20
     Davidson diagonalization with overlap
     ethr =  4.91E-06,  avg # of iterations =  1.1

     negative rho (up, down):  8.984E-02 0.000E+00

     total cpu time spent up to now is      279.4 secs

     total energy              =   -1868.78225477 Ry
     Harris-Foulkes estimate   =   -1868.78372938 Ry
     estimated scf accuracy    <       0.01247845 Ry

     iteration # 17     ecut=    60.00 Ry     beta= 0.20
     Davidson diagonalization with overlap
     ethr =  4.91E-06,  avg # of iterations =  4.9

     negative rho (up, down):  9.309E-02 0.000E+00

     total cpu time spent up to now is      298.1 secs

     total energy              =   -1868.78199686 Ry
     Harris-Foulkes estimate   =   -1868.78262827 Ry
     estimated scf accuracy    <       0.01591325 Ry

     iteration # 18     ecut=    60.00 Ry     beta= 0.20
     Davidson diagonalization with overlap
     ethr =  4.91E-06,  avg # of iterations =  3.8

     negative rho (up, down):  9.271E-02 0.000E+00

     total cpu time spent up to now is      315.6 secs

     total energy              =   -1868.78134728 Ry
     Harris-Foulkes estimate   =   -1868.78206750 Ry
     estimated scf accuracy    <       0.01370530 Ry

     iteration # 19     ecut=    60.00 Ry     beta= 0.20
     Davidson diagonalization with overlap
     ethr =  4.91E-06,  avg # of iterations =  2.4

     negative rho (up, down):  8.974E-02 0.000E+00

     total cpu time spent up to now is      331.5 secs

     total energy              =   -1868.78124967 Ry
     Harris-Foulkes estimate   =   -1868.78141707 Ry
     estimated scf accuracy    <       0.01272075 Ry

     iteration # 20     ecut=    60.00 Ry     beta= 0.20
     Davidson diagonalization with overlap
     ethr =  4.91E-06,  avg # of iterations =  1.4

     negative rho (up, down):  8.993E-02 0.000E+00

     total cpu time spent up to now is      346.2 secs

     total energy              =   -1868.78118081 Ry
     Harris-Foulkes estimate   =   -1868.78130774 Ry
     estimated scf accuracy    <       0.00921326 Ry

     iteration # 21     ecut=    60.00 Ry     beta= 0.20
     Davidson diagonalization with overlap
     ethr =  4.02E-06,  avg # of iterations =  3.9

     negative rho (up, down):  9.034E-02 0.000E+00

     total cpu time spent up to now is      364.0 secs

     total energy              =   -1868.78007530 Ry
     Harris-Foulkes estimate   =   -1868.78120176 Ry
     estimated scf accuracy    <       0.00875205 Ry

     iteration # 22     ecut=    60.00 Ry     beta= 0.20
     Davidson diagonalization with overlap
     ethr =  3.82E-06,  avg # of iterations =  5.5

     negative rho (up, down):  9.419E-02 0.000E+00

     total cpu time spent up to now is      383.7 secs

     total energy              =   -1868.77955614 Ry
     Harris-Foulkes estimate   =   -1868.78020632 Ry
     estimated scf accuracy    <       0.00368783 Ry

     iteration # 23     ecut=    60.00 Ry     beta= 0.20
     Davidson diagonalization with overlap
     ethr =  1.61E-06,  avg # of iterations =  7.7

     negative rho (up, down):  9.205E-02 0.000E+00

     total cpu time spent up to now is      406.4 secs

     total energy              =   -1868.77940190 Ry
     Harris-Foulkes estimate   =   -1868.77962076 Ry
     estimated scf accuracy    <       0.00279326 Ry

     iteration # 24     ecut=    60.00 Ry     beta= 0.20
     Davidson diagonalization with overlap
     ethr =  1.22E-06,  avg # of iterations =  5.2

     negative rho (up, down):  9.169E-02 0.000E+00

     total cpu time spent up to now is      425.8 secs

     total energy              =   -1868.77938784 Ry
     Harris-Foulkes estimate   =   -1868.77948018 Ry
     estimated scf accuracy    <       0.00248957 Ry

     iteration # 25     ecut=    60.00 Ry     beta= 0.20
     Davidson diagonalization with overlap
     ethr =  1.09E-06,  avg # of iterations =  3.0

     negative rho (up, down):  9.067E-02 0.000E+00

     total cpu time spent up to now is      442.4 secs

     total energy              =   -1868.77928273 Ry
     Harris-Foulkes estimate   =   -1868.77940482 Ry
     estimated scf accuracy    <       0.00145729 Ry

     iteration # 26     ecut=    60.00 Ry     beta= 0.20
     Davidson diagonalization with overlap
     ethr =  6.36E-07,  avg # of iterations =  5.5

     negative rho (up, down):  9.092E-02 0.000E+00

     total cpu time spent up to now is      462.7 secs

     total energy              =   -1868.77938539 Ry
     Harris-Foulkes estimate   =   -1868.77938723 Ry
     estimated scf accuracy    <       0.00092832 Ry

     iteration # 27     ecut=    60.00 Ry     beta= 0.20
     Davidson diagonalization with overlap
     ethr =  4.05E-07,  avg # of iterations =  1.0

     negative rho (up, down):  9.096E-02 0.000E+00

     total cpu time spent up to now is      477.3 secs

     total energy              =   -1868.77937586 Ry
     Harris-Foulkes estimate   =   -1868.77939438 Ry
     estimated scf accuracy    <       0.00080962 Ry

     iteration # 28     ecut=    60.00 Ry     beta= 0.20
     Davidson diagonalization with overlap
     ethr =  3.54E-07,  avg # of iterations =  3.2

     negative rho (up, down):  9.040E-02 0.000E+00

     total cpu time spent up to now is      494.4 secs

     total energy              =   -1868.77941091 Ry
     Harris-Foulkes estimate   =   -1868.77943075 Ry
     estimated scf accuracy    <       0.00035183 Ry

     iteration # 29     ecut=    60.00 Ry     beta= 0.20
     Davidson diagonalization with overlap
     ethr =  1.54E-07,  avg # of iterations =  3.2

     negative rho (up, down):  9.108E-02 0.000E+00

     total cpu time spent up to now is      511.3 secs

     total energy              =   -1868.77938121 Ry
     Harris-Foulkes estimate   =   -1868.77941670 Ry
     estimated scf accuracy    <       0.00025181 Ry

     iteration # 30     ecut=    60.00 Ry     beta= 0.20
     Davidson diagonalization with overlap
     ethr =  1.10E-07,  avg # of iterations =  3.0

     negative rho (up, down):  9.099E-02 0.000E+00

     total cpu time spent up to now is      528.3 secs

     total energy              =   -1868.77938894 Ry
     Harris-Foulkes estimate   =   -1868.77938747 Ry
     estimated scf accuracy    <       0.00015067 Ry

     iteration # 31     ecut=    60.00 Ry     beta= 0.20
     Davidson diagonalization with overlap
     ethr =  6.58E-08,  avg # of iterations =  2.8

     negative rho (up, down):  9.064E-02 0.000E+00

     total cpu time spent up to now is      544.9 secs

     total energy              =   -1868.77937589 Ry
     Harris-Foulkes estimate   =   -1868.77939254 Ry
     estimated scf accuracy    <       0.00007119 Ry

     iteration # 32     ecut=    60.00 Ry     beta= 0.20
     Davidson diagonalization with overlap
     ethr =  3.11E-08,  avg # of iterations =  2.5

     negative rho (up, down):  9.083E-02 0.000E+00

     total cpu time spent up to now is      561.3 secs

     total energy              =   -1868.77938108 Ry
     Harris-Foulkes estimate   =   -1868.77937993 Ry
     estimated scf accuracy    <       0.00004324 Ry

     iteration # 33     ecut=    60.00 Ry     beta= 0.20
     Davidson diagonalization with overlap
     ethr =  1.89E-08,  avg # of iterations =  1.7

     negative rho (up, down):  9.086E-02 0.000E+00

     total cpu time spent up to now is      576.5 secs

     total energy              =   -1868.77938216 Ry
     Harris-Foulkes estimate   =   -1868.77938221 Ry
     estimated scf accuracy    <       0.00001551 Ry

     iteration # 34     ecut=    60.00 Ry     beta= 0.20
     Davidson diagonalization with overlap
     ethr =  6.77E-09,  avg # of iterations =  1.3

     negative rho (up, down):  9.085E-02 0.000E+00

     total cpu time spent up to now is      591.5 secs

     total energy              =   -1868.77938261 Ry
     Harris-Foulkes estimate   =   -1868.77938292 Ry
     estimated scf accuracy    <       0.00000564 Ry

     iteration # 35     ecut=    60.00 Ry     beta= 0.20
     Davidson diagonalization with overlap
     ethr =  2.46E-09,  avg # of iterations =  1.2

     negative rho (up, down):  9.051E-02 0.000E+00

     total cpu time spent up to now is      606.4 secs

     total energy              =   -1868.77938222 Ry
     Harris-Foulkes estimate   =   -1868.77938277 Ry
     estimated scf accuracy    <       0.00000378 Ry

     iteration # 36     ecut=    60.00 Ry     beta= 0.20
     Davidson diagonalization with overlap
     ethr =  1.65E-09,  avg # of iterations =  1.8

     negative rho (up, down):  9.046E-02 0.000E+00

     total cpu time spent up to now is      622.0 secs

     total energy              =   -1868.77938239 Ry
     Harris-Foulkes estimate   =   -1868.77938242 Ry
     estimated scf accuracy    <       0.00000180 Ry

     iteration # 37     ecut=    60.00 Ry     beta= 0.20
     Davidson diagonalization with overlap
     ethr =  7.85E-10,  avg # of iterations =  1.9

     negative rho (up, down):  9.049E-02 0.000E+00

     total cpu time spent up to now is      637.6 secs

     total energy              =   -1868.77938231 Ry
     Harris-Foulkes estimate   =   -1868.77938248 Ry
     estimated scf accuracy    <       0.00000112 Ry

     iteration # 38     ecut=    60.00 Ry     beta= 0.20
     Davidson diagonalization with overlap
     ethr =  4.89E-10,  avg # of iterations =  2.0

     negative rho (up, down):  9.064E-02 0.000E+00

     total cpu time spent up to now is      652.8 secs

     End of self-consistent calculation

          k = 0.0000 0.0000 0.0000 ( 36431 PWs)   bands (ev):

   -38.2718 -37.9568 -24.0023 -22.9260 -22.8996 -22.8155 -18.8067 -18.4617
   -18.2762 -18.2667 -17.9793 -17.9627 -15.6021 -15.3403 -14.8517 -14.6425
   -14.4256 -14.4107 -14.3874 -14.2558 -14.2214 -14.1260 -13.9088 -13.9052
   -13.7313 -13.6943 -13.6284  -9.2999  -8.8370  -8.8167  -8.1491  -8.1153
    -8.0913  -7.9184  -7.8940  -7.8917  -7.8663  -7.7690  -7.7469  -2.2307
    -2.1967  -2.0614  -2.0321  -2.0194  -2.0118  -2.0099  -1.9415  -1.9371
    -1.8659  -1.8656  -1.6534  -1.5238  -1.0635  -1.0324  -0.7636  -0.6906
    -0.6164  -0.6084  -0.5796  -0.5418  -0.2555  -0.2194  -0.2175  -0.1829
    -0.1804  -0.0866  -0.0680  -0.0173  -0.0164  -0.0029   0.0801   0.1344
     0.1356   0.1404   0.2170   0.2311   0.2336   0.2468   0.2658   0.2881
     0.3314   0.3840   0.3868   0.3952   0.4158   0.5085   0.5120   0.6312
     0.6784   0.8099   0.8482   0.9376   1.0781   1.0810   1.1243   1.2019
     1.2057   1.2420   1.2421   1.2648   1.3330   1.3536   1.4071   1.4206
     1.6554   1.7421   1.7504   1.8133   1.8354   1.8727   1.8773   2.0339
     2.0550   2.0880   2.1459   2.2105   2.2434   2.5155   2.5198   4.4831
     5.1176   5.1474   5.3651   5.6910   5.9531   6.3543   6.5359   6.5760
     7.0048   7.3934   7.7127   7.7195   8.0116   8.0270   8.2059   8.2960
     8.3888   8.4804

          k = 0.0000 0.1281 0.0000 ( 36471 PWs)   bands (ev):

   -38.2695 -37.9545 -23.9843 -22.9045 -22.8781 -22.7948 -18.7708 -18.4256
   -18.3710 -18.2730 -18.0673 -17.9761 -15.4933 -15.2400 -14.8049 -14.6508
   -14.4415 -14.4200 -14.3568 -14.2549 -14.1956 -14.1721 -13.9140 -13.9114
   -13.7967 -13.7224 -13.6969  -9.2860  -8.8494  -8.7838  -8.1313  -8.0989
    -8.0804  -7.9112  -7.8859  -7.8771  -7.8527  -7.7669  -7.7303  -2.3334
    -2.3038  -2.2661  -2.1813  -2.0112  -1.9930  -1.9906  -1.9520  -1.9479
    -1.8704  -1.8501  -1.6627  -1.5903  -1.5087  -1.1337  -1.1280  -1.0063
    -0.9774  -0.6990  -0.5950  -0.5830  -0.5358  -0.4845  -0.4128  -0.3300
    -0.2711  -0.2678  -0.2516  -0.2226  -0.1864  -0.1619  -0.0467  -0.0283
     0.1002   0.1378   0.1446   0.2747   0.2917   0.3764   0.3865   0.3915
     0.3951   0.3955   0.4509   0.4751   0.5394   0.6467   0.6934   0.6984
     0.7182   0.7693   0.8906   0.9105   0.9624   1.0121   1.0154   1.1768
     1.2268   1.3180   1.3641   1.3764   1.4199   1.4512   1.4764   1.5251
     1.5794   1.6386   1.7333   1.7711   1.8116   1.8609   1.8663   1.9976
     2.0063   2.0620   2.3117   2.4055   2.7426   2.8373   2.8532   4.6947
     5.4937   5.5102   5.6379   5.9676   6.1994   6.5570   6.8506   6.8885
     7.2518   7.6190   7.8864   7.9665   7.9682   8.1700   8.2340   8.2674
     8.4001   8.6301

          k = 0.0000 0.2563 0.0000 ( 36496 PWs)   bands (ev):

   -38.2639 -37.9489 -23.9400 -22.8514 -22.8249 -22.7437 -18.6797 -18.5960
   -18.3390 -18.2878 -18.2653 -17.9682 -15.2453 -15.0209 -14.7266 -14.6809
   -14.5306 -14.4773 -14.3065 -14.2910 -14.2381 -14.0938 -13.9639 -13.8951
   -13.8912 -13.8551 -13.7594  -9.2466  -8.8786  -8.7022  -8.0898  -8.0589
    -8.0514  -7.9522  -7.9271  -7.8102  -7.7739  -7.7493  -7.6336  -2.7617
    -2.6824  -2.6376  -2.5132  -2.2856  -2.1601  -2.1529  -2.0398  -1.9363
    -1.8929  -1.8893  -1.8718  -1.8080  -1.7972  -1.6038  -1.4592  -1.4435
    -1.0265  -0.9471  -0.9261  -0.8148  -0.7351  -0.6832  -0.6345  -0.5848
    -0.5476  -0.4994  -0.4942  -0.4674  -0.4383  -0.3359  -0.2810  -0.2046
    -0.1992  -0.0636  -0.0140   0.0953   0.1732   0.2388   0.3076   0.3163
     0.4225   0.4305   0.4489   0.4586   0.5089   0.6180   0.8217   0.8406
     0.9138   0.9600   0.9876   1.0375   1.1067   1.1909   1.2161   1.2961
     1.3580   1.3585   1.3710   1.4578   1.4655   1.5358   1.5664   1.5801
     1.6438   1.6777   1.6827   1.8262   1.9418   1.9425   2.0889   2.1091
     2.1132   2.1332   2.4755   2.5571   3.1343   3.1430   3.6029   5.1933
     6.3349   6.3955   6.3962   6.6457   6.8314   6.9566   7.7018   7.7259
     7.7786   7.8365   7.9391   8.1010   8.1945   8.4427   8.5022   8.6323
     8.6902   8.8235

          k = 0.0000 0.3844 0.0000 ( 36396 PWs)   bands (ev):

   -38.2583 -37.9432 -23.8948 -22.7969 -22.7704 -22.6913 -18.7939 -18.5814
   -18.4936 -18.2575 -18.2326 -17.9604 -14.9958 -14.8690 -14.8416 -14.6429
   -14.5873 -14.5148 -14.3971 -14.2638 -14.2389 -14.1613 -13.9925 -13.9687
   -13.8427 -13.8322 -13.7806  -9.1955  -8.9119  -8.6173  -8.0502  -8.0186
    -8.0172  -7.9852  -7.9604  -7.8500  -7.6649  -7.6400  -7.5320  -3.2547
    -3.1170  -3.0566  -2.8928  -2.7200  -2.7161  -2.6129  -2.0681  -2.0636
    -1.9837  -1.9403  -1.8333  -1.7234  -1.7085  -1.7025  -1.6918  -1.3978
    -1.2015  -1.1002  -1.0725  -0.9906  -0.9350  -0.8931  -0.8867  -0.8700
    -0.7408  -0.7337  -0.6633  -0.6505  -0.5810  -0.4738  -0.4481  -0.4429
    -0.4188  -0.2399  -0.1937  -0.0795  -0.0475   0.0532   0.1352   0.2814
     0.4050   0.4249   0.4728   0.4814   0.5726   0.7068   0.7938   0.9036
     0.9149   0.9243   1.0475   1.1217   1.2042   1.2386   1.2799   1.3110
     1.3740   1.4201   1.4322   1.5106   1.5675   1.6241   1.7568   1.8320
     1.8769   1.9499   1.9697   2.0140   2.0516   2.0803   2.1133   2.2035
     2.4521   2.5048   2.5156   2.5208   3.1062   3.1119   4.1634   5.8024
     6.5997   7.2449   7.3342   7.3874   7.5000   7.7225   7.7240   7.9067
     7.9861   8.2907   8.4596   8.5444   8.6501   8.7677   8.8309   8.9233
     9.0483   9.2876

          k = 0.0000-0.5125 0.0000 ( 36494 PWs)   bands (ev):

   -38.2559 -37.9409 -23.8757 -22.7738 -22.7473 -22.6692 -18.8699 -18.5694
   -18.5383 -18.2543 -18.1894 -17.9572 -14.9496 -14.8641 -14.8209 -14.6513
   -14.6435 -14.4454 -14.3575 -14.3526 -14.2622 -14.2217 -14.0358 -13.8882
   -13.8227 -13.8038 -13.8009  -9.1687  -8.9294  -8.5811  -8.0346  -8.0019
    -7.9997  -7.9969  -7.9720  -7.8671  -7.6178  -7.5928  -7.4883  -3.4974
    -3.2652  -3.2076  -3.0266  -2.9561  -2.9479  -2.7456  -2.1028  -2.0979
    -2.0416  -2.0025  -1.8169  -1.7911  -1.6869  -1.6321  -1.4996  -1.4730
    -1.2664  -1.1796  -1.1793  -1.1450  -1.0737  -0.9619  -0.9314  -0.8615
    -0.8450  -0.8342  -0.7571  -0.6745  -0.5802  -0.5353  -0.5299  -0.5094
    -0.4802  -0.4683  -0.2354  -0.1607  -0.0640  -0.0361   0.0633   0.3525
     0.3944   0.3976   0.4483   0.4787   0.4870   0.7768   0.7953   0.9382
     0.9532   0.9780   0.9807   1.2057   1.2212   1.2791   1.3348   1.3840
     1.3872   1.3946   1.3950   1.4952   1.5819   1.6051   1.8841   1.9053
     1.9667   1.9893   2.0344   2.0983   2.1982   2.2882   2.3198   2.3687
     2.3788   2.3848   2.6777   2.6832   2.9700   2.9745   4.3495   6.1972
     6.5093   7.4239   7.6362   7.6814   7.7763   7.7848   7.9426   8.0664
     8.1365   8.3124   8.7493   8.8617   8.9009   9.0420   9.0511   9.1004
     9.2303   9.4279

          k = 0.1250 0.0000 0.0000 ( 36458 PWs)   bands (ev):

   -38.2700 -37.9550 -23.9873 -22.9076 -22.8812 -22.7978 -18.7743 -18.4284
   -18.3763 -18.2641 -18.0810 -17.9602 -15.4866 -15.2304 -14.8752 -14.6690
   -14.4812 -14.4586 -14.3655 -14.2837 -14.1957 -14.1554 -13.9093 -13.9079
   -13.7935 -13.7039 -13.6583  -9.3216  -8.8102  -8.7765  -8.1588  -8.1257
    -8.1100  -7.8833  -7.8589  -7.8574  -7.8319  -7.7316  -7.7147  -2.3205
    -2.2313  -2.2240  -2.1473  -1.9967  -1.9792  -1.9786  -1.9307  -1.9297
    -1.8862  -1.8543  -1.6509  -1.6411  -1.0877  -1.0206  -0.7482  -0.7282
    -0.6710  -0.6109  -0.6029  -0.5876  -0.4476  -0.3317  -0.3041  -0.2983
    -0.2922  -0.2526  -0.2010  -0.1990  -0.1050  -0.0527  -0.0394  -0.0261
     0.0322   0.2330   0.2503   0.2514   0.2567   0.3250   0.3594   0.3622
     0.3719   0.3953   0.3981   0.4058   0.5026   0.5063   0.5121   0.5284
     0.7850   0.8187   0.8596   0.8968   0.9342   0.9799   1.0949   1.0984
     1.1018   1.1475   1.2409   1.2932   1.3350   1.3787   1.4019   1.5704
     1.6073   1.6558   1.6999   1.8232   1.8863   1.9418   1.9663   1.9807
     2.0113   2.1336   2.1890   2.2922   2.4277   2.5596   2.5632   4.6686
     5.3176   5.3316   5.5564   5.9188   6.1707   6.5020   6.7747   6.8097
     7.2176   7.6136   7.9061   8.0073   8.0076   8.1686   8.2745   8.3593
     8.4718   8.7357

          k = 0.1250 0.1281 0.0000 ( 36476 PWs)   bands (ev):

   -38.2677 -37.9527 -23.9697 -22.8868 -22.8604 -22.7777 -18.7388 -18.3929
   -18.3802 -18.3591 -18.0821 -18.0580 -15.3788 -15.1334 -14.8260 -14.6668
   -14.4811 -14.4552 -14.3377 -14.2486 -14.2088 -14.2074 -13.9086 -13.9075
   -13.8392 -13.7309 -13.7154  -9.3009  -8.9606  -8.6599  -8.1449  -8.1141
    -8.0966  -8.0310  -8.0059  -7.8849  -7.7335  -7.7087  -7.5942  -2.4270
    -2.3686  -2.3538  -2.1796  -2.0595  -2.0294  -1.9863  -1.9717  -1.9539
    -1.9343  -1.8095  -1.7058  -1.6036  -1.5899  -1.1292  -1.1222  -1.0574
    -0.9312  -0.7802  -0.7063  -0.6629  -0.6295  -0.5950  -0.5502  -0.4872
    -0.4677  -0.4328  -0.3066  -0.2653  -0.2441  -0.0756   0.0027   0.0220
     0.0568   0.1295   0.1471   0.2371   0.3015   0.3285   0.3630   0.3749
     0.3888   0.4455   0.4462   0.4667   0.5128   0.5739   0.6332   0.6948
     0.6981   0.8396   0.9699   1.0012   1.0379   1.0524   1.0744   1.0930
     1.1283   1.2041   1.3117   1.3413   1.3900   1.4144   1.4911   1.5145
     1.5706   1.6754   1.6944   1.7116   1.7522   1.7724   1.9722   2.0448
     2.3333   2.3711   2.5431   2.7179   2.7603   2.8531   2.8647   4.8470
     5.6442   5.6509   5.8016   6.1516   6.3883   6.6587   7.0792   7.1126
     7.4491   7.7696   7.9157   7.9868   8.0839   8.1275   8.3108   8.3628
     8.5312   8.6192

          k = 0.1250 0.2563 0.0000 ( 36530 PWs)   bands (ev):

   -38.2621 -37.9471 -23.9267 -22.8356 -22.8091 -22.7283 -18.6489 -18.5915
   -18.3606 -18.3130 -18.2777 -18.0651 -15.1333 -14.9266 -14.7115 -14.6941
   -14.5170 -14.4785 -14.2946 -14.2856 -14.2739 -14.1326 -13.9616 -13.8858
   -13.8825 -13.8534 -13.7617  -9.2522  -9.0670  -8.6261  -8.1550  -8.1296
    -8.0896  -8.0602  -8.0597  -7.9955  -7.6895  -7.6647  -7.5575  -2.8623
    -2.7595  -2.6597  -2.5153  -2.3087  -2.1797  -2.1596  -2.0860  -2.0099
    -1.9871  -1.9170  -1.8828  -1.8825  -1.7460  -1.6685  -1.5409  -1.4494
    -1.1058  -1.0160  -0.9652  -0.9479  -0.9009  -0.8750  -0.8142  -0.7151
    -0.6795  -0.6224  -0.4588  -0.4341  -0.4198  -0.3404  -0.2553  -0.1937
    -0.0794   0.0074   0.0444   0.2186   0.2388   0.2399   0.3014   0.3168
     0.3854   0.4148   0.4768   0.4809   0.5273   0.6056   0.6867   0.8354
     1.0558   1.0640   1.0728   1.1491   1.1892   1.2020   1.2480   1.2487
     1.2880   1.3678   1.4235   1.4673   1.4855   1.5187   1.5518   1.5676
     1.5829   1.7085   1.7450   1.7752   1.9380   2.0809   2.0841   2.1205
     2.5729   2.6290   2.8143   2.9507   3.1391   3.1579   3.6056   5.3140
     6.3521   6.4490   6.4515   6.7461   6.8804   7.0456   7.6815   7.6961
     7.9043   7.9276   7.9761   8.0999   8.3584   8.4330   8.5078   8.6479
     8.6955   8.7300

          k = 0.1250 0.3844 0.0000 ( 36519 PWs)   bands (ev):

   -38.2565 -37.9415 -23.8828 -22.7831 -22.7565 -22.6777 -18.7879 -18.5521
   -18.4874 -18.3508 -18.2025 -18.0552 -14.8940 -14.8241 -14.7814 -14.5644
   -14.5595 -14.5120 -14.3788 -14.3006 -14.2412 -14.1304 -14.0037 -13.9732
   -13.8368 -13.8282 -13.7727  -9.2022  -9.0770  -8.6806  -8.1596  -8.1347
    -8.0593  -8.0288  -8.0264  -8.0130  -7.7374  -7.7127  -7.6043  -3.2721
    -3.2000  -3.1472  -2.9449  -2.7150  -2.7060  -2.6523  -2.1000  -2.0840
    -2.0210  -1.9214  -1.9029  -1.8558  -1.8141  -1.6478  -1.6230  -1.5649
    -1.4134  -1.3197  -1.2978  -1.1660  -1.0496  -1.0455  -1.0078  -0.8290
    -0.8015  -0.6597  -0.6240  -0.5840  -0.5504  -0.4847  -0.4496  -0.4342
    -0.3466  -0.0908   0.0157   0.1035   0.1345   0.2074   0.2510   0.3395
     0.4076   0.4436   0.4724   0.5053   0.5368   0.6360   0.8695   0.8717
     0.9949   1.0826   1.0935   1.1193   1.2582   1.3019   1.3558   1.3671
     1.4159   1.4324   1.4661   1.4892   1.5765   1.6914   1.7422   1.8066
     1.8937   1.9679   1.9971   2.0976   2.0999   2.2070   2.4904   2.4948
     2.6004   2.6669   2.8338   2.9275   3.1308   3.1586   4.1596   5.8873
     6.3981   7.1506   7.1996   7.3294   7.4151   7.4850   7.6323   7.7604
     8.0143   8.3863   8.4574   8.4896   8.7650   8.9225   8.9677   9.0112
     9.1286   9.2032

          k = 0.1250-0.5125 0.0000 ( 36492 PWs)   bands (ev):

   -38.2542 -37.9391 -23.8643 -22.7609 -22.7343 -22.6564 -18.8634 -18.5629
   -18.5096 -18.3466 -18.1599 -18.0510 -14.9089 -14.7759 -14.7467 -14.6165
   -14.5426 -14.4248 -14.3572 -14.3133 -14.2821 -14.2296 -14.0086 -13.9291
   -13.8044 -13.7996 -13.7965  -9.1768  -9.0581  -8.7283  -8.1344  -8.1095
    -8.0461  -8.0146  -8.0103  -7.9974  -7.7854  -7.7607  -7.6468  -3.4903
    -3.3770  -3.3014  -3.0854  -2.9522  -2.9422  -2.7956  -2.1178  -2.1071
    -2.0221  -1.9166  -1.8637  -1.7952  -1.7481  -1.6940  -1.6631  -1.5779
    -1.5628  -1.5340  -1.3239  -1.2337  -1.2115  -1.1129  -1.0838  -0.8871
    -0.7641  -0.7236  -0.6958  -0.6399  -0.5866  -0.5328  -0.4805  -0.4642
    -0.4374  -0.1285  -0.0267   0.0155   0.1287   0.2037   0.2040   0.3569
     0.4055   0.4608   0.4629   0.5403   0.5520   0.6449   0.6914   0.9819
     1.0504   1.0896   1.1038   1.1884   1.2486   1.2850   1.3811   1.3829
     1.4201   1.4448   1.4999   1.5303   1.5468   1.7215   1.8412   1.9688
     2.0253   2.0674   2.1850   2.2625   2.3713   2.3779   2.5651   2.6322
     2.6571   2.6622   2.7507   2.8166   3.0272   3.0690   4.3440   6.0714
     6.6385   7.0519   7.3467   7.4246   7.4495   7.5595   7.6887   7.9823
     8.2267   8.3767   8.9602   8.9963   8.9987   9.1849   9.2136   9.3507
     9.3659   9.4210

          k = 0.2500 0.0000 0.0000 ( 36542 PWs)   bands (ev):

   -38.2656 -37.9506 -23.9505 -22.8624 -22.8360 -22.7544 -18.6925 -18.5912
   -18.3453 -18.2981 -18.2581 -17.9541 -15.2226 -14.9976 -14.9456 -14.7764
   -14.6157 -14.5694 -14.3840 -14.3280 -14.1904 -14.1151 -13.9411 -13.9076
   -13.9035 -13.7155 -13.7137  -9.3506  -8.7442  -8.7029  -8.1687  -8.1371
    -8.1314  -7.8133  -7.7892  -7.7721  -7.7464  -7.6685  -7.6349  -2.6288
    -2.5607  -2.5368  -2.1336  -2.0414  -2.0283  -2.0028  -1.9521  -1.8955
    -1.8681  -1.8022  -1.6003  -1.5954  -1.1574  -1.1104  -0.8964  -0.8706
    -0.8297  -0.7827  -0.6886  -0.6284  -0.6222  -0.5926  -0.5896  -0.5654
    -0.5051  -0.5047  -0.4936  -0.3345  -0.3000  -0.1656  -0.0832  -0.0475
    -0.0034   0.1105   0.1239   0.1290   0.2052   0.2470   0.3046   0.3049
     0.3634   0.3714   0.4213   0.5218   0.5367   0.5412   0.5452   0.6401
     0.6822   0.7876   0.8741   0.9419   0.9559   0.9634   1.0268   1.0355
     1.1509   1.2509   1.3215   1.3956   1.3982   1.4227   1.4424   1.4433
     1.5401   1.6131   1.6250   1.8281   1.8515   1.8720   1.9762   1.9915
     2.0683   2.1263   2.3353   2.4747   2.5920   2.7005   2.7233   5.1171
     5.7733   5.7753   6.0532   6.5059   6.7279   6.9166   7.4060   7.4342
     7.7641   7.9620   8.0599   8.0882   8.2246   8.3228   8.5599   8.6609
     8.7934   8.7992

          k = 0.2500 0.1281 0.0000 ( 36518 PWs)   bands (ev):

   -38.2633 -37.9483 -23.9342 -22.8435 -22.8170 -22.7360 -18.6584 -18.5854
   -18.3582 -18.3127 -18.2907 -18.0543 -15.1175 -14.9159 -14.8887 -14.7488
   -14.5764 -14.5447 -14.3444 -14.2986 -14.2559 -14.1286 -13.9461 -13.8965
   -13.8931 -13.7473 -13.7380  -9.3313  -8.9979  -8.5977  -8.1746  -8.1461
    -8.1293  -8.0584  -8.0324  -7.9163  -7.6594  -7.6345  -7.5304  -2.7670
    -2.6615  -2.5826  -2.1870  -2.1237  -2.0862  -2.0659  -2.0151  -1.9863
    -1.9419  -1.7864  -1.7271  -1.6300  -1.5141  -1.1801  -1.1248  -1.1239
    -1.1135  -1.0116  -0.9748  -0.9482  -0.8305  -0.8189  -0.7698  -0.6962
    -0.6238  -0.5158  -0.4950  -0.3844  -0.3078  -0.1472  -0.0375   0.0278
     0.0843   0.0941   0.1278   0.2065   0.2226   0.2444   0.2890   0.3309
     0.3589   0.3737   0.5472   0.5713   0.5720   0.5943   0.6356   0.7062
     0.7065   0.8660   0.8955   1.0634   1.0868   1.1364   1.1579   1.1843
     1.1922   1.2568   1.2831   1.3783   1.3810   1.3861   1.4317   1.5492
     1.5917   1.5964   1.6275   1.7975   1.8086   1.8458   1.9536   2.0743
     2.6264   2.6876   2.8023   2.8561   2.8948   2.9533   3.0684   5.2540
     6.0156   6.0165   6.1894   6.6434   6.8213   6.9880   7.6560   7.6957
     7.7410   7.8525   7.9545   8.0145   8.2496   8.3175   8.5890   8.6744
     8.8196   8.8613

          k = 0.2500 0.2563 0.0000 ( 36545 PWs)   bands (ev):

   -38.2578 -37.9427 -23.8942 -22.7970 -22.7704 -22.6907 -18.5919 -18.5724
   -18.5553 -18.2964 -18.2616 -18.2173 -14.8854 -14.7612 -14.7366 -14.6930
   -14.4949 -14.4880 -14.3994 -14.2576 -14.2320 -14.1789 -13.9668 -13.8637
   -13.8607 -13.8395 -13.7522  -9.3027  -9.2354  -8.6880  -8.3612  -8.3362
    -8.2099  -8.1075  -8.0781  -8.0644  -7.7566  -7.7318  -7.6268  -3.1875
    -3.0386  -2.8089  -2.5015  -2.4391  -2.2639  -2.2176  -2.1932  -2.1125
    -2.1023  -1.9371  -1.9270  -1.8941  -1.8918  -1.6291  -1.5390  -1.5255
    -1.4759  -1.4134  -1.3613  -1.1001  -0.9948  -0.8980  -0.8781  -0.8408
    -0.7080  -0.6889  -0.4842  -0.4285  -0.3776  -0.3161  -0.2936  -0.2173
    -0.1613  -0.0479   0.0224   0.1697   0.2013   0.2805   0.4170   0.4490
     0.5176   0.5441   0.5657   0.6167   0.6473   0.7204   0.8908   1.0956
     1.0977   1.1599   1.2387   1.2401   1.2438   1.2493   1.2655   1.3417
     1.3559   1.3887   1.4356   1.4461   1.4976   1.5908   1.6119   1.6710
     1.7154   1.7866   1.8182   1.8722   2.0000   2.0073   2.0530   2.1769
     3.1082   3.1107   3.2382   3.3089   3.4274   3.5815   3.6150   5.6504
     6.1063   6.5285   6.5380   6.9855   7.0348   7.2344   7.4818   7.6107
     8.0943   8.1903   8.2060   8.3294   8.5260   8.6602   8.6716   8.7781
     8.8915   8.9624

          k = 0.2500 0.3844 0.0000 ( 36557 PWs)   bands (ev):

   -38.2522 -37.9371 -23.8535 -22.7494 -22.7228 -22.6445 -18.7734 -18.5556
   -18.4770 -18.4727 -18.2621 -18.1264 -14.7617 -14.6687 -14.6335 -14.5173
   -14.4734 -14.4507 -14.4165 -14.3365 -14.1873 -14.0520 -14.0488 -13.9265
   -13.8236 -13.8170 -13.7334  -9.3770  -9.2212  -8.9066  -8.4678  -8.4428
    -8.3089  -8.0864  -8.0564  -8.0521  -7.9934  -7.9688  -7.8490  -3.6019
    -3.4519  -3.2137  -3.1110  -2.8214  -2.6807  -2.6795  -2.2896  -2.2397
    -2.1899  -1.9991  -1.9940  -1.9939  -1.9489  -1.9040  -1.8358  -1.7708
    -1.5696  -1.4570  -1.4499  -1.2942  -1.1177  -1.0008  -0.9780  -0.8656
    -0.7240  -0.7171  -0.6467  -0.5409  -0.4930  -0.4576  -0.4218  -0.3983
    -0.2716  -0.2120  -0.0473   0.1848   0.2596   0.2893   0.5091   0.5401
     0.5701   0.6357   0.6800   0.7366   0.8296   0.9176   1.1557   1.1732
     1.1764   1.1936   1.3088   1.3775   1.4297   1.4308   1.4565   1.5246
     1.5564   1.5596   1.6151   1.6283   1.6744   1.6748   1.7876   1.8468
     1.9291   1.9634   1.9658   2.1217   2.1255   2.2128   2.4244   2.4286
     3.0371   3.0377   3.5161   3.6008   3.6952   3.8296   4.1461   5.6852
     6.2177   6.6945   6.7110   6.9844   7.0304   7.2871   7.7740   7.8501
     8.1216   8.5146   8.5594   8.6057   8.9226   9.0777   9.2207   9.3084
     9.3504   9.5554

          k = 0.2500-0.5125 0.0000 ( 36598 PWs)   bands (ev):

   -38.2499 -37.9348 -23.8364 -22.7294 -22.7028 -22.6251 -18.8479 -18.5498
   -18.5472 -18.4363 -18.2565 -18.0854 -14.8055 -14.6572 -14.5301 -14.4854
   -14.4349 -14.3842 -14.3801 -14.3520 -14.2187 -14.1452 -13.9703 -13.9379
   -13.8016 -13.7962 -13.7316  -9.3653  -9.2030  -9.0452  -8.4525  -8.4274
    -8.3021  -8.1528  -8.1281  -8.0734  -8.0461  -8.0422  -7.9843  -3.7654
    -3.6181  -3.4459  -3.2810  -2.9890  -2.9184  -2.9142  -2.2828  -2.2312
    -2.1576  -2.1571  -1.9978  -1.9976  -1.9926  -1.9381  -1.8895  -1.8580
    -1.5949  -1.5417  -1.4762  -1.3150  -1.1858  -1.0243  -1.0136  -0.8419
    -0.7408  -0.7285  -0.7242  -0.6164  -0.5589  -0.5166  -0.4734  -0.3744
    -0.3105  -0.2272  -0.0645   0.1874   0.2646   0.3356   0.5344   0.5822
     0.5866   0.6798   0.7295   0.7407   0.9303   1.0339   1.1024   1.2583
     1.2584   1.2865   1.2913   1.4359   1.4525   1.4605   1.5260   1.5327
     1.5334   1.6064   1.6277   1.6905   1.7351   1.7805   1.8535   1.9424
     1.9937   2.0176   2.1384   2.2133   2.3670   2.3727   2.6025   2.6072
     2.8784   2.8801   3.5738   3.6627   3.7494   3.8768   4.3213   5.5030
     6.6193   6.6465   6.6965   6.9204   6.9254   7.1485   7.6435   8.0311
     8.3476   8.4213   9.1652   9.1682   9.2076   9.2739   9.3757   9.4175
     9.5317   9.6758

          k = 0.3750 0.0000 0.0000 ( 36578 PWs)   bands (ev):

   -38.2612 -37.9462 -23.9131 -22.8161 -22.7896 -22.7100 -18.7803 -18.6039
   -18.4900 -18.2536 -18.2520 -17.9479 -15.0379 -14.9807 -14.8952 -14.8921
   -14.6848 -14.6434 -14.5022 -14.3332 -14.1831 -14.0769 -14.0325 -13.8961
   -13.8919 -13.7542 -13.7232  -9.3582  -8.6760  -8.6525  -8.1698  -8.1386
    -8.1315  -7.7541  -7.7302  -7.6827  -7.6568  -7.6292  -7.5515  -2.9522
    -2.8752  -2.8018  -2.4464  -2.1097  -2.1006  -1.9649  -1.8409  -1.7751
    -1.7749  -1.7291  -1.5841  -1.4922  -1.2439  -1.1412  -1.0815  -1.0758
    -0.9611  -0.9442  -0.9302  -0.9221  -0.8638  -0.8057  -0.7284  -0.7258
    -0.6468  -0.5992  -0.5821  -0.5741  -0.3576  -0.3459  -0.2472  -0.1898
    -0.1386  -0.0645  -0.0519  -0.0118   0.2318   0.2779   0.3225   0.3301
     0.3498   0.3579   0.5318   0.5339   0.5811   0.5936   0.6032   0.6304
     0.6412   0.7637   0.7805   0.9562   0.9766   1.0878   1.1191   1.1558
     1.2264   1.2714   1.3321   1.3414   1.3820   1.4052   1.4546   1.4591
     1.6701   1.7191   1.7700   1.7813   1.8481   1.8737   1.9813   2.0490
     2.1304   2.1855   2.3632   2.5125   2.5734   2.8066   2.8080   5.6949
     6.4091   6.4121   6.4620   7.0992   7.1891   7.5425   7.7729   7.9114
     7.9181   7.9241   8.1771   8.3576   8.4545   8.5579   8.6460   8.8417
     8.8858   8.9993

          k = 0.3750 0.1281 0.0000 ( 36524 PWs)   bands (ev):

   -38.2590 -37.9439 -23.8980 -22.7991 -22.7726 -22.6933 -18.7730 -18.5709
   -18.4826 -18.3504 -18.2209 -18.0462 -14.9723 -14.9146 -14.8440 -14.8088
   -14.6415 -14.5703 -14.4500 -14.2991 -14.2505 -14.0491 -14.0231 -13.8810
   -13.8755 -13.7653 -13.7517  -9.3408  -8.9377  -8.6559  -8.1697  -8.1403
    -8.1314  -8.0009  -7.9757  -7.8594  -7.7154  -7.6904  -7.5918  -3.1000
    -2.9870  -2.8571  -2.5027  -2.1418  -2.1155  -2.0553  -1.9628  -1.9472
    -1.9030  -1.6942  -1.6895  -1.6416  -1.4825  -1.4356  -1.3722  -1.3417
    -1.2277  -1.1227  -1.1214  -1.0005  -0.9855  -0.9124  -0.8306  -0.8061
    -0.7247  -0.6665  -0.5845  -0.4909  -0.4699  -0.2324  -0.1683  -0.0652
     0.0045   0.0298   0.1120   0.1565   0.2017   0.2589   0.2631   0.2950
     0.3481   0.4582   0.5409   0.6473   0.6490   0.6728   0.7545   0.7612
     0.7961   0.8081   0.9795   1.0286   1.0636   1.0987   1.1554   1.2452
     1.2561   1.2698   1.3254   1.3314   1.3883   1.4795   1.4929   1.5083
     1.6470   1.6920   1.7787   1.8090   1.8351   1.9718   2.0118   2.0709
     2.7369   2.7839   2.8318   2.8840   2.9287   3.1069   3.1891   5.7992
     6.3535   6.5342   6.5386   6.9906   7.2067   7.5223   7.5702   7.7838
     7.9168   7.9863   7.9983   8.4768   8.6010   8.6851   8.7928   8.8639
     9.0206   9.0545

          k = 0.3750 0.2563 0.0000 ( 36559 PWs)   bands (ev):

   -38.2535 -37.9384 -23.8613 -22.7576 -22.7310 -22.6524 -18.7556 -18.5656
   -18.4877 -18.4649 -18.2650 -18.1343 -14.8101 -14.7694 -14.7174 -14.6220
   -14.5036 -14.4579 -14.4163 -14.3303 -14.2171 -14.0174 -13.9821 -13.8419
   -13.8379 -13.8134 -13.7580  -9.3488  -9.2579  -8.8933  -8.4102  -8.3851
    -8.2630  -8.1260  -8.0963  -8.0788  -7.9841  -7.9596  -7.8476  -3.5396
    -3.3761  -3.0877  -2.7279  -2.4740  -2.3275  -2.2754  -2.2234  -2.1172
    -2.1131  -2.0063  -1.9978  -1.9457  -1.9035  -1.8981  -1.8354  -1.7454
    -1.4344  -1.4184  -1.3775  -1.2119  -0.9618  -0.9134  -0.8218  -0.8062
    -0.7773  -0.7084  -0.5968  -0.4438  -0.4219  -0.3663  -0.3321  -0.3081
    -0.1607  -0.1601  -0.0739   0.2664   0.2754   0.3738   0.5094   0.5778
     0.6098   0.7168   0.7176   0.7943   0.8102   0.9351   1.1299   1.1503
     1.1657   1.2230   1.2347   1.2794   1.3048   1.3451   1.3523   1.4004
     1.4070   1.4755   1.5034   1.5311   1.5594   1.5780   1.6608   1.7486
     1.8701   1.8810   1.8972   1.9080   1.9454   2.0168   2.0606   2.1125
     3.1090   3.1098   3.6061   3.6431   3.6971   3.7834   3.9189   5.6767
     6.1422   6.5082   6.5200   6.9359   6.9995   7.1565   7.6690   8.0414
     8.2008   8.2391   8.2463   8.5913   8.7391   8.9939   9.0281   9.0839
     9.1842   9.3730

          k = 0.3750 0.3844 0.0000 ( 36631 PWs)   bands (ev):

   -38.2480 -37.9328 -23.8239 -22.7152 -22.6886 -22.6108 -18.7602 -18.7352
   -18.4605 -18.4428 -18.3983 -18.0454 -14.6897 -14.5795 -14.5753 -14.5304
   -14.4870 -14.3945 -14.3471 -14.3147 -14.1435 -13.9607 -13.9194 -13.8766
   -13.8098 -13.8042 -13.6986  -9.5913  -9.2498  -9.1842  -8.6767  -8.6514
    -8.5148  -8.3129  -8.2887  -8.1538  -8.1151  -8.0839  -8.0750  -3.9917
    -3.8194  -3.4503  -3.1359  -3.0942  -2.6565  -2.6518  -2.4253  -2.3960
    -2.3819  -2.3112  -2.2009  -2.0995  -2.0077  -2.0028  -1.9491  -1.8934
    -1.5942  -1.5013  -1.2626  -1.1018  -1.0870  -1.0427  -0.9541  -0.8784
    -0.8492  -0.7169  -0.6420  -0.5758  -0.5598  -0.5362  -0.4282  -0.3699
    -0.3417  -0.1095  -0.1074   0.2417   0.3823   0.4266   0.6822   0.7620
     0.8620   0.9201   0.9859   1.0552   1.1335   1.2901   1.3091   1.3197
     1.3850   1.3875   1.4627   1.5072   1.5402   1.5768   1.5925   1.6012
     1.6497   1.6646   1.7766   1.7887   1.7992   1.8278   1.8651   1.9361
     1.9501   2.0109   2.0128   2.1478   2.1519   2.2771   2.3460   2.3499
     3.0259   3.0313   4.1144   4.1894   4.2570   4.2789   4.4153   5.0804
     6.1435   6.1529   6.3877   6.6861   6.8392   7.1448   7.9121   8.0265
     8.3635   8.5531   8.8044   8.8648   8.8898   9.0703   9.2127   9.2649
     9.4391   9.4735

          k = 0.3750-0.5125 0.0000 ( 36666 PWs)   bands (ev):

   -38.2457 -37.9305 -23.8082 -22.6974 -22.6708 -22.5933 -18.8323 -18.7298
   -18.5315 -18.4387 -18.3592 -18.0061 -14.6935 -14.5930 -14.5103 -14.4405
   -14.4081 -14.3554 -14.3545 -14.2387 -14.1266 -14.0531 -13.8562 -13.8562
   -13.7977 -13.7925 -13.6645  -9.6716  -9.3500  -9.2104  -8.7557  -8.7302
    -8.5967  -8.4681  -8.4440  -8.2930  -8.1118  -8.0783  -8.0691  -4.1728
    -4.0010  -3.6186  -3.3807  -3.2628  -2.8950  -2.8900  -2.5366  -2.4415
    -2.4011  -2.3351  -2.3237  -2.1104  -2.0033  -1.9980  -1.9484  -1.9429
    -1.6543  -1.5275  -1.2790  -1.1601  -1.1413  -1.0064  -0.9333  -0.9330
    -0.8991  -0.7444  -0.7246  -0.6365  -0.6197  -0.5729  -0.4908  -0.3755
    -0.3526  -0.0784  -0.0763   0.2490   0.4128   0.4491   0.6961   0.8098
     0.9831   1.0538   1.0809   1.1700   1.2586   1.3433   1.3820   1.4136
     1.4353   1.5000   1.5337   1.5845   1.6478   1.6520   1.6668   1.7491
     1.7588   1.7601   1.7948   1.8033   1.8370   1.8765   1.9643   2.0238
     2.0466   2.1356   2.1410   2.2740   2.3874   2.3915   2.5417   2.5464
     2.8535   2.8618   4.2568   4.3588   4.4292   4.4424   4.5732   4.8455
     5.9461   5.9555   6.3794   6.6005   7.0299   7.0533   7.7762   8.1900
     8.3131   8.6057   8.8588   9.0495   9.1424   9.1711   9.1883   9.3137
     9.4265   9.5220

          k =-0.5000 0.0000 0.0000 ( 36502 PWs)   bands (ev):

   -38.2594 -37.9444 -23.8974 -22.7966 -22.7700 -22.6912 -18.8524 -18.5655
   -18.5628 -18.2495 -18.2141 -17.9454 -15.0848 -15.0013 -14.9328 -14.7937
   -14.7480 -14.5882 -14.5423 -14.3632 -14.1715 -14.1259 -14.0015 -13.8861
   -13.8824 -13.7653 -13.7347  -9.3567  -8.6471  -8.6372  -8.1693  -8.1377
    -8.1266  -7.7313  -7.7076  -7.6444  -7.6184  -7.6178  -7.5159  -3.0758
    -3.0000  -2.9166  -2.5745  -2.1365  -2.1281  -1.9621  -1.8073  -1.8050
    -1.6617  -1.6269  -1.5554  -1.3554  -1.3503  -1.2838  -1.2074  -1.1831
    -1.0592  -0.9925  -0.9901  -0.9208  -0.9149  -0.8243  -0.8198  -0.8141
    -0.7392  -0.7130  -0.5829  -0.5765  -0.5683  -0.3738  -0.2950  -0.2782
    -0.2135  -0.1091  -0.0802  -0.0700   0.2705   0.2992   0.3367   0.3415
     0.3442   0.3523   0.4758   0.5511   0.5957   0.6085   0.6263   0.6758
     0.6765   0.6831   0.7671   1.0080   1.0610   1.1374   1.1436   1.1924
     1.2101   1.2868   1.3133   1.3694   1.4029   1.4052   1.4290   1.4681
     1.7290   1.7352   1.7655   1.7811   1.8949   1.8969   2.0793   2.1142
     2.1635   2.1663   2.3669   2.5015   2.5319   2.8048   2.8197   6.2215
     6.3493   7.0539   7.1683   7.1856   7.2614   7.2648   7.4456   7.8927
     7.9004   7.9593   8.1580   8.3905   8.5415   8.7431   8.9323   9.0358
     9.0879   9.2034

          k =-0.5000 0.1281 0.0000 ( 36528 PWs)   bands (ev):

   -38.2572 -37.9421 -23.8828 -22.7805 -22.7539 -22.6753 -18.8447 -18.5549
   -18.5332 -18.3471 -18.1822 -18.0427 -15.0172 -14.9478 -14.8779 -14.7067
   -14.6778 -14.5550 -14.4504 -14.3291 -14.2382 -14.0869 -13.9701 -13.8678
   -13.8652 -13.7756 -13.7692  -9.3383  -8.8398  -8.7606  -8.1643  -8.1340
    -8.1240  -7.8665  -7.8558  -7.8428  -7.8297  -7.7429  -7.7198  -3.2289
    -3.1178  -2.9800  -2.6373  -2.1560  -2.1366  -2.0476  -1.9519  -1.9153
    -1.7153  -1.6820  -1.6647  -1.6635  -1.5597  -1.5523  -1.5311  -1.4785
    -1.2541  -1.1294  -1.1238  -1.1192  -1.0272  -0.8800  -0.8326  -0.7513
    -0.7426  -0.6879  -0.6350  -0.6348  -0.4963  -0.2827  -0.2228  -0.0810
    -0.0444  -0.0205   0.0421   0.1228   0.2092   0.2277   0.2805   0.3090
     0.3368   0.5064   0.5513   0.6402   0.6428   0.6856   0.7836   0.8377
     0.8448   0.8914   0.9767   1.0066   1.0127   1.1076   1.2096   1.2278
     1.2996   1.3114   1.3154   1.3197   1.4169   1.4429   1.4779   1.5162
     1.7017   1.7369   1.7832   1.8067   1.8839   2.0443   2.0550   2.1532
     2.7602   2.7970   2.8330   2.8778   2.9218   3.1302   3.1917   6.1577
     6.4104   6.7499   6.9827   6.9999   7.3903   7.4782   7.5366   7.6128
     7.6520   8.0176   8.0863   8.5252   8.8749   8.9584   9.1162   9.1785
     9.2328   9.2648

          k =-0.5000 0.2563 0.0000 ( 36566 PWs)   bands (ev):

   -38.2517 -37.9366 -23.8474 -22.7410 -22.7144 -22.6363 -18.8259 -18.5611
   -18.5359 -18.4515 -18.2601 -18.0975 -14.8566 -14.7861 -14.7326 -14.5985
   -14.4753 -14.4200 -14.4011 -14.3188 -14.2472 -13.9880 -13.8922 -13.8288
   -13.8282 -13.8081 -13.7996  -9.3094  -9.2487  -9.0529  -8.3324  -8.3066
    -8.2009  -8.1777  -8.1540  -8.1321  -8.1024  -8.0756  -8.0315  -3.6813
    -3.5173  -3.2234  -2.8717  -2.4617  -2.3425  -2.2867  -2.2139  -2.1527
    -2.1142  -2.1109  -2.0023  -1.9771  -1.9435  -1.9040  -1.8994  -1.8286
    -1.4868  -1.4162  -1.3662  -1.1923  -0.9276  -0.9245  -0.7913  -0.7764
    -0.7384  -0.7366  -0.6240  -0.5092  -0.4271  -0.3589  -0.3562  -0.3520
    -0.1686  -0.1550  -0.1142   0.2745   0.2953   0.4720   0.5718   0.6307
     0.6948   0.7011   0.7916   0.8342   0.8454   1.0923   1.1184   1.1899
     1.2120   1.2544   1.2934   1.2950   1.3936   1.3980   1.4174   1.4253
     1.4407   1.4470   1.4714   1.4895   1.5158   1.6310   1.7930   1.8366
     1.8482   1.8585   1.8895   1.9236   1.9439   2.0019   2.0723   2.1178
     3.1048   3.1066   3.6210   3.7437   3.8058   3.8782   4.0074   5.4908
     6.4665   6.4773   6.4965   6.8041   6.8970   7.0475   7.8132   8.2725
     8.3186   8.3197   8.3246   8.4969   8.9692   9.0306   9.2573   9.3017
     9.3149   9.3995

          k =-0.5000 0.3844 0.0000 ( 36670 PWs)   bands (ev):

   -38.2462 -37.9310 -23.8115 -22.7008 -22.6742 -22.5967 -18.8072 -18.7521
   -18.5169 -18.4510 -18.3639 -18.0100 -14.7152 -14.5720 -14.5558 -14.5304
   -14.4682 -14.4047 -14.3504 -14.1819 -14.1701 -13.9222 -13.8531 -13.8123
   -13.8034 -13.7985 -13.7044  -9.6518  -9.3404  -9.2418  -8.7260  -8.7004
    -8.5688  -8.4715  -8.4477  -8.3029  -8.1292  -8.0969  -8.0850  -4.1522
    -3.9757  -3.5905  -3.2351  -3.1239  -2.6455  -2.6401  -2.5391  -2.4587
    -2.4191  -2.3399  -2.3345  -2.1415  -2.0068  -2.0027  -1.9446  -1.9303
    -1.6396  -1.4946  -1.1797  -1.0986  -1.0823  -1.0260  -1.0113  -0.8377
    -0.8293  -0.7852  -0.6439  -0.5785  -0.5724  -0.5390  -0.4771  -0.3816
    -0.3672  -0.0586  -0.0572   0.2405   0.4148   0.5409   0.7207   0.8611
     1.0027   1.1068   1.1532   1.2345   1.2362   1.3201   1.3517   1.3868
     1.4309   1.4592   1.4914   1.5399   1.5437   1.6431   1.7040   1.7067
     1.7088   1.7719   1.7833   1.7911   1.8117   1.8212   1.8446   1.9810
     2.0384   2.1279   2.1541   2.1554   2.1596   2.2210   2.3093   2.3120
     3.0221   3.0295   4.1160   4.4068   4.4809   4.4834   4.6157   4.8308
     5.9049   5.9155   6.3595   6.5808   6.9724   7.0167   7.9795   8.1559
     8.3615   8.5993   8.6702   8.8289   9.0745   9.1620   9.1896   9.2900
     9.4704   9.4792

          k =-0.5000-0.5125 0.0000 ( 36660 PWs)   bands (ev):

   -38.2439 -37.9287 -23.7964 -22.6839 -22.6573 -22.5800 -18.8259 -18.7994
   -18.5250 -18.5090 -18.3256 -17.9715 -14.6586 -14.6440 -14.4524 -14.4026
   -14.3965 -14.3956 -14.3560 -14.1431 -14.0891 -14.0139 -13.8170 -13.8014
   -13.7907 -13.7755 -13.6360  -9.7995  -9.4590  -9.2226  -8.8781  -8.8524
    -8.7167  -8.5890  -8.5651  -8.4104  -8.1287  -8.0934  -8.0799  -4.3416
    -4.1644  -3.7590  -3.4037  -3.3714  -2.8835  -2.8778  -2.6704  -2.4866
    -2.4651  -2.4488  -2.3632  -2.1638  -1.9950  -1.9908  -1.9655  -1.9409
    -1.6885  -1.5187  -1.1847  -1.1772  -1.1057  -1.0751  -0.9740  -0.8924
    -0.8739  -0.8142  -0.7337  -0.6604  -0.6557  -0.4987  -0.4879  -0.4698
    -0.3710  -0.0173  -0.0141   0.2491   0.4594   0.5596   0.7384   0.9309
     1.2251   1.2281   1.2580   1.3631   1.3989   1.4160   1.4251   1.4365
     1.4636   1.4652   1.5903   1.6152   1.6458   1.6937   1.7733   1.8414
     1.8818   1.8860   1.8911   1.9081   1.9132   1.9515   1.9515   1.9606
     2.0237   2.2836   2.2950   2.3758   2.4062   2.4114   2.5144   2.5191
     2.8455   2.8567   4.2495   4.5739   4.6233   4.7084   4.7101   4.8302
     5.6554   5.6659   6.2622   6.4861   7.0019   7.0556   7.9762   8.2705
     8.2883   8.5826   8.7169   8.8253   8.9939   9.0496   9.0725   9.1096
     9.3507   9.3968

     the Fermi energy is     2.8172 ev

!    total energy              =   -1868.77938139 Ry
     Harris-Foulkes estimate   =   -1868.77938236 Ry
     estimated scf accuracy    <       0.00000086 Ry

     The total energy is the sum of the following terms:

     one-electron contribution =  -27274.04932725 Ry
     hartree contribution      =   13789.79934526 Ry
     xc contribution           =    -642.20527517 Ry
     ewald contribution        =   12257.68442645 Ry
     smearing contrib. (-TS)   =      -0.00855068 Ry

     convergence has been achieved in  38 iterations

     negative rho (up, down):  9.064E-02 0.000E+00

     Forces acting on atoms (cartesian axes, Ry/au):

     atom    1 type  3   force =     0.00000000    0.00000000   -0.00013155
     atom    2 type  2   force =     0.00000000    0.00000000    0.00008148
     atom    3 type  3   force =     0.00000000    0.00000000   -0.00012967
     atom    4 type  1   force =     0.00000000    0.00000000   -0.00021644
     atom    5 type  2   force =     0.00000000    0.00000000   -0.00075159
     atom    6 type  3   force =     0.00000000    0.00000000    0.00026191
     atom    7 type  3   force =     0.00000000    0.00000000   -0.00009231
     atom    8 type  4   force =     0.00000000    0.00000000   -0.00073332
     atom    9 type  3   force =     0.00000000    0.00000000    0.00088599
     atom   10 type  3   force =     0.00000000    0.00000000    0.00124642
     atom   11 type  2   force =     0.00000000    0.00000000   -0.00117437
     atom   12 type  1   force =     0.00000000    0.00000000   -0.00447929
     atom   13 type  3   force =     0.00000000    0.00000000    0.00270948
     atom   14 type  3   force =     0.00000000    0.00000000    0.01454125
     atom   15 type  2   force =     0.00000000    0.00000000   -0.01151108
     atom   16 type  3   force =     0.00000000    0.00000000    0.03009954
     atom   17 type  1   force =     0.00000000    0.00000000   -0.02764206
     atom   18 type  2   force =     0.00000000    0.00000000    0.00527577
     atom   19 type  3   force =     0.00000000    0.00000000    0.01405493
     atom   20 type  3   force =     0.00000000    0.00000000    0.00654063
     atom   21 type  4   force =     0.00000000    0.00000000   -0.03965613
     atom   22 type  3   force =     0.00000000    0.00000000    0.00355089
     atom   23 type  3   force =     0.00000000    0.00000000    0.00577343
     atom   24 type  2   force =     0.00000000    0.00000000    0.00319677
     atom   25 type  1   force =     0.00000000    0.00000000   -0.00170017
     atom   26 type  3   force =     0.00000000    0.00000000    0.00137677
     atom   27 type  2   force =     0.00000000    0.00000000   -0.00176732
     atom   28 type  3   force =     0.00000000    0.00000000    0.00039004

     Total force =     0.062860     Total SCF correction =     0.004908


     Computing stress (Cartesian axis) and pressure


     negative rho (up, down):  9.064E-02 0.000E+00
          total   stress  (Ry/bohr**3)                   (kbar)     P=       -5.46
  -0.00006728   0.00000000   0.00000000           -9.90        0.00        0.00
   0.00000000  -0.00002891   0.00000000            0.00       -4.25        0.00
   0.00000000   0.00000000  -0.00001521            0.00        0.00       -2.24

 
     init_run     :      9.09s CPU      9.74s WALL (       1 calls)
     electrons    :    599.38s CPU    642.04s WALL (       1 calls)
     forces       :      3.61s CPU      3.96s WALL (       1 calls)
     stress       :     20.06s CPU     20.95s WALL (       1 calls)

     Called by init_run:
     wfcinit      :      6.39s CPU      6.58s WALL (       1 calls)
     potinit      :      0.62s CPU      0.67s WALL (       1 calls)
     hinit0       :      1.16s CPU      1.23s WALL (       1 calls)

     Called by electrons:
     c_bands      :    471.81s CPU    489.21s WALL (      38 calls)
     sum_band     :     86.02s CPU    100.16s WALL (      38 calls)
     v_of_rho     :      2.73s CPU      2.77s WALL (      39 calls)
     newd         :     20.71s CPU     31.87s WALL (      39 calls)
     mix_rho      :     18.46s CPU     18.65s WALL (      38 calls)

     Called by c_bands:
     init_us_2    :      4.21s CPU      4.25s WALL (    1975 calls)
     cegterg      :    443.88s CPU    460.75s WALL (     950 calls)

     Called by sum_band:
     sum_band:bec :      0.25s CPU      0.26s WALL (     950 calls)
     addusdens    :     21.81s CPU     35.01s WALL (      38 calls)

     Called by *egterg:
     h_psi        :    230.55s CPU    241.03s WALL (    3798 calls)
     s_psi        :     24.26s CPU     24.65s WALL (    3798 calls)
     g_psi        :      0.73s CPU      0.73s WALL (    2823 calls)
     cdiaghg      :    108.50s CPU    109.07s WALL (    3773 calls)

     Called by h_psi:
     h_psi:calbec :     26.89s CPU     28.12s WALL (    3798 calls)
     vloc_psi     :    177.10s CPU    180.29s WALL (    3798 calls)
     add_vuspsi   :     25.27s CPU     28.64s WALL (    3798 calls)

     General routines
     calbec       :     43.80s CPU     45.13s WALL (    4873 calls)
     fft          :      2.06s CPU      2.13s WALL (     530 calls)
     ffts         :     10.01s CPU     10.14s WALL (   17218 calls)
     fftw         :    199.26s CPU    202.80s WALL (  679262 calls)
     interpolate  :      0.16s CPU      0.19s WALL (      39 calls)
 
     Parallel routines
     fft_scatt_xy :     26.94s CPU     27.43s WALL (  697010 calls)
     fft_scatt_yz :    115.16s CPU    117.19s WALL (  697010 calls)
 
     PWSCF        :  10m33.14s CPU  11m17.79s WALL

 
   This run was terminated on:  17:22: 2   5May2021            

=------------------------------------------------------------------------------=
   JOB DONE.
=------------------------------------------------------------------------------=
[1620249722.427992] [holy7c08506:141703:0]          mpool.c:43   UCX  WARN  object 0x3f5b980 was not returned to mpool ucp_requests
[1620249722.428008] [holy7c08506:141703:0]          mpool.c:43   UCX  WARN  object 0x3f5bd00 was not returned to mpool ucp_requests
[1620249722.427327] [holy7c08411:15923:0]          mpool.c:43   UCX  WARN  object 0x2c9d300 was not returned to mpool ucp_requests
[1620249722.427343] [holy7c08411:15923:0]          mpool.c:43   UCX  WARN  object 0x2c9d680 was not returned to mpool ucp_requests
[1620249722.427769] [holy7c08602:38026:0]          mpool.c:43   UCX  WARN  object 0x3f721c0 was not returned to mpool ucp_requests
[1620249722.433462] [holy7c08601:126152:0]          mpool.c:43   UCX  WARN  object 0x37b9740 was not returned to mpool ucp_requests
[1620249722.433487] [holy7c08601:126152:0]          mpool.c:43   UCX  WARN  object 0x37b9ac0 was not returned to mpool ucp_requests
[1620249722.430756] [holy7c08507:202055:0]          mpool.c:43   UCX  WARN  object 0x31fa980 was not returned to mpool ucp_requests
[1620249722.434023] [holy7c08412:252294:0]          mpool.c:43   UCX  WARN  object 0x457c780 was not returned to mpool ucp_requests
[1620249722.427902] [holy7c08602:38025:0]          mpool.c:43   UCX  WARN  object 0x302ea40 was not returned to mpool ucp_requests
