
     Program PWSCF v.6.5 starts on  5May2021 at 17:23:48 

     This program is part of the open-source Quantum ESPRESSO suite
     for quantum simulation of materials; please cite
         "P. Giannozzi et al., J. Phys.:Condens. Matter 21 395502 (2009);
         "P. Giannozzi et al., J. Phys.:Condens. Matter 29 465901 (2017);
          URL http://www.quantum-espresso.org", 
     in publications or presentations arising from this work. More details at
     http://www.quantum-espresso.org/quote

     Parallel version (MPI), running on    20 processors

     MPI processes distributed on    17 nodes
     R & G space division:  proc/nbgrp/npool/nimage =      20
     Reading input from YBCO_Y_cleave_2.0_sep_scf.pwi
Warning: card &IONS ignored
Warning: card     ION_DYNAMICS = 'BFGS' ignored
Warning: card / ignored
Warning: card &CELL ignored
Warning: card     CELL_DYNAMICS = 'BFGS' ignored
Warning: card / ignored

     Current dimensions of program PWSCF are:
     Max number of different atomic species (ntypx) = 10
     Max number of k-points (npk) =  40000
     Max angular momentum in pseudopotentials (lmaxx) =  3

     Subspace diagonalization in iterative solution of the eigenvalue problem:
     one sub-group per band group will be used
     scalapack distributed-memory algorithm (size of sub-group:  4*  4 procs)

     Message from routine setup:
     using ibrav=0 with symmetry is DISCOURAGED, use correct ibrav instead
 
     Parallelization info
     --------------------
     sticks:   dense  smooth     PW     G-vecs:    dense   smooth      PW
     Min         150      50     14                74300    14295    2230
     Max         151      52     15                74341    14319    2275
     Sum        3015    1011    293              1486401   286073   45083
 


     bravais-lattice index     =            0
     lattice parameter (alat)  =       7.3477  a.u.
     unit-cell volume          =    4555.8304 (a.u.)^3
     number of atoms/cell      =           28
     number of atomic types    =            4
     number of electrons       =       229.00
     number of Kohn-Sham states=          138
     kinetic-energy cutoff     =      60.0000  Ry
     charge density cutoff     =     720.0000  Ry
     convergence threshold     =      1.0E-06
     mixing beta               =       0.2000
     number of iterations used =           10  local-TF  mixing
     Exchange-correlation= SLA PW PBE PBE
                           (   1   4   3   4   0   0   0)

     celldm(1)=   7.347715  celldm(2)=   0.000000  celldm(3)=   0.000000
     celldm(4)=   0.000000  celldm(5)=   0.000000  celldm(6)=   0.000000

     crystal axes: (cart. coord. in units of alat)
               a(1) = (   1.000000   0.000000   0.000000 )  
               a(2) = (   0.000000   0.975577   0.000000 )  
               a(3) = (   0.000000   0.000000  11.771964 )  

     reciprocal axes: (cart. coord. in units 2 pi/alat)
               b(1) = (  1.000000  0.000000  0.000000 )  
               b(2) = (  0.000000  1.025034  0.000000 )  
               b(3) = (  0.000000  0.000000  0.084948 )  


     PseudoPot. # 1 for Ba read from file:
     /n/holyscratch01/hoffman_lab/ruizhe/YBCO_Project/pseudo/Ba.pbe-nsp-van.UPF
     MD5 check sum: 2b9c31dd849566dd297d80989662b7a0
     Pseudo is Ultrasoft + core correction, Zval = 10.0
     Generated by new atomic code, or converted to UPF format
     Using radial grid of  907 points,  6 beta functions with: 
                l(1) =   0
                l(2) =   0
                l(3) =   1
                l(4) =   1
                l(5) =   2
                l(6) =   2
     Q(r) pseudized with  6 coefficients,  rinner =    1.200   1.200   1.200
                                                       1.200   1.200

     PseudoPot. # 2 for Cu read from file:
     /n/holyscratch01/hoffman_lab/ruizhe/YBCO_Project/pseudo/Cu.pbe-n-van_ak.UPF
     MD5 check sum: 34e3282627ffb533726feb647e090d62
     Pseudo is Ultrasoft + core correction, Zval = 11.0
     Generated by new atomic code, or converted to UPF format
     Using radial grid of  867 points,  6 beta functions with: 
                l(1) =   0
                l(2) =   0
                l(3) =   1
                l(4) =   1
                l(5) =   2
                l(6) =   2
     Q(r) pseudized with  8 coefficients,  rinner =    1.400   1.400   1.400
                                                       1.400   1.400

     PseudoPot. # 3 for O  read from file:
     /n/holyscratch01/hoffman_lab/ruizhe/YBCO_Project/pseudo/O.pbe-van_ak.UPF
     MD5 check sum: 783ce7fe4c79b6a4916957118fed0856
     Pseudo is Ultrasoft, Zval =  6.0
     Generated by new atomic code, or converted to UPF format
     Using radial grid of  737 points,  4 beta functions with: 
                l(1) =   0
                l(2) =   0
                l(3) =   1
                l(4) =   1
     Q(r) pseudized with  8 coefficients,  rinner =    0.800   0.800   0.800


     PseudoPot. # 4 for Y  read from file:
     /n/holyscratch01/hoffman_lab/ruizhe/YBCO_Project/pseudo/Y.pbe-nsp-van.UPF
     MD5 check sum: 4412fed3ab108fed87a1b7d6a69a4a38
     Pseudo is Ultrasoft + core correction, Zval = 11.0
     Generated by new atomic code, or converted to UPF format
     Using radial grid of  885 points,  6 beta functions with: 
                l(1) =   0
                l(2) =   0
                l(3) =   1
                l(4) =   1
                l(5) =   2
                l(6) =   2
     Q(r) pseudized with  6 coefficients,  rinner =    1.200   1.200   1.200
                                                       1.200   1.200

     atomic species   valence    mass     pseudopotential
        Ba            10.00   137.32700     Ba( 1.00)
        Cu            11.00    63.54600     Cu( 1.00)
        O              6.00    15.99900     O ( 1.00)
        Y             11.00    88.90584     Y ( 1.00)

      4 Sym. Ops. (no inversion) found



   Cartesian axes

     site n.     atom                  positions (alat units)
         1           O   tau(   1) = (   0.0000000   0.4877884  -0.0257983  )
         2           Cu  tau(   2) = (   0.0000000   0.0000000   0.0215779  )
         3           O   tau(   3) = (   0.0000000   0.0000000   0.5073114  )
         4           Ba  tau(   4) = (   0.4999996   0.4877884   0.5319677  )
         5           Cu  tau(   5) = (   0.0000000   0.0000000   1.0495845  )
         6           O   tau(   6) = (   0.4999996   0.0000000   1.1181579  )
         7           O   tau(   7) = (   0.0000000   0.4877884   1.1273137  )
         8           Y   tau(   8) = (   0.4999996   0.4877884   1.4938777  )
         9           O   tau(   9) = (   0.0000000   0.4877884   1.8497402  )
        10           O   tau(  10) = (   0.4999996   0.0000000   1.8692709  )
        11           Cu  tau(  11) = (   0.0000000   0.0000000   1.9417560  )
        12           Ba  tau(  12) = (   0.4999996   0.4877884   2.4526063  )
        13           O   tau(  13) = (   0.0000000   0.0000000   2.5103470  )
        14           O   tau(  14) = (   0.0000000   0.4877884   2.9968469  )
        15           Cu  tau(  15) = (   0.0000000   0.0000000   2.9968521  )
        16           O   tau(  16) = (   0.0000000   0.0000000   3.4833288  )
        17           Ba  tau(  17) = (   0.4999996   0.4877884   3.5410618  )
        18           Cu  tau(  18) = (   0.0000000   0.0000000   4.0519352  )
        19           O   tau(  19) = (   0.4999996   0.0000000   4.1244075  )
        20           O   tau(  20) = (   0.0000000   0.4877884   4.1439202  )
        21           Y   tau(  21) = (   0.4999996   0.4877884   4.4997853  )
        22           O   tau(  22) = (   0.0000000   0.4877884   5.3807203  )
        23           O   tau(  23) = (   0.4999996   0.0000000   5.3898890  )
        24           Cu  tau(  24) = (   0.0000000   0.0000000   5.4584675  )
        25           Ba  tau(  25) = (   0.4999996   0.4877884   5.9760689  )
        26           O   tau(  26) = (   0.0000000   0.0000000   6.0007253  )
        27           Cu  tau(  27) = (   0.0000000   0.0000000   6.4864305  )
        28           O   tau(  28) = (   0.0000000   0.4877884   6.5338118  )

     number of k points=    25  Gaussian smearing, width (Ry)=  0.0100
                       cart. coord. in units 2pi/alat
        k(    1) = (   0.0000000   0.0000000   0.0000000), wk =   0.0312500
        k(    2) = (   0.0000000   0.1281293   0.0000000), wk =   0.0625000
        k(    3) = (   0.0000000   0.2562585   0.0000000), wk =   0.0625000
        k(    4) = (   0.0000000   0.3843878   0.0000000), wk =   0.0625000
        k(    5) = (   0.0000000  -0.5125170   0.0000000), wk =   0.0312500
        k(    6) = (   0.1250000   0.0000000   0.0000000), wk =   0.0625000
        k(    7) = (   0.1250000   0.1281293   0.0000000), wk =   0.1250000
        k(    8) = (   0.1250000   0.2562585   0.0000000), wk =   0.1250000
        k(    9) = (   0.1250000   0.3843878   0.0000000), wk =   0.1250000
        k(   10) = (   0.1250000  -0.5125170   0.0000000), wk =   0.0625000
        k(   11) = (   0.2500000   0.0000000   0.0000000), wk =   0.0625000
        k(   12) = (   0.2500000   0.1281293   0.0000000), wk =   0.1250000
        k(   13) = (   0.2500000   0.2562585   0.0000000), wk =   0.1250000
        k(   14) = (   0.2500000   0.3843878   0.0000000), wk =   0.1250000
        k(   15) = (   0.2500000  -0.5125170   0.0000000), wk =   0.0625000
        k(   16) = (   0.3750000   0.0000000   0.0000000), wk =   0.0625000
        k(   17) = (   0.3750000   0.1281293   0.0000000), wk =   0.1250000
        k(   18) = (   0.3750000   0.2562585   0.0000000), wk =   0.1250000
        k(   19) = (   0.3750000   0.3843878   0.0000000), wk =   0.1250000
        k(   20) = (   0.3750000  -0.5125170   0.0000000), wk =   0.0625000
        k(   21) = (  -0.5000000   0.0000000   0.0000000), wk =   0.0312500
        k(   22) = (  -0.5000000   0.1281293   0.0000000), wk =   0.0625000
        k(   23) = (  -0.5000000   0.2562585   0.0000000), wk =   0.0625000
        k(   24) = (  -0.5000000   0.3843878   0.0000000), wk =   0.0625000
        k(   25) = (  -0.5000000  -0.5125170   0.0000000), wk =   0.0312500

     Dense  grid:  1486401 G-vectors     FFT dimensions: (  64,  64, 750)

     Smooth grid:   286073 G-vectors     FFT dimensions: (  40,  36, 432)

     Estimated max dynamical RAM per process >     474.62 MB

     Estimated total dynamical RAM >       9.27 GB

     Initial potential from superposition of free atoms

     starting charge  228.84827, renormalised to  229.00000

     negative rho (up, down):  8.978E-02 0.000E+00
     Starting wfcs are  201 randomized atomic wfcs

     total cpu time spent up to now is        9.9 secs

     Self-consistent Calculation

     iteration #  1     ecut=    60.00 Ry     beta= 0.20
     Davidson diagonalization with overlap
     ethr =  1.00E-02,  avg # of iterations =  2.0

     negative rho (up, down):  8.739E-02 0.000E+00

     total cpu time spent up to now is       25.7 secs

     total energy              =   -1869.44123693 Ry
     Harris-Foulkes estimate   =   -1871.01959306 Ry
     estimated scf accuracy    <      14.33097058 Ry

     iteration #  2     ecut=    60.00 Ry     beta= 0.20
     Davidson diagonalization with overlap
     ethr =  6.26E-03,  avg # of iterations =  1.0

     negative rho (up, down):  8.589E-02 0.000E+00

     total cpu time spent up to now is       40.2 secs

     total energy              =   -1868.90532409 Ry
     Harris-Foulkes estimate   =   -1869.78378331 Ry
     estimated scf accuracy    <       6.95801596 Ry

     iteration #  3     ecut=    60.00 Ry     beta= 0.20
     Davidson diagonalization with overlap
     ethr =  3.04E-03,  avg # of iterations =  1.0

     negative rho (up, down):  8.504E-02 0.000E+00

     total cpu time spent up to now is       54.7 secs

     total energy              =   -1868.60168578 Ry
     Harris-Foulkes estimate   =   -1869.11436090 Ry
     estimated scf accuracy    <       4.82084895 Ry

     iteration #  4     ecut=    60.00 Ry     beta= 0.20
     Davidson diagonalization with overlap
     ethr =  2.11E-03,  avg # of iterations =  1.0

     negative rho (up, down):  8.482E-02 0.000E+00

     total cpu time spent up to now is       69.3 secs

     total energy              =   -1868.85082020 Ry
     Harris-Foulkes estimate   =   -1868.81462461 Ry
     estimated scf accuracy    <       7.51311077 Ry

     iteration #  5     ecut=    60.00 Ry     beta= 0.20
     Davidson diagonalization with overlap
     ethr =  2.11E-03,  avg # of iterations =  1.0

     negative rho (up, down):  8.560E-02 0.000E+00

     total cpu time spent up to now is       83.6 secs

     total energy              =   -1868.38337839 Ry
     Harris-Foulkes estimate   =   -1868.87495900 Ry
     estimated scf accuracy    <      12.29391577 Ry

     iteration #  6     ecut=    60.00 Ry     beta= 0.20
     Davidson diagonalization with overlap
     ethr =  2.11E-03,  avg # of iterations =  1.0

     negative rho (up, down):  8.576E-02 0.000E+00

     total cpu time spent up to now is       97.7 secs

     total energy              =   -1868.47261509 Ry
     Harris-Foulkes estimate   =   -1868.66001950 Ry
     estimated scf accuracy    <       1.30759162 Ry

     iteration #  7     ecut=    60.00 Ry     beta= 0.20
     Davidson diagonalization with overlap
     ethr =  5.71E-04,  avg # of iterations =  5.8

     negative rho (up, down):  8.702E-02 0.000E+00

     total cpu time spent up to now is      117.8 secs

     total energy              =   -1868.51819310 Ry
     Harris-Foulkes estimate   =   -1868.57314723 Ry
     estimated scf accuracy    <       1.38544751 Ry

     iteration #  8     ecut=    60.00 Ry     beta= 0.20
     Davidson diagonalization with overlap
     ethr =  5.71E-04,  avg # of iterations =  3.6

     negative rho (up, down):  8.799E-02 0.000E+00

     total cpu time spent up to now is      135.2 secs

     total energy              =   -1868.47636555 Ry
     Harris-Foulkes estimate   =   -1868.59983673 Ry
     estimated scf accuracy    <       7.95596587 Ry

     iteration #  9     ecut=    60.00 Ry     beta= 0.20
     Davidson diagonalization with overlap
     ethr =  5.71E-04,  avg # of iterations =  1.3

     negative rho (up, down):  8.811E-02 0.000E+00

     total cpu time spent up to now is      150.0 secs

     total energy              =   -1868.47027968 Ry
     Harris-Foulkes estimate   =   -1868.51607933 Ry
     estimated scf accuracy    <       1.24680299 Ry

     iteration # 10     ecut=    60.00 Ry     beta= 0.20
     Davidson diagonalization with overlap
     ethr =  5.44E-04,  avg # of iterations =  1.0

     negative rho (up, down):  8.881E-02 0.000E+00

     total cpu time spent up to now is      164.3 secs

     total energy              =   -1868.48753874 Ry
     Harris-Foulkes estimate   =   -1868.49504106 Ry
     estimated scf accuracy    <       0.26696471 Ry

     iteration # 11     ecut=    60.00 Ry     beta= 0.20
     Davidson diagonalization with overlap
     ethr =  1.17E-04,  avg # of iterations =  6.3

     negative rho (up, down):  8.865E-02 0.000E+00

     total cpu time spent up to now is      185.5 secs

     total energy              =   -1868.49133025 Ry
     Harris-Foulkes estimate   =   -1868.49219002 Ry
     estimated scf accuracy    <       0.19569526 Ry

     iteration # 12     ecut=    60.00 Ry     beta= 0.20
     Davidson diagonalization with overlap
     ethr =  8.55E-05,  avg # of iterations =  1.0

     negative rho (up, down):  8.898E-02 0.000E+00

     total cpu time spent up to now is      199.7 secs

     total energy              =   -1868.48961306 Ry
     Harris-Foulkes estimate   =   -1868.49205519 Ry
     estimated scf accuracy    <       0.18972558 Ry

     iteration # 13     ecut=    60.00 Ry     beta= 0.20
     Davidson diagonalization with overlap
     ethr =  8.28E-05,  avg # of iterations =  1.0

     negative rho (up, down):  8.905E-02 0.000E+00

     total cpu time spent up to now is      213.8 secs

     total energy              =   -1868.48266708 Ry
     Harris-Foulkes estimate   =   -1868.49476022 Ry
     estimated scf accuracy    <       0.57068565 Ry

     iteration # 14     ecut=    60.00 Ry     beta= 0.20
     Davidson diagonalization with overlap
     ethr =  8.28E-05,  avg # of iterations =  1.3

     negative rho (up, down):  8.919E-02 0.000E+00

     total cpu time spent up to now is      228.3 secs

     total energy              =   -1868.47972213 Ry
     Harris-Foulkes estimate   =   -1868.48531512 Ry
     estimated scf accuracy    <       0.19686785 Ry

     iteration # 15     ecut=    60.00 Ry     beta= 0.20
     Davidson diagonalization with overlap
     ethr =  8.28E-05,  avg # of iterations =  1.9

     negative rho (up, down):  8.904E-02 0.000E+00

     total cpu time spent up to now is      243.5 secs

     total energy              =   -1868.48146165 Ry
     Harris-Foulkes estimate   =   -1868.48207249 Ry
     estimated scf accuracy    <       0.10600878 Ry

     iteration # 16     ecut=    60.00 Ry     beta= 0.20
     Davidson diagonalization with overlap
     c_bands:  1 eigenvalues not converged
     ethr =  4.63E-05,  avg # of iterations =  2.8

     negative rho (up, down):  8.871E-02 0.000E+00

     total cpu time spent up to now is      259.5 secs

     total energy              =   -1868.48012124 Ry
     Harris-Foulkes estimate   =   -1868.48163521 Ry
     estimated scf accuracy    <       0.07560537 Ry

     iteration # 17     ecut=    60.00 Ry     beta= 0.20
     Davidson diagonalization with overlap
     ethr =  3.30E-05,  avg # of iterations =  3.6

     negative rho (up, down):  8.859E-02 0.000E+00

     total cpu time spent up to now is      276.7 secs

     total energy              =   -1868.47963940 Ry
     Harris-Foulkes estimate   =   -1868.48057632 Ry
     estimated scf accuracy    <       0.06314694 Ry

     iteration # 18     ecut=    60.00 Ry     beta= 0.20
     Davidson diagonalization with overlap
     ethr =  2.76E-05,  avg # of iterations =  2.3

     negative rho (up, down):  8.824E-02 0.000E+00

     total cpu time spent up to now is      292.4 secs

     total energy              =   -1868.47781963 Ry
     Harris-Foulkes estimate   =   -1868.47979044 Ry
     estimated scf accuracy    <       0.05357588 Ry

     iteration # 19     ecut=    60.00 Ry     beta= 0.20
     Davidson diagonalization with overlap
     ethr =  2.34E-05,  avg # of iterations =  1.1

     negative rho (up, down):  8.899E-02 0.000E+00

     total cpu time spent up to now is      306.7 secs

     total energy              =   -1868.47775488 Ry
     Harris-Foulkes estimate   =   -1868.47867392 Ry
     estimated scf accuracy    <       0.00971594 Ry

     iteration # 20     ecut=    60.00 Ry     beta= 0.20
     Davidson diagonalization with overlap
     ethr =  4.24E-06,  avg # of iterations =  9.3

     negative rho (up, down):  9.119E-02 0.000E+00

     total cpu time spent up to now is      331.1 secs

     total energy              =   -1868.47714045 Ry
     Harris-Foulkes estimate   =   -1868.47801061 Ry
     estimated scf accuracy    <       0.01546685 Ry

     iteration # 21     ecut=    60.00 Ry     beta= 0.20
     Davidson diagonalization with overlap
     ethr =  4.24E-06,  avg # of iterations =  5.2

     negative rho (up, down):  9.163E-02 0.000E+00

     total cpu time spent up to now is      350.0 secs

     total energy              =   -1868.47668237 Ry
     Harris-Foulkes estimate   =   -1868.47729394 Ry
     estimated scf accuracy    <       0.00413748 Ry

     iteration # 22     ecut=    60.00 Ry     beta= 0.20
     Davidson diagonalization with overlap
     ethr =  1.81E-06,  avg # of iterations =  6.0

     negative rho (up, down):  9.560E-02 0.000E+00

     total cpu time spent up to now is      369.6 secs

     total energy              =   -1868.47635753 Ry
     Harris-Foulkes estimate   =   -1868.47674390 Ry
     estimated scf accuracy    <       0.00304745 Ry

     iteration # 23     ecut=    60.00 Ry     beta= 0.20
     Davidson diagonalization with overlap
     ethr =  1.33E-06,  avg # of iterations =  6.6

     negative rho (up, down):  9.590E-02 0.000E+00

     total cpu time spent up to now is      390.8 secs

     total energy              =   -1868.47614313 Ry
     Harris-Foulkes estimate   =   -1868.47642091 Ry
     estimated scf accuracy    <       0.00270323 Ry

     iteration # 24     ecut=    60.00 Ry     beta= 0.20
     Davidson diagonalization with overlap
     ethr =  1.18E-06,  avg # of iterations =  3.8

     negative rho (up, down):  9.255E-02 0.000E+00

     total cpu time spent up to now is      408.1 secs

     total energy              =   -1868.47588016 Ry
     Harris-Foulkes estimate   =   -1868.47618820 Ry
     estimated scf accuracy    <       0.00146200 Ry

     iteration # 25     ecut=    60.00 Ry     beta= 0.20
     Davidson diagonalization with overlap
     ethr =  6.38E-07,  avg # of iterations =  3.7

     negative rho (up, down):  9.115E-02 0.000E+00

     total cpu time spent up to now is      425.2 secs

     total energy              =   -1868.47574822 Ry
     Harris-Foulkes estimate   =   -1868.47591465 Ry
     estimated scf accuracy    <       0.00093641 Ry

     iteration # 26     ecut=    60.00 Ry     beta= 0.20
     Davidson diagonalization with overlap
     ethr =  4.09E-07,  avg # of iterations =  4.2

     negative rho (up, down):  9.190E-02 0.000E+00

     total cpu time spent up to now is      443.2 secs

     total energy              =   -1868.47577719 Ry
     Harris-Foulkes estimate   =   -1868.47577433 Ry
     estimated scf accuracy    <       0.00037076 Ry

     iteration # 27     ecut=    60.00 Ry     beta= 0.20
     Davidson diagonalization with overlap
     ethr =  1.62E-07,  avg # of iterations =  4.5

     negative rho (up, down):  9.009E-02 0.000E+00

     total cpu time spent up to now is      461.4 secs

     total energy              =   -1868.47576716 Ry
     Harris-Foulkes estimate   =   -1868.47579027 Ry
     estimated scf accuracy    <       0.00017395 Ry

     iteration # 28     ecut=    60.00 Ry     beta= 0.20
     Davidson diagonalization with overlap
     c_bands:  1 eigenvalues not converged
     ethr =  7.60E-08,  avg # of iterations =  3.9

     negative rho (up, down):  8.977E-02 0.000E+00

     total cpu time spent up to now is      479.0 secs

     total energy              =   -1868.47577712 Ry
     Harris-Foulkes estimate   =   -1868.47577431 Ry
     estimated scf accuracy    <       0.00007188 Ry

     iteration # 29     ecut=    60.00 Ry     beta= 0.20
     Davidson diagonalization with overlap
     ethr =  3.14E-08,  avg # of iterations =  4.0

     negative rho (up, down):  8.964E-02 0.000E+00

     total cpu time spent up to now is      497.2 secs

     total energy              =   -1868.47578664 Ry
     Harris-Foulkes estimate   =   -1868.47578144 Ry
     estimated scf accuracy    <       0.00002544 Ry

     iteration # 30     ecut=    60.00 Ry     beta= 0.20
     Davidson diagonalization with overlap
     ethr =  1.11E-08,  avg # of iterations =  3.9

     negative rho (up, down):  8.964E-02 0.000E+00

     total cpu time spent up to now is      514.9 secs

     total energy              =   -1868.47578902 Ry
     Harris-Foulkes estimate   =   -1868.47578792 Ry
     estimated scf accuracy    <       0.00001419 Ry

     iteration # 31     ecut=    60.00 Ry     beta= 0.20
     Davidson diagonalization with overlap
     ethr =  6.20E-09,  avg # of iterations =  2.0

     negative rho (up, down):  8.959E-02 0.000E+00

     total cpu time spent up to now is      530.4 secs

     total energy              =   -1868.47578925 Ry
     Harris-Foulkes estimate   =   -1868.47578963 Ry
     estimated scf accuracy    <       0.00001168 Ry

     iteration # 32     ecut=    60.00 Ry     beta= 0.20
     Davidson diagonalization with overlap
     ethr =  5.10E-09,  avg # of iterations =  1.0

     negative rho (up, down):  8.958E-02 0.000E+00

     total cpu time spent up to now is      544.7 secs

     total energy              =   -1868.47578938 Ry
     Harris-Foulkes estimate   =   -1868.47578960 Ry
     estimated scf accuracy    <       0.00000279 Ry

     iteration # 33     ecut=    60.00 Ry     beta= 0.20
     Davidson diagonalization with overlap
     ethr =  1.22E-09,  avg # of iterations =  2.8

     negative rho (up, down):  8.968E-02 0.000E+00

     total cpu time spent up to now is      561.4 secs

     total energy              =   -1868.47578927 Ry
     Harris-Foulkes estimate   =   -1868.47578958 Ry
     estimated scf accuracy    <       0.00000178 Ry

     iteration # 34     ecut=    60.00 Ry     beta= 0.20
     Davidson diagonalization with overlap
     ethr =  7.75E-10,  avg # of iterations =  1.8

     negative rho (up, down):  8.970E-02 0.000E+00

     total cpu time spent up to now is      576.2 secs

     End of self-consistent calculation

          k = 0.0000 0.0000 0.0000 ( 35655 PWs)   bands (ev):

   -41.2063 -38.0348 -23.0534 -22.6916 -22.5547 -22.4088 -21.2888 -21.0892
   -21.0871 -18.5699 -18.0396 -18.0298 -16.2738 -15.3659 -15.3495 -14.5281
   -14.4058 -14.3888 -14.1751 -14.1514 -14.1392 -13.8899 -13.6730 -13.6417
   -13.6123 -13.3906 -13.1100  -8.3715  -7.9848  -7.9766  -7.9127  -7.8266
    -7.6839  -7.6572  -7.5405  -7.5086  -7.4897  -7.4318  -7.3994  -3.0376
    -3.0120  -2.5835  -1.9946  -1.9676  -1.9612  -1.8145  -1.7736  -1.7582
    -1.7065  -1.6407  -1.6297  -0.8969  -0.8115  -0.7887  -0.7628  -0.7463
    -0.4969  -0.4525  -0.3722  -0.3624  -0.3186  -0.2718  -0.2564  -0.0214
     0.0162   0.0529   0.0593   0.0893   0.0947   0.1988   0.2181   0.2307
     0.2455   0.3127   0.3692   0.3760   0.4828   0.4850   0.4868   0.5279
     0.5961   0.6177   0.6292   0.6313   0.6422   0.6535   0.6910   0.7297
     0.7475   0.7766   0.8000   0.9802   1.1572   1.1859   1.3171   1.3505
     1.3724   1.4293   1.4508   1.5237   1.5290   1.5726   1.5894   1.7527
     1.9705   2.0146   2.0711   2.1250   2.1314   2.1723   2.1805   2.2695
     2.3485   2.4516   2.4877   2.6111   2.6232   2.6679   2.7569   2.9173
     4.5795   5.1065   5.3578   5.5178   5.6987   5.7482   6.0956   6.6414
     6.6582   6.7650   6.9230   7.0220   7.1098   7.5109   7.9609   8.2313
     8.2612   8.2631

          k = 0.0000 0.1281 0.0000 ( 35657 PWs)   bands (ev):

   -41.2046 -38.0325 -23.0327 -22.6700 -22.5339 -22.3868 -21.2846 -21.1227
   -21.0869 -18.5340 -18.1341 -18.0364 -16.2246 -15.3673 -15.2572 -14.4853
   -14.4137 -14.3528 -14.1843 -14.1315 -14.1208 -13.9361 -13.6783 -13.6715
   -13.6452 -13.4541 -13.1413  -8.3599  -7.9971  -7.9469  -7.8954  -7.8143
    -7.6767  -7.6426  -7.5234  -7.5099  -7.4697  -7.4199  -7.3894  -3.1333
    -2.9889  -2.4912  -2.0980  -2.0939  -1.9453  -1.9443  -1.7997  -1.7750
    -1.6425  -1.6341  -1.6142  -1.2792  -1.2454  -0.8921  -0.8765  -0.8486
    -0.7460  -0.7393  -0.6933  -0.6544  -0.5759  -0.3518  -0.3472  -0.3418
    -0.1226  -0.0940  -0.0354  -0.0268  -0.0162   0.0032   0.0715   0.1508
     0.2249   0.3359   0.3577   0.3806   0.3883   0.4796   0.5050   0.5284
     0.5571   0.6132   0.6313   0.6449   0.6982   0.7082   0.7181   0.8771
     0.9337   0.9734   0.9858   1.0006   1.1165   1.1306   1.2629   1.3188
     1.5266   1.5439   1.5654   1.6578   1.6591   1.6866   1.7718   1.7749
     1.8803   1.9457   2.0071   2.0474   2.1182   2.1241   2.1453   2.2612
     2.3229   2.5859   2.6121   2.6227   2.8912   3.0260   3.0944   3.1852
     4.6936   5.1513   5.5508   5.7332   5.8373   5.9325   6.2563   6.6712
     6.6998   7.0848   7.2277   7.3325   7.4395   7.8135   8.1859   8.2027
     8.4147   8.4789

          k = 0.0000 0.2563 0.0000 ( 35678 PWs)   bands (ev):

   -41.2004 -38.0269 -22.9818 -22.6170 -22.4827 -22.3328 -21.2942 -21.1868
   -21.0813 -18.4428 -18.3592 -18.0286 -16.0914 -15.4298 -15.0094 -14.4901
   -14.3736 -14.3353 -14.2412 -14.0557 -14.0547 -14.0026 -13.8118 -13.6554
   -13.6201 -13.6060 -13.2351  -8.3307  -8.0393  -7.8543  -7.8523  -7.7843
    -7.7177  -7.5537  -7.5394  -7.4815  -7.4633  -7.3726  -7.2833  -3.3813
    -2.8417  -2.5314  -2.4353  -2.3434  -2.2342  -2.0290  -1.9242  -1.9008
    -1.8038  -1.7671  -1.6532  -1.6329  -1.6111  -1.5665  -1.5614  -1.2576
    -1.1527  -0.8772  -0.8209  -0.8004  -0.7375  -0.6840  -0.6761  -0.5170
    -0.5054  -0.3989  -0.3140  -0.2638  -0.2225  -0.2079  -0.1084  -0.0450
     0.0368   0.0566   0.1847   0.2339   0.2957   0.3216   0.3960   0.4220
     0.5002   0.6486   0.6669   0.6804   0.6854   0.7494   0.8559   0.8674
     1.1735   1.2036   1.2716   1.3068   1.3512   1.4100   1.4365   1.4658
     1.5954   1.6390   1.6492   1.7032   1.7263   1.8168   1.8326   1.8815
     1.9062   1.9202   1.9719   2.0091   2.0904   2.2271   2.3490   2.3741
     2.4401   2.6645   2.6699   2.7448   3.2651   3.3716   3.4652   3.8700
     4.8495   5.2110   5.2690   6.5141   6.6317   6.6975   6.7920   6.8428
     6.8848   7.9270   7.9715   8.0726   8.1399   8.2129   8.4025   8.4770
     8.8162   8.8688

          k = 0.0000 0.3844 0.0000 ( 35608 PWs)   bands (ev):

   -41.1962 -38.0213 -22.9295 -22.5624 -22.4302 -22.2772 -21.3531 -21.1984
   -21.0756 -18.5571 -18.3446 -18.0208 -15.9100 -15.5480 -14.7602 -14.6326
   -14.4120 -14.3497 -14.2411 -14.0275 -14.0065 -13.9404 -13.8530 -13.7531
   -13.5964 -13.5597 -13.3921  -8.2973  -8.0773  -7.8143  -7.7530  -7.7520
    -7.7492  -7.5942  -7.4998  -7.4379  -7.4304  -7.2704  -7.1709  -3.6159
    -3.0037  -2.8800  -2.6571  -2.5929  -2.5226  -2.4802  -2.3012  -2.2522
    -2.0062  -1.8322  -1.8021  -1.7880  -1.6531  -1.5974  -1.5336  -1.4667
    -1.4202  -1.1836  -1.1383  -0.9592  -0.7953  -0.7787  -0.7553  -0.6991
    -0.6529  -0.6390  -0.5937  -0.5052  -0.4600  -0.3414  -0.3158  -0.2467
    -0.2069  -0.1770  -0.0183   0.0440   0.0875   0.2125   0.3105   0.5187
     0.6091   0.6398   0.6492   0.6613   0.7085   0.7750   1.0098   1.0915
     1.1215   1.2122   1.2878   1.3707   1.4020   1.4759   1.5486   1.5836
     1.6693   1.6828   1.6869   1.6929   1.8315   1.9140   1.9312   1.9634
     2.0045   2.0684   2.1989   2.2068   2.3178   2.3615   2.5193   2.6227
     2.7000   2.7080   2.7566   2.7912   3.3425   3.4280   3.5780   4.4189
     4.9160   5.0441   5.3315   6.8568   7.0720   7.3054   7.5172   7.6718
     7.7300   7.9600   8.0479   8.4540   8.7242   8.9025   8.9297   8.9644
     9.0881   9.1994

          k = 0.0000-0.5125 0.0000 ( 35730 PWs)   bands (ev):

   -41.1945 -38.0190 -22.9075 -22.5394 -22.4080 -22.2537 -21.3855 -21.1943
   -21.0733 -18.6330 -18.3014 -18.0176 -15.7410 -15.6930 -14.7134 -14.6285
   -14.4569 -14.4153 -14.1770 -14.0438 -14.0160 -13.9685 -13.8091 -13.6288
   -13.5953 -13.5651 -13.5222  -8.2810  -8.0935  -7.7982  -7.7623  -7.7334
    -7.7104  -7.6120  -7.5129  -7.4196  -7.3833  -7.2265  -7.1223  -3.7137
    -3.2382  -3.0293  -2.7917  -2.7532  -2.7120  -2.4811  -2.2563  -2.2535
    -2.2266  -2.0392  -1.8669  -1.8390  -1.7199  -1.5183  -1.4794  -1.4509
    -1.3965  -1.3014  -1.2568  -1.0202  -0.9438  -0.9091  -0.8017  -0.7904
    -0.7646  -0.6096  -0.5681  -0.5166  -0.5121  -0.4346  -0.4002  -0.3531
    -0.2939  -0.2704  -0.2312  -0.0155  -0.0108   0.2241   0.3143   0.5899
     0.6336   0.6368   0.6398   0.6424   0.7145   0.7821   1.0783   1.1749
     1.1875   1.2009   1.2120   1.3189   1.4530   1.4722   1.5760   1.6184
     1.6228   1.6602   1.6811   1.7191   1.8329   1.8715   1.9356   2.1196
     2.1397   2.2235   2.2249   2.3567   2.4360   2.5575   2.6165   2.6208
     2.6475   2.7278   2.9190   2.9458   3.2060   3.3049   3.7145   4.6122
     4.9044   4.9614   5.3882   6.8802   7.4449   7.5007   7.8415   7.9175
     7.9321   8.0121   8.1226   8.3433   8.8413   9.0139   9.2811   9.2889
     9.3383   9.5244

          k = 0.1250 0.0000 0.0000 ( 35698 PWs)   bands (ev):

   -41.2050 -38.0330 -23.0359 -22.6732 -22.5370 -22.3899 -21.2856 -21.1212
   -21.0854 -18.5374 -18.1397 -18.0273 -16.2249 -15.3660 -15.2504 -14.5565
   -14.4330 -14.3655 -14.2230 -14.1662 -14.1294 -13.9191 -13.6736 -13.6635
   -13.6407 -13.4214 -13.1413  -8.3931  -7.9649  -7.9455  -7.9214  -7.8310
    -7.6488  -7.6229  -7.5557  -7.4709  -7.4575  -7.3921  -7.3640  -3.1287
    -2.9679  -2.4986  -2.0881  -2.0291  -1.9118  -1.9073  -1.7958  -1.7572
    -1.6958  -1.6631  -1.6526  -1.0808  -0.8764  -0.8523  -0.8387  -0.7788
    -0.7406  -0.5047  -0.4963  -0.3705  -0.3667  -0.3570  -0.2654  -0.2098
    -0.0687  -0.0569  -0.0201   0.0349   0.0393   0.0543   0.1507   0.2202
     0.2215   0.2708   0.3293   0.3554   0.4927   0.5077   0.5276   0.5615
     0.5975   0.6005   0.6212   0.6311   0.6461   0.7404   0.7421   0.7570
     0.7802   0.8082   0.9312   1.0335   1.0583   1.1083   1.2265   1.3315
     1.3354   1.3566   1.4540   1.5382   1.6028   1.6202   1.6937   1.8095
     1.8892   2.0510   2.0560   2.0642   2.1080   2.1532   2.2164   2.2898
     2.3750   2.4272   2.5374   2.5865   2.6655   2.7995   2.8581   3.0057
     4.7001   5.0640   5.5550   5.6009   5.6642   5.9357   6.2578   6.4716
     6.6988   7.0031   7.1525   7.2441   7.4407   7.7840   8.1710   8.2437
     8.4071   8.5473

          k = 0.1250 0.1281 0.0000 ( 35686 PWs)   bands (ev):

   -41.2033 -38.0307 -23.0158 -22.6523 -22.5168 -22.3687 -21.2816 -21.1276
   -21.1119 -18.5019 -18.1434 -18.1223 -16.1772 -15.3801 -15.1427 -14.5107
   -14.4307 -14.3416 -14.2196 -14.1384 -14.1017 -13.9726 -13.7066 -13.6728
   -13.6387 -13.4733 -13.1692  -8.3783  -8.1156  -7.9095  -7.8505  -7.7976
    -7.7934  -7.6252  -7.5737  -7.5059  -7.4990  -7.3354  -7.2433  -3.2561
    -2.9243  -2.4198  -2.1957  -2.1446  -1.9445  -1.9362  -1.8322  -1.7927
    -1.7438  -1.6385  -1.5738  -1.2982  -1.2297  -1.2064  -1.0601  -0.8890
    -0.8860  -0.8715  -0.7167  -0.6908  -0.5337  -0.4769  -0.4061  -0.3591
    -0.3046  -0.2441  -0.1374  -0.0601  -0.0297   0.0120   0.1172   0.1565
     0.2452   0.2767   0.3387   0.3691   0.3723   0.4195   0.4575   0.5379
     0.5616   0.5850   0.5879   0.6427   0.6830   0.6974   0.7217   0.9330
     0.9607   0.9693   1.0710   1.1244   1.1354   1.2282   1.2893   1.3345
     1.3499   1.5409   1.5736   1.5754   1.6331   1.6876   1.7586   1.9283
     1.9287   1.9653   1.9906   2.0283   2.0605   2.1719   2.2913   2.3109
     2.3957   2.5732   2.7809   2.9356   3.0423   3.0760   3.1069   3.2059
     4.8013   5.1136   5.4384   5.8812   5.9610   6.0731   6.4085   6.5553
     6.7124   7.3136   7.4532   7.5456   7.6995   8.0241   8.1524   8.3679
     8.5679   8.6717

          k = 0.1250 0.2563 0.0000 ( 35740 PWs)   bands (ev):

   -41.1991 -38.0251 -22.9666 -22.6012 -22.4673 -22.3167 -21.2909 -21.1887
   -21.1090 -18.4121 -18.3547 -18.1240 -16.0485 -15.4324 -14.8974 -14.4751
   -14.3901 -14.3348 -14.2426 -14.0590 -14.0375 -14.0253 -13.8124 -13.6467
   -13.6119 -13.6023 -13.2526  -8.3437  -8.2259  -7.9204  -7.8546  -7.8226
    -7.7579  -7.7284  -7.6615  -7.4862  -7.4549  -7.2981  -7.1991  -3.5128
    -2.8348  -2.6296  -2.4414  -2.3235  -2.1923  -2.0435  -1.9441  -1.9109
    -1.8420  -1.7603  -1.7593  -1.7506  -1.6475  -1.6345  -1.5578  -1.5050
    -1.1724  -1.0022  -0.8789  -0.8661  -0.7453  -0.7278  -0.7084  -0.6297
    -0.5769  -0.5051  -0.4575  -0.2377  -0.2018  -0.1696  -0.1154  -0.1069
     0.0362   0.0614   0.1900   0.2695   0.3173   0.3973   0.4704   0.4761
     0.5559   0.5739   0.5821   0.6556   0.7170   0.7173   0.8394   0.9932
     1.0699   1.2925   1.3149   1.3979   1.4140   1.4904   1.5105   1.5232
     1.5399   1.5716   1.6940   1.7343   1.7872   1.8047   1.8203   1.8537
     1.9541   1.9610   2.0781   2.1898   2.2954   2.3217   2.3545   2.4101
     2.5063   2.8103   3.0517   3.1491   3.3544   3.3762   3.4876   3.8614
     4.9531   5.1603   5.2013   6.5191   6.6852   6.7077   6.7532   6.8042
     6.9836   7.9219   8.1388   8.1869   8.3148   8.3514   8.5111   8.6043
     8.8558   8.9486

          k = 0.1250 0.3844 0.0000 ( 35733 PWs)   bands (ev):

   -41.1949 -38.0196 -22.9160 -22.5486 -22.4166 -22.2632 -21.3498 -21.2013
   -21.1018 -18.5511 -18.3152 -18.1141 -15.8744 -15.5371 -14.6585 -14.5876
   -14.3850 -14.3207 -14.2354 -14.0657 -14.0048 -13.9249 -13.8230 -13.7340
   -13.5924 -13.5570 -13.3940  -8.3115  -8.2422  -7.9251  -7.8570  -7.8236
    -7.7555  -7.7317  -7.6728  -7.5029  -7.4488  -7.3434  -7.2461  -3.7595
    -3.0315  -2.9508  -2.7088  -2.6985  -2.5188  -2.4700  -2.3154  -2.2353
    -2.1045  -1.9824  -1.8641  -1.8019  -1.7006  -1.6836  -1.5441  -1.4632
    -1.3649  -1.1795  -1.0888  -1.0849  -0.9118  -0.9065  -0.8444  -0.7641
    -0.7382  -0.5928  -0.5632  -0.5173  -0.3861  -0.3519  -0.3471  -0.3457
    -0.2067  -0.1814   0.0850   0.1955   0.2804   0.3411   0.4572   0.5503
     0.5890   0.6018   0.6826   0.7078   0.7244   0.7449   0.9615   1.0829
     1.1671   1.2832   1.3446   1.4005   1.4204   1.5406   1.6033   1.6417
     1.6574   1.7227   1.7385   1.8431   1.8486   1.9531   1.9784   2.0484
     2.0923   2.1940   2.3348   2.3793   2.3919   2.5416   2.6286   2.7306
     2.7612   2.8357   3.0688   3.1281   3.3661   3.4340   3.6498   4.3777
     4.9643   4.9818   5.3605   6.7350   6.9568   7.2122   7.4016   7.5428
     7.6152   7.8570   8.1535   8.6212   8.6918   8.8980   8.9414   9.0886
     9.2045   9.2681

          k = 0.1250-0.5125 0.0000 ( 35736 PWs)   bands (ev):

   -41.1932 -38.0172 -22.8947 -22.5265 -22.3952 -22.2406 -21.3823 -21.1977
   -21.0987 -18.6266 -18.2727 -18.1100 -15.7124 -15.6724 -14.6726 -14.5111
   -14.4162 -14.3805 -14.1413 -14.0567 -14.0152 -13.9890 -13.7837 -13.6186
   -13.5706 -13.5638 -13.5256  -8.2973  -8.2238  -7.8998  -7.8952  -7.8098
    -7.7423  -7.7220  -7.6504  -7.5509  -7.4327  -7.3843  -7.2930  -3.8635
    -3.2338  -3.1375  -2.8499  -2.7450  -2.7062  -2.5135  -2.5042  -2.4859
    -2.1123  -2.0096  -1.8819  -1.8359  -1.6461  -1.6029  -1.5594  -1.4214
    -1.4070  -1.3330  -1.2824  -1.1464  -0.9758  -0.9405  -0.8117  -0.8055
    -0.7963  -0.6868  -0.6207  -0.5285  -0.4576  -0.4314  -0.4292  -0.4036
    -0.2967  -0.2708   0.0550   0.1598   0.2099   0.2874   0.4685   0.5518
     0.6121   0.6275   0.6990   0.7117   0.7795   0.7955   0.9991   1.1614
     1.1794   1.2747   1.3039   1.4238   1.4323   1.5286   1.5393   1.6257
     1.6548   1.7369   1.7664   1.8136   1.8565   2.0018   2.0762   2.2080
     2.2314   2.3474   2.3834   2.5906   2.6138   2.6327   2.7807   2.7999
     2.8980   2.9293   2.9856   3.0010   3.2617   3.3228   3.7608   4.5581
     4.9024   4.9460   5.4339   6.7639   7.0685   7.5826   7.6418   7.6852
     7.7818   7.9351   7.9620   8.4487   8.8571   9.2001   9.3704   9.3861
     9.5092   9.5686

          k = 0.2500 0.0000 0.0000 ( 35766 PWs)   bands (ev):

   -41.2018 -38.0287 -22.9931 -22.6280 -22.4935 -22.3436 -21.2913 -21.1831
   -21.0811 -18.4556 -18.3546 -18.0212 -16.0935 -15.4238 -14.9863 -14.6398
   -14.5396 -14.4156 -14.3338 -14.1130 -14.0922 -13.9539 -13.7885 -13.6678
   -13.6327 -13.4768 -13.2322  -8.4297  -7.9341  -7.9165  -7.8681  -7.8287
    -7.5788  -7.5654  -7.5376  -7.4074  -7.3775  -7.3241  -7.2759  -3.3179
    -2.8351  -2.3971  -2.3506  -2.2976  -1.9519  -1.9247  -1.8052  -1.7674
    -1.6957  -1.6607  -1.5679  -1.5618  -1.3239  -0.9798  -0.9557  -0.8477
    -0.8452  -0.8041  -0.6041  -0.5991  -0.5559  -0.4537  -0.3813  -0.3535
    -0.3438  -0.3303  -0.2692  -0.2234  -0.0516  -0.0465   0.0515   0.1756
     0.1994   0.2766   0.3321   0.3420   0.3643   0.4695   0.5398   0.5421
     0.5465   0.5875   0.6067   0.6075   0.7574   0.7581   0.7780   0.8539
     0.8602   0.8979   0.9233   1.0692   1.1756   1.1781   1.1959   1.3185
     1.3902   1.4045   1.4879   1.6432   1.6793   1.6950   1.7350   1.7508
     1.8881   1.8968   1.9027   1.9631   2.0587   2.1079   2.2174   2.2879
     2.3580   2.5846   2.6359   2.6766   2.7127   2.9368   3.0808   3.2697
     4.8314   4.9921   5.4063   6.0095   6.0730   6.3545   6.6191   6.7501
     6.7654   7.6308   7.7136   7.8299   8.0395   8.1980   8.2434   8.5167
     8.8673   9.0190

          k = 0.2500 0.1281 0.0000 ( 35748 PWs)   bands (ev):

   -41.2001 -38.0264 -22.9746 -22.6090 -22.4751 -22.3244 -21.2872 -21.1845
   -21.1123 -18.4215 -18.3489 -18.1213 -16.0502 -15.4278 -14.8813 -14.5861
   -14.5114 -14.3943 -14.3091 -14.0632 -14.0629 -14.0192 -13.7957 -13.6574
   -13.6217 -13.5054 -13.2500  -8.4233  -8.1496  -7.9398  -7.8631  -7.8237
    -7.7557  -7.6479  -7.6299  -7.5069  -7.4248  -7.2719  -7.1689  -3.4707
    -2.8300  -2.5334  -2.3545  -2.2669  -1.9509  -1.9468  -1.8870  -1.8469
    -1.7978  -1.7792  -1.6212  -1.5516  -1.4871  -1.3211  -1.1708  -1.0128
    -0.9171  -0.8830  -0.8687  -0.7590  -0.7309  -0.7115  -0.6932  -0.6241
    -0.5576  -0.3802  -0.2393  -0.2177  -0.1756  -0.1287   0.0833   0.1564
     0.2630   0.3049   0.3198   0.3548   0.3770   0.3881   0.4575   0.4936
     0.5340   0.5496   0.5770   0.6923   0.8000   0.8076   0.8243   0.9068
     0.9454   0.9550   1.0514   1.1356   1.3168   1.3543   1.4159   1.4270
     1.4531   1.5236   1.5770   1.6202   1.6390   1.6809   1.8022   1.8322
     1.8408   1.8530   1.9593   2.0520   2.1612   2.1934   2.4190   2.4225
     2.4563   2.8629   3.0630   3.0909   3.0978   3.1927   3.2919   3.4091
     4.9080   5.0352   5.2793   6.2518   6.3120   6.3620   6.6420   6.7556
     6.8796   7.8892   7.9651   7.9816   8.0950   8.3045   8.4953   8.6204
     8.8768   9.0568

          k = 0.2500 0.2563 0.0000 ( 35777 PWs)   bands (ev):

   -41.1960 -38.0208 -22.9293 -22.5625 -22.4297 -22.2773 -21.2887 -21.2209
   -21.1406 -18.3552 -18.3356 -18.3186 -15.9347 -15.4523 -14.6495 -14.4698
   -14.4264 -14.3504 -14.2593 -14.1633 -13.9958 -13.9275 -13.8195 -13.6249
   -13.5911 -13.5877 -13.3048  -8.4549  -8.3531  -8.1266  -7.9489  -7.8787
    -7.8725  -7.8705  -7.7652  -7.5221  -7.5010  -7.3674  -7.2681  -3.8121
    -2.9529  -2.8126  -2.5774  -2.3829  -2.2617  -2.1265  -2.0323  -2.0283
    -1.9607  -1.9058  -1.8767  -1.7514  -1.6558  -1.6394  -1.5172  -1.5003
    -1.3930  -1.2928  -1.2839  -1.1256  -0.8311  -0.7590  -0.7150  -0.6343
    -0.5684  -0.5290  -0.4945  -0.3896  -0.2422  -0.2368  -0.0871  -0.0808
     0.0174   0.0362   0.0530   0.2050   0.2530   0.4187   0.5215   0.6357
     0.6661   0.6755   0.7629   0.8098   0.8646   0.8780   0.9376   0.9717
     1.3186   1.3441   1.4047   1.4129   1.4767   1.4852   1.5220   1.5771
     1.5926   1.6788   1.7490   1.8051   1.8519   1.8541   1.9223   1.9481
     2.0271   2.0706   2.1757   2.2403   2.3199   2.3286   2.4501   2.5009
     2.9512   3.3431   3.3581   3.4414   3.4730   3.6620   3.8454   3.8846
     4.8880   5.0697   5.3055   6.4798   6.6740   6.7001   6.7654   6.8580
     7.2391   7.7178   8.4111   8.4984   8.5640   8.7128   8.8845   8.9436
     9.0656   9.1568

          k = 0.2500 0.3844 0.0000 ( 35801 PWs)   bands (ev):

   -41.1918 -38.0153 -22.8831 -22.5150 -22.3834 -22.2290 -21.3421 -21.2388
   -21.1325 -18.5366 -18.3191 -18.2401 -15.7828 -15.5188 -14.5257 -14.3970
   -14.3204 -14.2401 -14.2270 -14.2150 -13.9503 -13.8751 -13.7448 -13.6875
   -13.5812 -13.5518 -13.4009  -8.5419  -8.3557  -8.2333  -8.1066  -8.0296
    -7.9802  -7.8514  -7.7731  -7.7588  -7.5847  -7.5108  -7.4724  -4.1377
    -3.3669  -2.9658  -2.8608  -2.8288  -2.6701  -2.5436  -2.4435  -2.3589
    -2.0547  -2.0044  -1.9349  -1.8877  -1.8101  -1.7623  -1.7559  -1.5335
    -1.4747  -1.4669  -1.3009  -1.2010  -0.9384  -0.8256  -0.7857  -0.7447
    -0.7218  -0.6281  -0.4794  -0.4560  -0.4103  -0.3873  -0.2505  -0.2207
    -0.2179  -0.1704   0.0086   0.1776   0.2922   0.4234   0.5607   0.7519
     0.7613   0.8215   0.8560   0.9008   0.9895   1.0264   1.1287   1.1464
     1.3879   1.4043   1.4345   1.4888   1.6073   1.6904   1.6959   1.8169
     1.8517   1.8649   1.8880   1.9147   1.9444   2.0236   2.0643   2.1150
     2.1544   2.2352   2.3595   2.4079   2.5052   2.6645   2.6954   2.8133
     3.1898   3.2729   3.3621   3.5285   3.7509   3.9300   4.1618   4.3071
     4.8446   4.9511   5.5361   6.2831   6.6914   6.9314   7.0673   7.2071
     7.2470   7.9989   8.4827   8.7858   8.8230   8.9735   9.2300   9.2982
     9.3881   9.5412

          k = 0.2500-0.5125 0.0000 ( 35798 PWs)   bands (ev):

   -41.1901 -38.0130 -22.8636 -22.4949 -22.3639 -22.2087 -21.3747 -21.2369
   -21.1272 -18.6111 -18.3133 -18.1994 -15.6419 -15.6258 -14.5691 -14.3129
   -14.2942 -14.2497 -14.1993 -14.0506 -13.9956 -13.9455 -13.7203 -13.5976
   -13.5604 -13.5310 -13.5115  -8.5302  -8.3483  -8.2311  -8.2179  -8.0468
    -7.9670  -7.9182  -7.8375  -7.7721  -7.7107  -7.6637  -7.4631  -4.2711
    -3.5302  -3.1862  -3.0395  -2.8842  -2.7493  -2.7139  -2.6824  -2.5744
    -2.0493  -2.0035  -1.9208  -1.8835  -1.8771  -1.8345  -1.7510  -1.6468
    -1.4728  -1.4465  -1.3057  -1.2214  -1.0498  -0.8764  -0.7963  -0.7825
    -0.7640  -0.6061  -0.5410  -0.5042  -0.4163  -0.3910  -0.3228  -0.2746
    -0.2702  -0.2200  -0.0062   0.1683   0.3291   0.4284   0.5796   0.7699
     0.7798   0.8324   0.9562   0.9971   1.0101   1.0836   1.2079   1.2764
     1.3965   1.4330   1.4959   1.5323   1.6545   1.6913   1.6920   1.7610
     1.7705   1.9306   1.9707   1.9805   2.0397   2.0427   2.1138   2.1819
     2.2468   2.3234   2.5388   2.6086   2.6248   2.8431   2.8690   2.9770
     3.1145   3.2162   3.2458   3.5740   3.8087   3.9844   4.2184   4.4985
     4.8192   4.8737   5.6226   6.1791   6.6898   6.8822   7.0196   7.1626
     7.9286   8.0982   8.1487   8.7517   8.9169   9.4095   9.4102   9.6163
     9.6369   9.7831

          k = 0.3750 0.0000 0.0000 ( 35770 PWs)   bands (ev):

   -41.1987 -38.0243 -22.9492 -22.5817 -22.4491 -22.2961 -21.3353 -21.2040
   -21.0768 -18.5438 -18.3669 -18.0151 -15.9191 -15.5311 -14.7530 -14.7380
   -14.6504 -14.5416 -14.4489 -14.1000 -13.9465 -13.9414 -13.9036 -13.6562
   -13.6182 -13.5101 -13.3694  -8.4514  -7.9341  -7.8690  -7.8234  -7.7875
    -7.5602  -7.5195  -7.4483  -7.3691  -7.2940  -7.2717  -7.1833  -3.5057
    -2.7171  -2.6177  -2.5675  -2.2417  -2.1831  -1.9920  -1.8740  -1.7983
    -1.7926  -1.6777  -1.6065  -1.5398  -1.5394  -1.2865  -1.0778  -0.9525
    -0.8636  -0.8410  -0.8375  -0.8281  -0.7247  -0.7016  -0.6287  -0.5027
    -0.4929  -0.4394  -0.3380  -0.3294  -0.2506  -0.1126  -0.0873  -0.0061
     0.0581   0.1843   0.1914   0.2587   0.4655   0.5246   0.5626   0.5667
     0.5804   0.5932   0.5940   0.7421   0.8018   0.8168   0.8380   0.8889
     0.8997   0.9358   1.0023   1.0028   1.0390   1.1149   1.2307   1.3967
     1.4765   1.5594   1.5687   1.6206   1.6504   1.7322   1.7642   1.8234
     1.9102   1.9562   1.9961   2.0182   2.0215   2.0629   2.0880   2.3426
     2.3679   2.6120   2.6337   2.7014   2.7531   3.0431   3.1242   3.5743
     4.6221   5.1592   5.2462   6.6453   6.7020   6.7166   6.8103   7.0266
     7.3552   7.9870   8.1465   8.1540   8.2698   8.5034   8.5950   8.9080
     9.0607   9.2210

          k = 0.3750 0.1281 0.0000 ( 35738 PWs)   bands (ev):

   -41.1970 -38.0220 -22.9325 -22.5647 -22.4323 -22.2790 -21.3313 -21.2059
   -21.1069 -18.5366 -18.3340 -18.1135 -15.8825 -15.5224 -14.6950 -14.6650
   -14.5681 -14.4971 -14.4057 -14.0657 -14.0136 -13.8981 -13.8812 -13.6397
   -13.6023 -13.5206 -13.3730  -8.4477  -8.0882  -7.9348  -7.8555  -7.8136
    -7.7663  -7.5964  -7.5874  -7.4850  -7.4808  -7.3335  -7.2256  -3.6746
    -2.8648  -2.7174  -2.6226  -2.2608  -2.2092  -2.1203  -1.9630  -1.9058
    -1.8089  -1.7877  -1.6872  -1.5726  -1.4393  -1.3516  -1.2086  -1.1366
    -1.1066  -1.0949  -0.8971  -0.8859  -0.8794  -0.7885  -0.7699  -0.7093
    -0.6300  -0.4823  -0.4747  -0.3968  -0.3792  -0.1737   0.0050   0.1148
     0.1681   0.2632   0.2726   0.3130   0.3551   0.3656   0.4849   0.5276
     0.5387   0.5946   0.6964   0.7526   0.8841   0.8978   0.9082   0.9931
     1.0004   1.0108   1.0387   1.2117   1.2682   1.2963   1.3449   1.4545
     1.4890   1.5564   1.6207   1.7128   1.7152   1.7229   1.7909   1.8076
     1.8844   1.9291   2.0225   2.0582   2.0932   2.2006   2.3907   2.5764
     2.6376   2.9746   3.0868   3.1167   3.1201   3.3410   3.3540   3.6660
     4.6403   5.1103   5.2666   6.5463   6.7648   6.7760   6.8463   7.0627
     7.4446   7.8064   8.2221   8.2589   8.3069   8.7310   8.8750   8.9379
     9.0290   9.2477

          k = 0.3750 0.2563 0.0000 ( 35769 PWs)   bands (ev):

   -41.1928 -38.0165 -22.8914 -22.5231 -22.3914 -22.2370 -21.3221 -21.2493
   -21.1377 -18.5191 -18.3287 -18.2507 -15.7879 -15.5101 -14.5671 -14.4882
   -14.3832 -14.3824 -14.2675 -14.1797 -13.9823 -13.8299 -13.7855 -13.6021
   -13.5691 -13.5648 -13.3872  -8.5105  -8.3854  -8.1757  -8.0876  -7.9874
    -7.9195  -7.8912  -7.7982  -7.7495  -7.5864  -7.5184  -7.4984  -4.1040
    -3.3044  -2.8533  -2.7937  -2.7391  -2.3564  -2.2099  -2.0923  -1.9921
    -1.9621  -1.8842  -1.8772  -1.8203  -1.7603  -1.6928  -1.6621  -1.6286
    -1.5187  -1.5011  -1.2068  -1.1474  -0.8730  -0.7224  -0.6750  -0.6555
    -0.6073  -0.5305  -0.4672  -0.4103  -0.3568  -0.3290  -0.1342  -0.1171
    -0.0738  -0.0463   0.0712   0.1690   0.3123   0.5249   0.6098   0.7583
     0.7753   0.8209   0.9096   0.9648   1.0360   1.0511   1.1126   1.1714
     1.2660   1.3806   1.4327   1.4705   1.5410   1.5638   1.5789   1.6216
     1.7072   1.7697   1.7889   1.8249   1.8294   1.9129   1.9884   1.9976
     2.1275   2.1296   2.1478   2.1916   2.3138   2.3269   2.3721   2.7912
     3.3228   3.3435   3.4182   3.4990   3.8489   3.8814   4.0175   4.2198
     4.6457   4.9563   5.4867   6.1638   6.6891   6.7454   6.8654   7.1449
     7.2158   7.9078   8.4632   8.5668   8.8219   8.8837   9.1829   9.2378
     9.2501   9.3496

          k = 0.3750 0.3844 0.0000 ( 35857 PWs)   bands (ev):

   -41.1887 -38.0110 -22.8495 -22.4807 -22.3497 -22.1943 -21.3347 -21.3065
   -21.1300 -18.5234 -18.4987 -18.1614 -15.6727 -15.5217 -14.4536 -14.3430
   -14.2643 -14.2575 -14.2233 -14.0781 -13.9071 -13.8161 -13.6532 -13.6378
   -13.5684 -13.5452 -13.4185  -8.7503  -8.4421  -8.4070  -8.3989  -8.2427
    -8.1873  -8.0783  -7.8840  -7.8785  -7.8303  -7.7963  -7.5035  -4.5190
    -3.7566  -3.2155  -3.0343  -2.8645  -2.7966  -2.7031  -2.4158  -2.3797
    -2.1898  -2.1591  -2.0782  -1.9610  -1.8907  -1.7717  -1.7563  -1.7245
    -1.6524  -1.5810  -1.2200  -1.1623  -1.0119  -0.8110  -0.7702  -0.6712
    -0.6414  -0.6355  -0.4757  -0.4742  -0.4012  -0.3189  -0.2969  -0.2863
    -0.2481  -0.0723   0.1246   0.1815   0.4105   0.6252   0.6723   0.8547
     0.9640   1.0048   1.0913   1.1119   1.2002   1.2899   1.2951   1.4814
     1.5310   1.5444   1.6263   1.6815   1.7331   1.7508   1.8205   1.8321
     1.9263   1.9908   2.0345   2.0539   2.0627   2.0969   2.1210   2.1975
     2.2340   2.3098   2.3874   2.4620   2.5334   2.5858   2.6213   3.0918
     3.2638   3.3385   3.5701   3.8221   4.2910   4.4152   4.5130   4.6441
     4.7274   4.8742   5.6053   5.7048   6.3795   6.5162   6.8892   6.9319
     7.4685   8.2230   8.7629   8.8979   9.0503   9.1227   9.1558   9.2765
     9.2896   9.5452

          k = 0.3750-0.5125 0.0000 ( 35878 PWs)   bands (ev):

   -41.1870 -38.0087 -22.8319 -22.4629 -22.3322 -22.1763 -21.3670 -21.3051
   -21.1240 -18.5955 -18.4933 -18.1223 -15.5835 -15.5690 -14.4568 -14.3575
   -14.2048 -14.2006 -14.0098 -13.9923 -13.9508 -13.8773 -13.6529 -13.5889
   -13.5567 -13.5254 -13.4540  -8.8286  -8.5472  -8.5211  -8.3970  -8.3410
    -8.2670  -8.2335  -8.0120  -7.9857  -7.8751  -7.7920  -7.4973  -4.6842
    -3.9376  -3.3832  -3.1270  -3.1102  -2.8837  -2.7913  -2.6539  -2.6162
    -2.2990  -2.2062  -2.0920  -1.9552  -1.9219  -1.7673  -1.7430  -1.7188
    -1.6864  -1.6197  -1.2674  -1.2179  -1.0224  -0.8489  -0.7712  -0.7197
    -0.6967  -0.6794  -0.5240  -0.5082  -0.4800  -0.3838  -0.3323  -0.2910
    -0.2786   0.0581   0.1584   0.1990   0.4422   0.6775   0.6955   0.8746
     1.0336   1.0771   1.1032   1.2198   1.2780   1.3637   1.3773   1.5462
     1.5804   1.6538   1.7486   1.7923   1.8350   1.8852   1.8984   1.9145
     1.9523   1.9871   2.0380   2.0869   2.1199   2.2491   2.2676   2.2984
     2.3202   2.3971   2.5567   2.6274   2.6522   2.7823   2.8111   3.0942
     3.1762   3.2406   3.5837   3.9697   4.4396   4.5762   4.6776   4.6831
     4.7171   4.9519   5.4365   5.7306   6.1818   6.3168   6.8359   6.9680
     8.1635   8.1834   8.3814   8.9790   9.0280   9.1791   9.2494   9.3644
     9.4796   9.5250

          k =-0.5000 0.0000 0.0000 ( 35718 PWs)   bands (ev):

   -41.1974 -38.0225 -22.9308 -22.5622 -22.4303 -22.2761 -21.3623 -21.2032
   -21.0751 -18.6160 -18.3285 -18.0126 -15.7920 -15.6323 -14.8092 -14.7477
   -14.5989 -14.5569 -14.5115 -14.1329 -13.9436 -13.9346 -13.8275 -13.6504
   -13.6047 -13.5186 -13.4706  -8.4571  -7.9333  -7.8400  -7.8290  -7.7531
    -7.5555  -7.4967  -7.4100  -7.3585  -7.2583  -7.2527  -7.1436  -3.5868
    -2.8405  -2.6816  -2.4162  -2.3173  -2.2066  -2.0911  -2.0236  -1.9007
    -1.8410  -1.6473  -1.5729  -1.5688  -1.3947  -1.3193  -1.1159  -1.0990
    -1.0023  -0.9620  -0.9429  -0.7761  -0.7545  -0.7504  -0.6312  -0.5888
    -0.5579  -0.5228  -0.3673  -0.3380  -0.3321  -0.3232  -0.1044  -0.0502
     0.0608   0.1317   0.1803   0.2165   0.5141   0.5439   0.5532   0.5777
     0.5877   0.5885   0.5962   0.7780   0.8242   0.8316   0.8803   0.9141
     0.9144   0.9189   0.9261   1.0137   1.0701   1.1074   1.3675   1.3898
     1.5169   1.5217   1.5544   1.5926   1.6696   1.6836   1.7228   1.8537
     1.9647   2.0086   2.0094   2.0167   2.0674   2.1321   2.2443   2.3192
     2.3500   2.5464   2.6301   2.7140   2.7472   3.0564   3.1051   3.7439
     4.4811   5.1863   5.2137   6.8257   6.8497   7.3558   7.3953   7.5015
     7.5281   7.5309   7.6711   7.7205   8.1362   8.7743   8.9013   9.0865
     9.2942   9.3260

          k =-0.5000 0.1281 0.0000 ( 35740 PWs)   bands (ev):

   -41.1956 -38.0202 -22.9147 -22.5460 -22.4144 -22.2598 -21.3584 -21.2054
   -21.1045 -18.6082 -18.2962 -18.1102 -15.7604 -15.6160 -14.7512 -14.6860
   -14.5443 -14.4703 -14.4409 -14.0983 -14.0012 -13.9107 -13.7893 -13.6320
   -13.5897 -13.5229 -13.4643  -8.4521  -7.9577  -7.9564  -7.9290  -7.8375
    -7.6319  -7.6213  -7.5555  -7.4820  -7.4625  -7.3884  -7.3539  -3.7621
    -2.9936  -2.7450  -2.6127  -2.4490  -2.3472  -2.0842  -1.9899  -1.9200
    -1.8355  -1.7970  -1.5576  -1.4819  -1.4459  -1.4265  -1.3681  -1.2925
    -1.1483  -1.0468  -0.9883  -0.8878  -0.8698  -0.7814  -0.7742  -0.6576
    -0.6455  -0.5990  -0.5069  -0.4919  -0.4806  -0.1888  -0.0435   0.0799
     0.1493   0.1916   0.2624   0.2793   0.3378   0.3475   0.5006   0.5322
     0.5420   0.6053   0.7408   0.7874   0.8783   0.9130   1.0013   1.0028
     1.0811   1.0868   1.1152   1.1846   1.2171   1.2233   1.4025   1.4699
     1.5180   1.5566   1.6130   1.6521   1.6791   1.6794   1.7746   1.7951
     1.9451   1.9727   2.0362   2.1189   2.1848   2.2483   2.3617   2.6154
     2.7533   2.9959   3.0559   3.1126   3.1151   3.3232   3.3706   3.8242
     4.4755   5.0855   5.3012   6.5847   6.7753   7.2187   7.3391   7.5212
     7.6258   7.7801   7.8240   7.8489   7.8618   9.1011   9.1316   9.1834
     9.2286   9.4728

          k =-0.5000 0.2563 0.0000 ( 35790 PWs)   bands (ev):

   -41.1915 -38.0147 -22.8755 -22.5066 -22.3753 -22.2201 -21.3489 -21.2500
   -21.1340 -18.5895 -18.3243 -18.2145 -15.6823 -15.5803 -14.6146 -14.5027
   -14.4006 -14.3618 -14.1839 -14.1634 -14.0145 -13.8319 -13.6957 -13.5924
   -13.5594 -13.5526 -13.4497  -8.4697  -8.3710  -8.2562  -8.0979  -7.9431
    -7.9373  -7.8973  -7.8356  -7.7973  -7.7651  -7.6997  -7.5238  -4.2249
    -3.4460  -2.9885  -2.8697  -2.7717  -2.4926  -2.1841  -2.1073  -1.9901
    -1.9456  -1.9175  -1.8732  -1.8671  -1.8588  -1.6927  -1.6636  -1.6234
    -1.5889  -1.5250  -1.1995  -1.1259  -0.9821  -0.6998  -0.6299  -0.5776
    -0.5100  -0.5006  -0.4946  -0.4766  -0.4321  -0.3241  -0.1408  -0.1159
    -0.1125  -0.0910   0.0673   0.1549   0.3510   0.5287   0.7144   0.7901
     0.8084   0.9145   0.9300   1.0626   1.0817   1.1228   1.1512   1.2226
     1.3301   1.4168   1.4922   1.5685   1.5900   1.6016   1.6345   1.6380
     1.6641   1.6762   1.6942   1.7959   1.8726   1.9602   2.0503   2.0904
     2.0957   2.1340   2.1355   2.1964   2.2714   2.3208   2.3319   2.9323
     3.3389   3.4082   3.4348   3.5338   3.9185   3.9795   4.1131   4.3450
     4.4779   4.9070   5.5345   6.0043   6.6898   6.7040   6.8304   7.1336
     7.8353   8.0701   8.1116   8.5608   8.6186   9.1602   9.1723   9.3618
     9.3770   9.4355

          k =-0.5000 0.3844 0.0000 ( 35922 PWs)   bands (ev):

   -41.1874 -38.0092 -22.8355 -22.4664 -22.3356 -22.1797 -21.3394 -21.3291
   -21.1260 -18.5707 -18.5152 -18.1269 -15.6015 -15.5494 -14.4792 -14.3352
   -14.2439 -14.2324 -14.2222 -13.9450 -13.9350 -13.7889 -13.6146 -13.6090
   -13.5627 -13.5365 -13.4363  -8.8029  -8.5485  -8.4915  -8.4175  -8.3113
    -8.2369  -8.2345  -8.0280  -7.9920  -7.8932  -7.8036  -7.5159  -4.6731
    -3.9170  -3.3556  -3.1259  -2.8494  -2.8184  -2.8048  -2.4040  -2.3775
    -2.3008  -2.2234  -2.1059  -1.9533  -1.9469  -1.7709  -1.7422  -1.7327
    -1.6876  -1.6262  -1.2577  -1.1975  -0.9239  -0.8660  -0.7730  -0.6442
    -0.6015  -0.6011  -0.5476  -0.4106  -0.4096  -0.3728  -0.3364  -0.2825
    -0.2808   0.0698   0.1787   0.2138   0.4421   0.6658   0.7880   0.8905
     1.0386   1.0725   1.1478   1.2526   1.2800   1.4054   1.4692   1.4969
     1.5672   1.5907   1.6953   1.7852   1.7859   1.8804   1.8839   1.9189
     1.9507   1.9650   2.0371   2.0695   2.0947   2.1103   2.1238   2.2914
     2.2943   2.3914   2.4155   2.4709   2.4948   2.5478   2.5814   3.2243
     3.2607   3.3217   3.5999   4.0286   4.3797   4.5114   4.6389   4.7103
     4.7285   4.9904   5.3737   5.7030   6.1408   6.2821   6.8185   6.9900
     8.1073   8.3212   8.3712   8.8484   8.8789   9.0207   9.2760   9.3388
     9.3840   9.5216

          k =-0.5000-0.5125 0.0000 ( 35908 PWs)   bands (ev):

   -41.1857 -38.0070 -22.8187 -22.4495 -22.3189 -22.1628 -21.3639 -21.3355
   -21.1198 -18.5891 -18.5629 -18.0886 -15.5672 -15.5380 -14.4231 -14.4072
   -14.1671 -14.1508 -14.0020 -13.9062 -13.9041 -13.8522 -13.6234 -13.5903
   -13.5549 -13.5186 -13.4312  -8.9507  -8.6685  -8.6435  -8.4607  -8.4142
    -8.3875  -8.3544  -8.1311  -8.1085  -7.8912  -7.8005  -7.5120  -4.8496
    -4.1064  -3.5239  -3.2087  -3.0986  -2.9932  -2.8045  -2.6417  -2.6149
    -2.4317  -2.2513  -2.1296  -1.9917  -1.9468  -1.7590  -1.7341  -1.7249
    -1.6914  -1.6849  -1.3541  -1.1863  -0.9392  -0.8574  -0.8395  -0.6958
    -0.6782  -0.6565  -0.5783  -0.4991  -0.4417  -0.4197  -0.3922  -0.3570
    -0.2366   0.2219   0.2451   0.2483   0.4710   0.7340   0.8406   0.9190
     1.0671   1.0960   1.1640   1.3116   1.4944   1.5013   1.5474   1.5994
     1.6509   1.6547   1.6811   1.8642   1.9153   1.9323   2.0057   2.0392
     2.0651   2.1076   2.1187   2.1292   2.1437   2.2865   2.2923   2.3424
     2.3477   2.5375   2.6334   2.6474   2.6804   2.7550   2.7822   3.0876
     3.1511   3.3664   3.5952   4.2343   4.5116   4.5808   4.6030   4.8586
     4.9452   5.1415   5.1951   5.7373   5.8911   6.0301   6.7206   7.2594
     8.2076   8.3958   8.4929   8.7987   8.8058   8.8493   9.2449   9.2870
     9.3791   9.5980

     the Fermi energy is     3.0530 ev

!    total energy              =   -1868.47578889 Ry
     Harris-Foulkes estimate   =   -1868.47578936 Ry
     estimated scf accuracy    <       0.00000054 Ry

     The total energy is the sum of the following terms:

     one-electron contribution =  -30734.91968510 Ry
     hartree contribution      =   15520.56390504 Ry
     xc contribution           =    -641.86604362 Ry
     ewald contribution        =   13987.75516239 Ry
     smearing contrib. (-TS)   =      -0.00912760 Ry

     convergence has been achieved in  34 iterations

     negative rho (up, down):  8.970E-02 0.000E+00

     Forces acting on atoms (cartesian axes, Ry/au):

     atom    1 type  3   force =     0.00000000    0.00000000   -0.00020030
     atom    2 type  2   force =     0.00000000    0.00000000   -0.00050874
     atom    3 type  3   force =     0.00000000    0.00000000    0.00001391
     atom    4 type  1   force =     0.00000000    0.00000000   -0.00018451
     atom    5 type  2   force =     0.00000000    0.00000000    0.00122644
     atom    6 type  3   force =     0.00000000    0.00000000    0.00040382
     atom    7 type  3   force =     0.00000000    0.00000000    0.00016027
     atom    8 type  4   force =     0.00000000    0.00000000   -0.00086179
     atom    9 type  3   force =     0.00000000    0.00000000    0.00088414
     atom   10 type  3   force =     0.00000000    0.00000000    0.00116784
     atom   11 type  2   force =     0.00000000    0.00000000   -0.00157994
     atom   12 type  1   force =     0.00000000    0.00000000   -0.00202739
     atom   13 type  3   force =     0.00000000    0.00000000    0.00262168
     atom   14 type  3   force =     0.00000000    0.00000000    0.00653954
     atom   15 type  2   force =     0.00000000    0.00000000   -0.01253044
     atom   16 type  3   force =     0.00000000    0.00000000    0.02257351
     atom   17 type  1   force =     0.00000000    0.00000000   -0.02632710
     atom   18 type  2   force =     0.00000000    0.00000000    0.00274540
     atom   19 type  3   force =     0.00000000    0.00000000    0.07276305
     atom   20 type  3   force =     0.00000000    0.00000000    0.07426800
     atom   21 type  4   force =     0.00000000    0.00000000   -0.07996508
     atom   22 type  3   force =     0.00000000    0.00000000   -0.00577230
     atom   23 type  3   force =     0.00000000    0.00000000   -0.00045873
     atom   24 type  2   force =     0.00000000    0.00000000   -0.02369378
     atom   25 type  1   force =     0.00000000    0.00000000   -0.03027326
     atom   26 type  3   force =     0.00000000    0.00000000   -0.00148220
     atom   27 type  2   force =     0.00000000    0.00000000   -0.00262624
     atom   28 type  3   force =     0.00000000    0.00000000    0.00312417

     Total force =     0.141997     Total SCF correction =     0.003495


     Computing stress (Cartesian axis) and pressure


     negative rho (up, down):  8.970E-02 0.000E+00
          total   stress  (Ry/bohr**3)                   (kbar)     P=      -11.63
  -0.00003354   0.00000000   0.00000000           -4.93        0.00        0.00
   0.00000000  -0.00001315   0.00000000            0.00       -1.93        0.00
   0.00000000   0.00000000  -0.00019059            0.00        0.00      -28.04

 
     init_run     :      8.89s CPU      9.18s WALL (       1 calls)
     electrons    :    546.27s CPU    566.24s WALL (       1 calls)
     forces       :      3.82s CPU      3.99s WALL (       1 calls)
     stress       :     18.48s CPU     18.94s WALL (       1 calls)

     Called by init_run:
     wfcinit      :      6.23s CPU      6.34s WALL (       1 calls)
     potinit      :      0.62s CPU      0.63s WALL (       1 calls)
     hinit0       :      1.00s CPU      1.02s WALL (       1 calls)

     Called by electrons:
     c_bands      :    421.79s CPU    431.81s WALL (      34 calls)
     sum_band     :     82.70s CPU     88.10s WALL (      34 calls)
     v_of_rho     :      2.53s CPU      2.56s WALL (      35 calls)
     newd         :     23.30s CPU     27.75s WALL (      35 calls)
     mix_rho      :     16.45s CPU     16.62s WALL (      34 calls)

     Called by c_bands:
     init_us_2    :      3.46s CPU      3.48s WALL (    1775 calls)
     cegterg      :    396.02s CPU    405.46s WALL (     850 calls)

     Called by sum_band:
     sum_band:bec :      0.24s CPU      0.24s WALL (     850 calls)
     addusdens    :     22.67s CPU     27.30s WALL (      34 calls)

     Called by *egterg:
     h_psi        :    198.64s CPU    205.41s WALL (    3440 calls)
     s_psi        :     20.00s CPU     20.18s WALL (    3440 calls)
     g_psi        :      0.62s CPU      0.62s WALL (    2565 calls)
     cdiaghg      :     98.29s CPU     98.68s WALL (    3415 calls)

     Called by h_psi:
     h_psi:calbec :     23.94s CPU     24.95s WALL (    3440 calls)
     vloc_psi     :    152.94s CPU    155.71s WALL (    3440 calls)
     add_vuspsi   :     20.94s CPU     22.51s WALL (    3440 calls)

     General routines
     calbec       :     38.37s CPU     39.45s WALL (    4415 calls)
     fft          :      2.09s CPU      2.11s WALL (     478 calls)
     ffts         :      8.71s CPU      8.79s WALL (   15960 calls)
     fftw         :    174.62s CPU    177.70s WALL (  605126 calls)
     interpolate  :      0.14s CPU      0.15s WALL (      35 calls)
 
     Parallel routines
     fft_scatt_xy :     22.44s CPU     22.78s WALL (  621564 calls)
     fft_scatt_yz :    109.92s CPU    111.86s WALL (  621564 calls)
 
     PWSCF        :   9m38.19s CPU   9m59.12s WALL

 
   This run was terminated on:  17:33:47   5May2021            

=------------------------------------------------------------------------------=
   JOB DONE.
=------------------------------------------------------------------------------=
[1620250427.852283] [holy7c08112:24735:0]          mpool.c:43   UCX  WARN  object 0x2d49640 was not returned to mpool ucp_requests
[1620250427.852301] [holy7c08112:24735:0]          mpool.c:43   UCX  WARN  object 0x2d49800 was not returned to mpool ucp_requests
[1620250427.852175] [holy7c08106:107509:0]          mpool.c:43   UCX  WARN  object 0x3b9be80 was not returned to mpool ucp_requests
[1620250427.852196] [holy7c08106:107509:0]          mpool.c:43   UCX  WARN  object 0x3b9c040 was not returned to mpool ucp_requests
[1620250427.853260] [holy7c08411:16705:0]          mpool.c:43   UCX  WARN  object 0x287c740 was not returned to mpool ucp_requests
[1620250427.854253] [holy7c08108:215502:0]          mpool.c:43   UCX  WARN  object 0x28e1640 was not returned to mpool ucp_requests
[1620250427.857781] [holy7c08408:131477:0]          mpool.c:43   UCX  WARN  object 0x327ca40 was not returned to mpool ucp_requests
[1620250427.859135] [holy7c08412:253071:0]          mpool.c:43   UCX  WARN  object 0x2cac040 was not returned to mpool ucp_requests
[1620250427.860292] [holy7c08411:16704:0]          mpool.c:43   UCX  WARN  object 0x2bc89c0 was not returned to mpool ucp_requests
[1620250427.860310] [holy7c08411:16704:0]          mpool.c:43   UCX  WARN  object 0x2bc8d40 was not returned to mpool ucp_requests
