
     Program PWSCF v.6.5 starts on  5May2021 at 17:59:42 

     This program is part of the open-source Quantum ESPRESSO suite
     for quantum simulation of materials; please cite
         "P. Giannozzi et al., J. Phys.:Condens. Matter 21 395502 (2009);
         "P. Giannozzi et al., J. Phys.:Condens. Matter 29 465901 (2017);
          URL http://www.quantum-espresso.org", 
     in publications or presentations arising from this work. More details at
     http://www.quantum-espresso.org/quote

     Parallel version (MPI), running on    20 processors

     MPI processes distributed on    16 nodes
     R & G space division:  proc/nbgrp/npool/nimage =      20
     Reading input from YBCO_CuO_cleave_4.5_sep_scf.pwi
Warning: card &IONS ignored
Warning: card     ION_DYNAMICS = 'BFGS' ignored
Warning: card / ignored
Warning: card &CELL ignored
Warning: card     CELL_DYNAMICS = 'BFGS' ignored
Warning: card / ignored

     Current dimensions of program PWSCF are:
     Max number of different atomic species (ntypx) = 10
     Max number of k-points (npk) =  40000
     Max angular momentum in pseudopotentials (lmaxx) =  3

     Subspace diagonalization in iterative solution of the eigenvalue problem:
     one sub-group per band group will be used
     scalapack distributed-memory algorithm (size of sub-group:  4*  4 procs)

     Message from routine setup:
     using ibrav=0 with symmetry is DISCOURAGED, use correct ibrav instead
 
     Parallelization info
     --------------------
     sticks:   dense  smooth     PW     G-vecs:    dense   smooth      PW
     Min         150      50     14                78364    15076    2348
     Max         151      51     15                78407    15103    2397
     Sum        3015    1011    293              1567709   301719   47495
 


     bravais-lattice index     =            0
     lattice parameter (alat)  =       7.3477  a.u.
     unit-cell volume          =    4804.6619 (a.u.)^3
     number of atoms/cell      =           28
     number of atomic types    =            4
     number of electrons       =       229.00
     number of Kohn-Sham states=          138
     kinetic-energy cutoff     =      60.0000  Ry
     charge density cutoff     =     720.0000  Ry
     convergence threshold     =      1.0E-06
     mixing beta               =       0.2000
     number of iterations used =           10  local-TF  mixing
     Exchange-correlation= SLA PW PBE PBE
                           (   1   4   3   4   0   0   0)

     celldm(1)=   7.347715  celldm(2)=   0.000000  celldm(3)=   0.000000
     celldm(4)=   0.000000  celldm(5)=   0.000000  celldm(6)=   0.000000

     crystal axes: (cart. coord. in units of alat)
               a(1) = (   1.000000   0.000000   0.000000 )  
               a(2) = (   0.000000   0.975577   0.000000 )  
               a(3) = (   0.000000   0.000000  12.414928 )  

     reciprocal axes: (cart. coord. in units 2 pi/alat)
               b(1) = (  1.000000  0.000000  0.000000 )  
               b(2) = (  0.000000  1.025034  0.000000 )  
               b(3) = (  0.000000  0.000000  0.080548 )  


     PseudoPot. # 1 for Ba read from file:
     /n/holyscratch01/hoffman_lab/ruizhe/YBCO_Project/pseudo/Ba.pbe-nsp-van.UPF
     MD5 check sum: 2b9c31dd849566dd297d80989662b7a0
     Pseudo is Ultrasoft + core correction, Zval = 10.0
     Generated by new atomic code, or converted to UPF format
     Using radial grid of  907 points,  6 beta functions with: 
                l(1) =   0
                l(2) =   0
                l(3) =   1
                l(4) =   1
                l(5) =   2
                l(6) =   2
     Q(r) pseudized with  6 coefficients,  rinner =    1.200   1.200   1.200
                                                       1.200   1.200

     PseudoPot. # 2 for Cu read from file:
     /n/holyscratch01/hoffman_lab/ruizhe/YBCO_Project/pseudo/Cu.pbe-n-van_ak.UPF
     MD5 check sum: 34e3282627ffb533726feb647e090d62
     Pseudo is Ultrasoft + core correction, Zval = 11.0
     Generated by new atomic code, or converted to UPF format
     Using radial grid of  867 points,  6 beta functions with: 
                l(1) =   0
                l(2) =   0
                l(3) =   1
                l(4) =   1
                l(5) =   2
                l(6) =   2
     Q(r) pseudized with  8 coefficients,  rinner =    1.400   1.400   1.400
                                                       1.400   1.400

     PseudoPot. # 3 for O  read from file:
     /n/holyscratch01/hoffman_lab/ruizhe/YBCO_Project/pseudo/O.pbe-van_ak.UPF
     MD5 check sum: 783ce7fe4c79b6a4916957118fed0856
     Pseudo is Ultrasoft, Zval =  6.0
     Generated by new atomic code, or converted to UPF format
     Using radial grid of  737 points,  4 beta functions with: 
                l(1) =   0
                l(2) =   0
                l(3) =   1
                l(4) =   1
     Q(r) pseudized with  8 coefficients,  rinner =    0.800   0.800   0.800


     PseudoPot. # 4 for Y  read from file:
     /n/holyscratch01/hoffman_lab/ruizhe/YBCO_Project/pseudo/Y.pbe-nsp-van.UPF
     MD5 check sum: 4412fed3ab108fed87a1b7d6a69a4a38
     Pseudo is Ultrasoft + core correction, Zval = 11.0
     Generated by new atomic code, or converted to UPF format
     Using radial grid of  885 points,  6 beta functions with: 
                l(1) =   0
                l(2) =   0
                l(3) =   1
                l(4) =   1
                l(5) =   2
                l(6) =   2
     Q(r) pseudized with  6 coefficients,  rinner =    1.200   1.200   1.200
                                                       1.200   1.200

     atomic species   valence    mass     pseudopotential
        Ba            10.00   137.32700     Ba( 1.00)
        Cu            11.00    63.54600     Cu( 1.00)
        O              6.00    15.99900     O ( 1.00)
        Y             11.00    88.90584     Y ( 1.00)

      4 Sym. Ops. (no inversion) found



   Cartesian axes

     site n.     atom                  positions (alat units)
         1           O   tau(   1) = (   0.0000000   0.4877884  -0.0257983  )
         2           Cu  tau(   2) = (   0.0000000   0.0000000   0.0215779  )
         3           O   tau(   3) = (   0.0000000   0.0000000   0.5073114  )
         4           Ba  tau(   4) = (   0.4999996   0.4877884   0.5319677  )
         5           Cu  tau(   5) = (   0.0000000   0.0000000   1.0495845  )
         6           O   tau(   6) = (   0.4999996   0.0000000   1.1181579  )
         7           O   tau(   7) = (   0.0000000   0.4877884   1.1273137  )
         8           Y   tau(   8) = (   0.4999996   0.4877884   1.4938777  )
         9           O   tau(   9) = (   0.0000000   0.4877884   1.8497402  )
        10           O   tau(  10) = (   0.4999996   0.0000000   1.8692709  )
        11           Cu  tau(  11) = (   0.0000000   0.0000000   1.9417560  )
        12           Ba  tau(  12) = (   0.4999996   0.4877884   2.4526063  )
        13           O   tau(  13) = (   0.0000000   0.0000000   2.5103470  )
        14           O   tau(  14) = (   0.0000000   0.4877884   2.9968469  )
        15           Cu  tau(  15) = (   0.0000000   0.0000000   2.9968521  )
        16           O   tau(  16) = (   0.0000000   0.0000000   4.6406638  )
        17           Ba  tau(  17) = (   0.4999996   0.4877884   4.6983968  )
        18           Cu  tau(  18) = (   0.0000000   0.0000000   5.2092702  )
        19           O   tau(  19) = (   0.4999996   0.0000000   5.2817425  )
        20           O   tau(  20) = (   0.0000000   0.4877884   5.3012552  )
        21           Y   tau(  21) = (   0.4999996   0.4877884   5.6571202  )
        22           O   tau(  22) = (   0.0000000   0.4877884   6.0236842  )
        23           O   tau(  23) = (   0.4999996   0.0000000   6.0328529  )
        24           Cu  tau(  24) = (   0.0000000   0.0000000   6.1014314  )
        25           Ba  tau(  25) = (   0.4999996   0.4877884   6.6190328  )
        26           O   tau(  26) = (   0.0000000   0.0000000   6.6436891  )
        27           Cu  tau(  27) = (   0.0000000   0.0000000   7.1293943  )
        28           O   tau(  28) = (   0.0000000   0.4877884   7.1767756  )

     number of k points=    25  Gaussian smearing, width (Ry)=  0.0100
                       cart. coord. in units 2pi/alat
        k(    1) = (   0.0000000   0.0000000   0.0000000), wk =   0.0312500
        k(    2) = (   0.0000000   0.1281293   0.0000000), wk =   0.0625000
        k(    3) = (   0.0000000   0.2562585   0.0000000), wk =   0.0625000
        k(    4) = (   0.0000000   0.3843878   0.0000000), wk =   0.0625000
        k(    5) = (   0.0000000  -0.5125170   0.0000000), wk =   0.0312500
        k(    6) = (   0.1250000   0.0000000   0.0000000), wk =   0.0625000
        k(    7) = (   0.1250000   0.1281293   0.0000000), wk =   0.1250000
        k(    8) = (   0.1250000   0.2562585   0.0000000), wk =   0.1250000
        k(    9) = (   0.1250000   0.3843878   0.0000000), wk =   0.1250000
        k(   10) = (   0.1250000  -0.5125170   0.0000000), wk =   0.0625000
        k(   11) = (   0.2500000   0.0000000   0.0000000), wk =   0.0625000
        k(   12) = (   0.2500000   0.1281293   0.0000000), wk =   0.1250000
        k(   13) = (   0.2500000   0.2562585   0.0000000), wk =   0.1250000
        k(   14) = (   0.2500000   0.3843878   0.0000000), wk =   0.1250000
        k(   15) = (   0.2500000  -0.5125170   0.0000000), wk =   0.0625000
        k(   16) = (   0.3750000   0.0000000   0.0000000), wk =   0.0625000
        k(   17) = (   0.3750000   0.1281293   0.0000000), wk =   0.1250000
        k(   18) = (   0.3750000   0.2562585   0.0000000), wk =   0.1250000
        k(   19) = (   0.3750000   0.3843878   0.0000000), wk =   0.1250000
        k(   20) = (   0.3750000  -0.5125170   0.0000000), wk =   0.0625000
        k(   21) = (  -0.5000000   0.0000000   0.0000000), wk =   0.0312500
        k(   22) = (  -0.5000000   0.1281293   0.0000000), wk =   0.0625000
        k(   23) = (  -0.5000000   0.2562585   0.0000000), wk =   0.0625000
        k(   24) = (  -0.5000000   0.3843878   0.0000000), wk =   0.0625000
        k(   25) = (  -0.5000000  -0.5125170   0.0000000), wk =   0.0312500

     Dense  grid:  1567709 G-vectors     FFT dimensions: (  64,  64, 800)

     Smooth grid:   301719 G-vectors     FFT dimensions: (  40,  36, 450)

     Estimated max dynamical RAM per process >     500.02 MB

     Estimated total dynamical RAM >       9.77 GB

     Initial potential from superposition of free atoms

     starting charge  228.84827, renormalised to  229.00000

     negative rho (up, down):  8.950E-02 0.000E+00
     Starting wfcs are  201 randomized atomic wfcs

     total cpu time spent up to now is       10.9 secs

     Self-consistent Calculation

     iteration #  1     ecut=    60.00 Ry     beta= 0.20
     Davidson diagonalization with overlap
     ethr =  1.00E-02,  avg # of iterations =  2.0

     negative rho (up, down):  8.732E-02 0.000E+00

     total cpu time spent up to now is       27.2 secs

     total energy              =   -1869.51971259 Ry
     Harris-Foulkes estimate   =   -1871.09963851 Ry
     estimated scf accuracy    <      13.44039888 Ry

     iteration #  2     ecut=    60.00 Ry     beta= 0.20
     Davidson diagonalization with overlap
     ethr =  5.87E-03,  avg # of iterations =  1.0

     negative rho (up, down):  8.604E-02 0.000E+00

     total cpu time spent up to now is       42.5 secs

     total energy              =   -1868.88134396 Ry
     Harris-Foulkes estimate   =   -1869.87349711 Ry
     estimated scf accuracy    <       5.82870880 Ry

     iteration #  3     ecut=    60.00 Ry     beta= 0.20
     Davidson diagonalization with overlap
     ethr =  2.55E-03,  avg # of iterations =  1.0

     negative rho (up, down):  8.562E-02 0.000E+00

     total cpu time spent up to now is       57.3 secs

     total energy              =   -1868.70746447 Ry
     Harris-Foulkes estimate   =   -1869.15831937 Ry
     estimated scf accuracy    <       4.19239935 Ry

     iteration #  4     ecut=    60.00 Ry     beta= 0.20
     Davidson diagonalization with overlap
     ethr =  1.83E-03,  avg # of iterations =  1.7

     negative rho (up, down):  8.581E-02 0.000E+00

     total cpu time spent up to now is       73.2 secs

     total energy              =   -1868.84976415 Ry
     Harris-Foulkes estimate   =   -1868.92102466 Ry
     estimated scf accuracy    <       2.24983917 Ry

     iteration #  5     ecut=    60.00 Ry     beta= 0.20
     Davidson diagonalization with overlap
     ethr =  9.82E-04,  avg # of iterations =  1.0

     negative rho (up, down):  8.636E-02 0.000E+00

     total cpu time spent up to now is       87.8 secs

     total energy              =   -1868.81593902 Ry
     Harris-Foulkes estimate   =   -1868.88692552 Ry
     estimated scf accuracy    <       1.21502142 Ry

     iteration #  6     ecut=    60.00 Ry     beta= 0.20
     Davidson diagonalization with overlap
     ethr =  5.31E-04,  avg # of iterations =  1.0

     negative rho (up, down):  8.708E-02 0.000E+00

     total cpu time spent up to now is      102.5 secs

     total energy              =   -1868.76758004 Ry
     Harris-Foulkes estimate   =   -1868.83324406 Ry
     estimated scf accuracy    <       0.49221488 Ry

     iteration #  7     ecut=    60.00 Ry     beta= 0.20
     Davidson diagonalization with overlap
     ethr =  2.15E-04,  avg # of iterations =  5.8

     negative rho (up, down):  8.762E-02 0.000E+00

     total cpu time spent up to now is      122.7 secs

     total energy              =   -1868.76416507 Ry
     Harris-Foulkes estimate   =   -1868.78479395 Ry
     estimated scf accuracy    <       0.35703137 Ry

     iteration #  8     ecut=    60.00 Ry     beta= 0.20
     Davidson diagonalization with overlap
     ethr =  1.56E-04,  avg # of iterations =  3.3

     negative rho (up, down):  8.888E-02 0.000E+00

     total cpu time spent up to now is      139.8 secs

     total energy              =   -1868.74740442 Ry
     Harris-Foulkes estimate   =   -1868.78077150 Ry
     estimated scf accuracy    <       0.58669172 Ry

     iteration #  9     ecut=    60.00 Ry     beta= 0.20
     Davidson diagonalization with overlap
     ethr =  1.56E-04,  avg # of iterations =  3.2

     negative rho (up, down):  8.950E-02 0.000E+00

     total cpu time spent up to now is      156.9 secs

     total energy              =   -1868.75041690 Ry
     Harris-Foulkes estimate   =   -1868.75579961 Ry
     estimated scf accuracy    <       0.40104896 Ry

     iteration # 10     ecut=    60.00 Ry     beta= 0.20
     Davidson diagonalization with overlap
     ethr =  1.56E-04,  avg # of iterations =  1.0

     negative rho (up, down):  9.027E-02 0.000E+00

     total cpu time spent up to now is      171.7 secs

     total energy              =   -1868.73330423 Ry
     Harris-Foulkes estimate   =   -1868.75339338 Ry
     estimated scf accuracy    <       0.38169410 Ry

     iteration # 11     ecut=    60.00 Ry     beta= 0.20
     Davidson diagonalization with overlap
     ethr =  1.56E-04,  avg # of iterations =  1.9

     negative rho (up, down):  9.095E-02 0.000E+00

     total cpu time spent up to now is      187.2 secs

     total energy              =   -1868.73091276 Ry
     Harris-Foulkes estimate   =   -1868.74139772 Ry
     estimated scf accuracy    <       0.52637138 Ry

     iteration # 12     ecut=    60.00 Ry     beta= 0.20
     Davidson diagonalization with overlap
     ethr =  1.56E-04,  avg # of iterations =  1.4

     negative rho (up, down):  9.099E-02 0.000E+00

     total cpu time spent up to now is      202.7 secs

     total energy              =   -1868.73125614 Ry
     Harris-Foulkes estimate   =   -1868.73577781 Ry
     estimated scf accuracy    <       0.47413793 Ry

     iteration # 13     ecut=    60.00 Ry     beta= 0.20
     Davidson diagonalization with overlap
     ethr =  1.56E-04,  avg # of iterations =  1.2

     negative rho (up, down):  9.072E-02 0.000E+00

     total cpu time spent up to now is      217.6 secs

     total energy              =   -1868.72819797 Ry
     Harris-Foulkes estimate   =   -1868.73241126 Ry
     estimated scf accuracy    <       0.16799625 Ry

     iteration # 14     ecut=    60.00 Ry     beta= 0.20
     Davidson diagonalization with overlap
     ethr =  7.34E-05,  avg # of iterations =  5.5

     negative rho (up, down):  9.002E-02 0.000E+00

     total cpu time spent up to now is      237.0 secs

     total energy              =   -1868.72590535 Ry
     Harris-Foulkes estimate   =   -1868.72928246 Ry
     estimated scf accuracy    <       0.03237479 Ry

     iteration # 15     ecut=    60.00 Ry     beta= 0.20
     Davidson diagonalization with overlap
     ethr =  1.41E-05,  avg # of iterations =  7.7

     negative rho (up, down):  9.009E-02 0.000E+00

     total cpu time spent up to now is      260.7 secs

     total energy              =   -1868.72687614 Ry
     Harris-Foulkes estimate   =   -1868.72729622 Ry
     estimated scf accuracy    <       0.02980394 Ry

     iteration # 16     ecut=    60.00 Ry     beta= 0.20
     Davidson diagonalization with overlap
     ethr =  1.30E-05,  avg # of iterations =  1.0

     negative rho (up, down):  8.961E-02 0.000E+00

     total cpu time spent up to now is      275.2 secs

     total energy              =   -1868.72671098 Ry
     Harris-Foulkes estimate   =   -1868.72702306 Ry
     estimated scf accuracy    <       0.02304558 Ry

     iteration # 17     ecut=    60.00 Ry     beta= 0.20
     Davidson diagonalization with overlap
     ethr =  1.01E-05,  avg # of iterations =  2.0

     negative rho (up, down):  9.093E-02 0.000E+00

     total cpu time spent up to now is      290.8 secs

     total energy              =   -1868.72580136 Ry
     Harris-Foulkes estimate   =   -1868.72685041 Ry
     estimated scf accuracy    <       0.02916060 Ry

     iteration # 18     ecut=    60.00 Ry     beta= 0.20
     Davidson diagonalization with overlap
     ethr =  1.01E-05,  avg # of iterations =  2.3

     negative rho (up, down):  9.636E-02 0.000E+00

     total cpu time spent up to now is      306.7 secs

     total energy              =   -1868.72529892 Ry
     Harris-Foulkes estimate   =   -1868.72592692 Ry
     estimated scf accuracy    <       0.02418247 Ry

     iteration # 19     ecut=    60.00 Ry     beta= 0.20
     Davidson diagonalization with overlap
     ethr =  1.01E-05,  avg # of iterations =  2.5

     negative rho (up, down):  9.551E-02 0.000E+00

     total cpu time spent up to now is      322.9 secs

     total energy              =   -1868.72466742 Ry
     Harris-Foulkes estimate   =   -1868.72538926 Ry
     estimated scf accuracy    <       0.02019852 Ry

     iteration # 20     ecut=    60.00 Ry     beta= 0.20
     Davidson diagonalization with overlap
     ethr =  8.82E-06,  avg # of iterations =  3.2

     negative rho (up, down):  9.472E-02 0.000E+00

     total cpu time spent up to now is      339.8 secs

     total energy              =   -1868.72412144 Ry
     Harris-Foulkes estimate   =   -1868.72482939 Ry
     estimated scf accuracy    <       0.01466073 Ry

     iteration # 21     ecut=    60.00 Ry     beta= 0.20
     Davidson diagonalization with overlap
     ethr =  6.40E-06,  avg # of iterations =  4.8

     negative rho (up, down):  1.076E-01 0.000E+00

     total cpu time spent up to now is      358.6 secs

     total energy              =   -1868.72249595 Ry
     Harris-Foulkes estimate   =   -1868.72420680 Ry
     estimated scf accuracy    <       0.01248973 Ry

     iteration # 22     ecut=    60.00 Ry     beta= 0.20
     Davidson diagonalization with overlap
     ethr =  5.45E-06,  avg # of iterations =  7.8

     negative rho (up, down):  1.037E-01 0.000E+00

     total cpu time spent up to now is      382.1 secs

     total energy              =   -1868.72257620 Ry
     Harris-Foulkes estimate   =   -1868.72280830 Ry
     estimated scf accuracy    <       0.00794809 Ry

     iteration # 23     ecut=    60.00 Ry     beta= 0.20
     Davidson diagonalization with overlap
     ethr =  3.47E-06,  avg # of iterations =  1.7

     negative rho (up, down):  1.101E-01 0.000E+00

     total cpu time spent up to now is      397.4 secs

     total energy              =   -1868.72253507 Ry
     Harris-Foulkes estimate   =   -1868.72265148 Ry
     estimated scf accuracy    <       0.00534776 Ry

     iteration # 24     ecut=    60.00 Ry     beta= 0.20
     Davidson diagonalization with overlap
     ethr =  2.34E-06,  avg # of iterations =  7.3

     negative rho (up, down):  1.055E-01 0.000E+00

     total cpu time spent up to now is      419.7 secs

     total energy              =   -1868.72245655 Ry
     Harris-Foulkes estimate   =   -1868.72256376 Ry
     estimated scf accuracy    <       0.00403824 Ry

     iteration # 25     ecut=    60.00 Ry     beta= 0.20
     Davidson diagonalization with overlap
     ethr =  1.76E-06,  avg # of iterations =  3.8

     negative rho (up, down):  9.363E-02 0.000E+00

     total cpu time spent up to now is      437.5 secs

     total energy              =   -1868.72217152 Ry
     Harris-Foulkes estimate   =   -1868.72247093 Ry
     estimated scf accuracy    <       0.00241583 Ry

     iteration # 26     ecut=    60.00 Ry     beta= 0.20
     Davidson diagonalization with overlap
     c_bands:  1 eigenvalues not converged
     ethr =  1.05E-06,  avg # of iterations =  7.4

     negative rho (up, down):  9.236E-02 0.000E+00

     total cpu time spent up to now is      460.0 secs

     total energy              =   -1868.72219108 Ry
     Harris-Foulkes estimate   =   -1868.72223215 Ry
     estimated scf accuracy    <       0.00062620 Ry

     iteration # 27     ecut=    60.00 Ry     beta= 0.20
     Davidson diagonalization with overlap
     ethr =  2.73E-07,  avg # of iterations =  3.4

     negative rho (up, down):  9.041E-02 0.000E+00

     total cpu time spent up to now is      477.5 secs

     total energy              =   -1868.72220523 Ry
     Harris-Foulkes estimate   =   -1868.72220854 Ry
     estimated scf accuracy    <       0.00038848 Ry

     iteration # 28     ecut=    60.00 Ry     beta= 0.20
     Davidson diagonalization with overlap
     c_bands:  1 eigenvalues not converged
     ethr =  1.70E-07,  avg # of iterations =  6.3

     negative rho (up, down):  9.025E-02 0.000E+00

     total cpu time spent up to now is      498.3 secs

     total energy              =   -1868.72221340 Ry
     Harris-Foulkes estimate   =   -1868.72221230 Ry
     estimated scf accuracy    <       0.00007491 Ry

     iteration # 29     ecut=    60.00 Ry     beta= 0.20
     Davidson diagonalization with overlap
     ethr =  3.27E-08,  avg # of iterations =  2.6

     negative rho (up, down):  8.993E-02 0.000E+00

     total cpu time spent up to now is      514.6 secs

     total energy              =   -1868.72222193 Ry
     Harris-Foulkes estimate   =   -1868.72221537 Ry
     estimated scf accuracy    <       0.00008965 Ry

     iteration # 30     ecut=    60.00 Ry     beta= 0.20
     Davidson diagonalization with overlap
     c_bands:  1 eigenvalues not converged
     c_bands:  1 eigenvalues not converged
     ethr =  3.27E-08,  avg # of iterations =  5.5

     negative rho (up, down):  9.002E-02 0.000E+00

     total cpu time spent up to now is      534.6 secs

     total energy              =   -1868.72222691 Ry
     Harris-Foulkes estimate   =   -1868.72222417 Ry
     estimated scf accuracy    <       0.00001993 Ry

     iteration # 31     ecut=    60.00 Ry     beta= 0.20
     Davidson diagonalization with overlap
     ethr =  8.70E-09,  avg # of iterations =  1.3

     negative rho (up, down):  9.008E-02 0.000E+00

     total cpu time spent up to now is      549.5 secs

     total energy              =   -1868.72223341 Ry
     Harris-Foulkes estimate   =   -1868.72222718 Ry
     estimated scf accuracy    <       0.00001514 Ry

     iteration # 32     ecut=    60.00 Ry     beta= 0.20
     Davidson diagonalization with overlap
     ethr =  6.61E-09,  avg # of iterations =  3.4

     negative rho (up, down):  9.020E-02 0.000E+00

     total cpu time spent up to now is      566.9 secs

     total energy              =   -1868.72223430 Ry
     Harris-Foulkes estimate   =   -1868.72223410 Ry
     estimated scf accuracy    <       0.00000600 Ry

     iteration # 33     ecut=    60.00 Ry     beta= 0.20
     Davidson diagonalization with overlap
     ethr =  2.62E-09,  avg # of iterations =  1.0

     negative rho (up, down):  9.034E-02 0.000E+00

     total cpu time spent up to now is      581.7 secs

     total energy              =   -1868.72223571 Ry
     Harris-Foulkes estimate   =   -1868.72223440 Ry
     estimated scf accuracy    <       0.00000285 Ry

     iteration # 34     ecut=    60.00 Ry     beta= 0.20
     Davidson diagonalization with overlap
     ethr =  1.24E-09,  avg # of iterations =  1.6

     negative rho (up, down):  9.037E-02 0.000E+00

     total cpu time spent up to now is      597.1 secs

     total energy              =   -1868.72223597 Ry
     Harris-Foulkes estimate   =   -1868.72223584 Ry
     estimated scf accuracy    <       0.00000129 Ry

     iteration # 35     ecut=    60.00 Ry     beta= 0.20
     Davidson diagonalization with overlap
     ethr =  5.64E-10,  avg # of iterations =  1.0

     negative rho (up, down):  9.052E-02 0.000E+00

     total cpu time spent up to now is      611.2 secs

     End of self-consistent calculation

          k = 0.0000 0.0000 0.0000 ( 37611 PWs)   bands (ev):

   -38.6537 -38.5771 -23.2828 -23.2704 -23.1737 -23.1228 -19.1868 -19.1191
   -18.6592 -18.6503 -18.5833 -18.5702 -15.9781 -15.9280 -15.0203 -14.9667
   -14.7676 -14.7638 -14.7577 -14.7135 -14.6689 -14.5023 -14.4485 -14.2650
   -14.2525 -14.0079 -12.7215  -8.5464  -8.5035  -8.4840  -8.3370  -8.2751
    -8.2634  -8.2481  -8.2366  -8.0963  -8.0730  -8.0464  -7.9645  -2.6097
    -2.5793  -2.5576  -2.5299  -2.4391  -2.3840  -2.3657  -2.3564  -2.3225
    -2.2827  -2.2462  -2.1918  -2.0709  -1.4149  -1.3527  -0.9632  -0.9464
    -0.8988  -0.6318  -0.5748  -0.5741  -0.5650  -0.5367  -0.5298  -0.3756
    -0.3736  -0.3418  -0.3217  -0.3042  -0.2975  -0.2430  -0.2385  -0.2123
    -0.2029  -0.1125  -0.1088  -0.0973  -0.0955  -0.0726  -0.0119   0.0037
     0.0419   0.0453   0.0558   0.0681   0.1184   0.1558   0.1603   0.1772
     0.4517   0.6002   0.6444   0.7079   0.7097   0.7517   0.7820   0.8201
     0.8587   0.8646   0.8762   0.9619   0.9683   0.9819   0.9934   0.9961
     1.0385   1.4172   1.4587   1.4794   1.4871   1.5702   1.6788   1.6858
     1.7670   1.9834   2.1230   2.1700   2.2086   2.2511   2.2807   4.6559
     4.7914   4.8230   5.3545   5.4252   5.9887   6.1662   6.1837   6.3884
     6.4413   6.8940   7.0644   7.6400   7.6698   7.7138   7.8624   8.0811
     8.1447   8.1904

          k = 0.0000 0.1281 0.0000 ( 37645 PWs)   bands (ev):

   -38.6514 -38.5748 -23.2612 -23.2489 -23.1551 -23.1016 -19.1509 -19.0831
   -18.7546 -18.6749 -18.6560 -18.5801 -15.8692 -15.8200 -15.0285 -14.9731
   -14.7769 -14.7658 -14.7334 -14.6825 -14.6511 -14.5478 -14.4963 -14.2708
   -14.2566 -14.0406 -12.7929  -8.5351  -8.4866  -8.4693  -8.3261  -8.2675
    -8.2562  -8.2339  -8.2221  -8.0952  -8.0567  -8.0135  -7.9639  -2.6998
    -2.6919  -2.6739  -2.6189  -2.5601  -2.5092  -2.3679  -2.3609  -2.2522
    -2.2309  -2.1936  -2.1766  -2.0803  -1.4841  -1.4661  -1.4119  -1.3496
    -1.2969  -0.9622  -0.9268  -0.7428  -0.6640  -0.6284  -0.6252  -0.6189
    -0.6096  -0.6030  -0.5749  -0.5347  -0.4099  -0.2831  -0.2338  -0.2095
    -0.1955  -0.1372  -0.1297  -0.0784  -0.0555   0.0195   0.0223   0.0336
     0.0546   0.0566   0.1159   0.1491   0.1517   0.1744   0.3391   0.3685
     0.4047   0.4416   0.5184   0.5804   0.6632   0.6793   0.7038   0.9158
     0.9420   0.9738   0.9921   1.0151   1.1386   1.1799   1.1943   1.2078
     1.2156   1.3949   1.4558   1.4646   1.5209   1.5323   1.6349   1.7661
     1.8200   2.0479   2.0725   2.3125   2.3342   2.4956   2.5100   5.0018
     5.1543   5.1673   5.5990   5.6680   6.1668   6.4877   6.5016   6.6924
     6.7366   7.1595   7.3185   7.5794   7.6531   7.8330   8.0151   8.3217
     8.3361   8.4104

          k = 0.0000 0.2563 0.0000 ( 37646 PWs)   bands (ev):

   -38.6458 -38.5692 -23.2081 -23.1958 -23.1097 -23.0497 -19.0598 -18.9918
   -18.9797 -18.9007 -18.6482 -18.5723 -15.6208 -15.5748 -15.1035 -15.0446
   -14.8405 -14.8155 -14.6870 -14.6163 -14.6129 -14.5999 -14.5680 -14.2488
   -14.2318 -14.0903 -12.9614  -8.5092  -8.4460  -8.4308  -8.3087  -8.2975
    -8.2974  -8.1432  -8.1307  -8.1188  -7.9598  -7.9578  -7.9319  -3.1281
    -3.0942  -2.9941  -2.9291  -2.5150  -2.5083  -2.4177  -2.4084  -2.3707
    -2.2439  -2.2311  -2.1788  -2.1715  -2.1244  -2.1065  -2.0161  -1.4154
    -1.3640  -1.3475  -1.2579  -1.1327  -0.9953  -0.9824  -0.9675  -0.9137
    -0.8534  -0.8478  -0.7890  -0.7748  -0.6018  -0.5538  -0.5398  -0.4909
    -0.4054  -0.3687  -0.2902  -0.2109  -0.1723  -0.1529   0.0272   0.0740
     0.0928   0.0935   0.0963   0.1702   0.1805   0.1908   0.2431   0.2939
     0.6703   0.6894   0.7465   0.8022   0.8300   0.8926   0.9358   1.0044
     1.0110   1.0777   1.1108   1.1668   1.2347   1.2585   1.2592   1.3377
     1.3616   1.4843   1.5282   1.6541   1.6929   1.7568   1.7715   1.7827
     1.8319   1.9380   1.9976   2.4174   2.7021   2.8080   2.8304   5.7502
     6.0414   6.0559   6.2539   6.3317   6.6455   7.3468   7.3598   7.4489
     7.5040   7.5227   7.5777   7.7281   7.8738   8.2540   8.3111   8.4620
     8.6048   8.6671

          k = 0.0000 0.3844 0.0000 ( 37566 PWs)   bands (ev):

   -38.6402 -38.5636 -23.1536 -23.1412 -23.0632 -22.9964 -19.1777 -19.0991
   -18.9616 -18.8932 -18.6404 -18.5645 -15.3689 -15.3320 -15.2479 -15.1835
   -14.9539 -14.9080 -14.7076 -14.6132 -14.5755 -14.5609 -14.5464 -14.1902
   -14.1719 -14.0898 -13.1231  -8.4837  -8.4058  -8.3906  -8.3416  -8.3306
    -8.2647  -8.1880  -8.0217  -8.0097  -7.9525  -7.8537  -7.8471  -3.4953
    -3.4651  -3.3064  -3.2343  -3.0724  -3.0578  -3.0573  -2.4217  -2.4175
    -2.2229  -2.2089  -2.1694  -2.1604  -2.1004  -2.0859  -2.0297  -1.7254
    -1.5679  -1.3957  -1.3595  -1.3317  -1.3257  -1.2744  -1.2647  -1.2095
    -1.0948  -1.0901  -0.9358  -0.8877  -0.8239  -0.7977  -0.7833  -0.7340
    -0.6213  -0.6060  -0.5891  -0.4982  -0.2338  -0.1067  -0.0407   0.0651
     0.0871   0.1012   0.1170   0.1221   0.1758   0.2168   0.4632   0.5340
     0.7385   0.7838   0.8553   0.8876   0.9080   0.9331   0.9520   0.9653
     1.0661   1.0803   1.1482   1.2300   1.3611   1.4087   1.4462   1.4558
     1.5502   1.5919   1.6034   1.7198   1.7384   1.9233   1.9726   2.0393
     2.1644   2.1800   2.2479   2.3860   2.7048   2.7866   2.8725   6.5917
     6.8793   6.9250   7.0963   7.1407   7.3360   7.3844   7.4102   8.0656
     8.0715   8.2202   8.2638   8.3743   8.3958   8.5081   8.5594   8.6581
     8.7037   9.1473

          k = 0.0000-0.5125 0.0000 ( 37738 PWs)   bands (ev):

   -38.6379 -38.5613 -23.1306 -23.1181 -23.0436 -22.9738 -19.2537 -19.1753
   -18.9184 -18.8500 -18.6372 -18.5613 -15.3244 -15.2710 -15.2386 -15.2012
   -15.0277 -14.9643 -14.7354 -14.6015 -14.5617 -14.5530 -14.5237 -14.1591
   -14.1404 -14.0756 -13.1877  -8.4732  -8.3893  -8.3736  -8.3531  -8.3422
    -8.2435  -8.2121  -7.9746  -7.9625  -7.9486  -7.8109  -7.8088  -3.6386
    -3.6105  -3.4494  -3.3665  -3.3116  -3.2911  -3.2890  -2.4564  -2.4528
    -2.2823  -2.2229  -2.1231  -2.0596  -2.0270  -2.0166  -1.9606  -1.8477
    -1.6385  -1.5619  -1.5039  -1.4918  -1.4622  -1.4581  -1.1991  -1.1948
    -1.1446  -1.0761  -1.0313  -0.9746  -0.9219  -0.8848  -0.8702  -0.8445
    -0.8192  -0.7843  -0.6227  -0.5626  -0.2697  -0.0210   0.0340   0.0428
     0.0560   0.0582   0.1230   0.1286   0.1597   0.2228   0.5551   0.5871
     0.7760   0.7941   0.8633   0.8748   0.9407   0.9411   1.0046   1.0209
     1.0326   1.0379   1.1052   1.1468   1.4377   1.5102   1.5216   1.5287
     1.5413   1.5999   1.6419   1.8465   1.9032   2.0280   2.0474   2.2826
     2.3085   2.3268   2.3425   2.4128   2.5692   2.6660   2.7925   7.2180
     7.2767   7.2855   7.2933   7.3678   7.4205   7.4346   7.7341   7.9071
     8.2795   8.4023   8.4973   8.6185   8.6969   8.7233   8.7245   8.7357
     9.0830   9.1520

          k = 0.1250 0.0000 0.0000 ( 37614 PWs)   bands (ev):

   -38.6519 -38.5753 -23.2644 -23.2520 -23.1585 -23.1048 -19.1544 -19.0864
   -18.7591 -18.6844 -18.6478 -18.5677 -15.8629 -15.8113 -15.0448 -14.9950
   -14.8155 -14.8048 -14.7466 -14.7044 -14.6927 -14.5318 -14.4752 -14.2658
   -14.2525 -14.0188 -12.7983  -8.5374  -8.5135  -8.4941  -8.3616  -8.2400
    -8.2283  -8.2139  -8.2023  -8.0582  -8.0402  -8.0099  -7.9372  -2.6946
    -2.6522  -2.6062  -2.5303  -2.5282  -2.4809  -2.3549  -2.3403  -2.3116
    -2.2727  -2.2697  -2.2139  -2.0711  -1.4005  -1.3384  -0.9577  -0.9410
    -0.9385  -0.8496  -0.7825  -0.6715  -0.6543  -0.6516  -0.6405  -0.5909
    -0.5633  -0.5629  -0.5278  -0.3946  -0.3396  -0.3052  -0.2917  -0.1487
    -0.0981  -0.0816  -0.0320  -0.0218  -0.0022   0.0091   0.0386   0.0459
     0.0534   0.1214   0.1332   0.1436   0.1538   0.1587   0.1810   0.1921
     0.3901   0.4490   0.4956   0.5272   0.5367   0.7293   0.7367   0.7534
     0.7719   0.7780   0.8358   0.9465   0.9687   1.0140   1.0790   1.2034
     1.2207   1.3581   1.4925   1.5344   1.6253   1.6330   1.7011   1.7769
     1.7979   2.0321   2.0375   2.1343   2.1791   2.2118   2.3274   4.8505
     4.9784   4.9877   5.5625   5.6320   6.1308   6.4099   6.4210   6.6428
     6.6642   7.1239   7.2822   7.6206   7.6939   7.8238   8.0133   8.2944
     8.3909   8.4441

          k = 0.1250 0.1281 0.0000 ( 37634 PWs)   bands (ev):

   -38.6496 -38.5730 -23.2435 -23.2312 -23.1405 -23.0844 -19.1189 -19.0508
   -18.7633 -18.7425 -18.6869 -18.6643 -15.7549 -15.7043 -15.0429 -14.9910
   -14.8116 -14.8013 -14.7158 -14.6853 -14.6645 -14.5852 -14.5294 -14.2654
   -14.2509 -14.0418 -12.8480  -8.5253  -8.5009  -8.4844  -8.3881  -8.3759
    -8.3469  -8.2098  -8.1354  -8.0901  -8.0785  -7.9226  -7.8314  -2.7970
    -2.7611  -2.7500  -2.6666  -2.5591  -2.5156  -2.4055  -2.3700  -2.3436
    -2.3227  -2.1931  -2.1252  -2.0705  -1.4777  -1.4605  -1.4322  -1.3063
    -1.2487  -1.1655  -1.1204  -0.9565  -0.9398  -0.8593  -0.8289  -0.7333
    -0.6196  -0.6106  -0.4995  -0.4149  -0.3997  -0.3300  -0.3183  -0.2230
    -0.2108  -0.1789  -0.1461  -0.0593  -0.0496  -0.0066  -0.0032   0.0362
     0.0855   0.0891   0.0998   0.1070   0.2190   0.2205   0.3405   0.3699
     0.4615   0.5143   0.6023   0.6468   0.6633   0.6817   0.7224   0.7771
     0.7798   0.9200   0.9653   0.9937   1.0432   1.0609   1.1087   1.3357
     1.3475   1.3906   1.4012   1.4090   1.5103   1.7134   1.8441   1.9460
     2.0752   2.1386   2.2873   2.3389   2.3525   2.5066   2.5230   5.1398
     5.2944   5.3084   5.7693   5.8434   6.2875   6.7189   6.7325   6.9269
     6.9647   7.3434   7.4715   7.5323   7.6209   7.9834   8.1505   8.3919
     8.4903   8.5468

          k = 0.1250 0.2563 0.0000 ( 37688 PWs)   bands (ev):

   -38.6441 -38.5674 -23.1924 -23.1800 -23.0963 -23.0342 -19.0291 -18.9752
   -18.9607 -18.8962 -18.7435 -18.6686 -15.5088 -15.4617 -15.0886 -15.0301
   -14.8393 -14.8192 -14.6840 -14.6590 -14.6305 -14.6185 -14.5878 -14.2400
   -14.2232 -14.0795 -12.9696  -8.5115  -8.5025  -8.4976  -8.4462  -8.4319
    -8.3301  -8.3034  -8.2137  -8.0461  -8.0345  -7.8868  -7.7938  -3.2339
    -3.1901  -3.0256  -2.9589  -2.5377  -2.5264  -2.4680  -2.4154  -2.4007
    -2.3583  -2.3290  -2.2383  -2.2258  -2.1162  -2.0415  -2.0071  -1.5150
    -1.4546  -1.3559  -1.3136  -1.3019  -1.2893  -1.2476  -1.1853  -1.1477
    -0.7924  -0.7825  -0.7222  -0.6854  -0.5879  -0.5405  -0.5335  -0.4841
    -0.3056  -0.2986  -0.2429  -0.1344  -0.1079  -0.1018  -0.0135   0.0000
     0.0321   0.0895   0.1254   0.1400   0.1903   0.2373   0.4525   0.4963
     0.6905   0.7123   0.7389   0.8143   0.8259   0.9218   0.9234   0.9430
     0.9603   1.0634   1.1202   1.1345   1.2134   1.2187   1.3466   1.3515
     1.3695   1.4111   1.5144   1.7270   1.7411   1.8107   1.9162   2.1834
     2.2332   2.2938   2.4025   2.5162   2.7011   2.8151   2.8366   5.8367
     6.0944   6.1094   6.3579   6.4299   6.7317   7.2981   7.3817   7.5496
     7.5624   7.6963   7.7942   7.8918   8.0255   8.2003   8.2571   8.4880
     8.5517   8.6216

          k = 0.1250 0.3844 0.0000 ( 37697 PWs)   bands (ev):

   -38.6385 -38.5618 -23.1398 -23.1274 -23.0511 -22.9827 -19.1717 -19.0931
   -18.9323 -18.8636 -18.7336 -18.6587 -15.2631 -15.2325 -15.2081 -15.1334
   -14.9214 -14.8843 -14.6877 -14.6733 -14.6367 -14.5411 -14.5363 -14.1862
   -14.1680 -14.0836 -13.0919  -8.5160  -8.5051  -8.4778  -8.4158  -8.4012
    -8.3529  -8.2713  -8.1733  -8.0942  -8.0823  -7.9310  -7.8680  -3.6159
    -3.5760  -3.3522  -3.2818  -3.0621  -3.0470  -3.0458  -2.4565  -2.4475
    -2.3443  -2.2802  -2.2650  -2.2517  -2.1155  -2.0681  -2.0501  -1.7774
    -1.7583  -1.7548  -1.6754  -1.5744  -1.4793  -1.3523  -1.1827  -1.1236
    -0.9773  -0.9716  -0.9511  -0.9296  -0.8084  -0.7846  -0.7383  -0.7257
    -0.4218  -0.3989  -0.3153  -0.2823  -0.1648  -0.0247  -0.0157   0.0359
     0.0938   0.0983   0.1084   0.1452   0.1764   0.2375   0.5576   0.6156
     0.7407   0.7834   0.8738   0.9273   0.9500   0.9979   1.0111   1.0515
     1.0778   1.0823   1.1911   1.2916   1.3640   1.3856   1.4027   1.4041
     1.6590   1.7352   1.7462   1.9979   2.1380   2.1542   2.2128   2.2300
     2.2371   2.2692   2.4395   2.5108   2.7034   2.8162   2.8881   6.6209
     6.7889   6.8209   6.9847   7.0273   7.2154   7.2857   7.4225   8.0741
     8.1012   8.1256   8.1901   8.4428   8.5377   8.6377   8.6835   8.7436
     8.9087   9.2124

          k = 0.1250-0.5125 0.0000 ( 37648 PWs)   bands (ev):

   -38.6361 -38.5595 -23.1177 -23.1052 -23.0321 -22.9610 -19.2473 -19.1688
   -18.8898 -18.8210 -18.7294 -18.6546 -15.2841 -15.2296 -15.1212 -15.0831
   -14.9901 -14.9346 -14.7057 -14.6620 -14.6228 -14.5300 -14.5049 -14.1578
   -14.1391 -14.0745 -13.1420  -8.4907  -8.4797  -8.4691  -8.4018  -8.3866
    -8.3408  -8.2574  -8.1423  -8.1302  -8.0852  -7.9701  -7.9689  -3.7640
    -3.7258  -3.4980  -3.4208  -3.3027  -3.2872  -3.2828  -2.4730  -2.4668
    -2.2899  -2.2159  -2.1642  -2.1363  -2.1157  -2.1139  -2.0428  -1.9589
    -1.9193  -1.9082  -1.9032  -1.6572  -1.5253  -1.4091  -1.1345  -1.1038
    -1.0545  -1.0523  -1.0152  -0.9646  -0.8960  -0.8752  -0.8231  -0.7956
    -0.4675  -0.4287  -0.4004  -0.3541  -0.2681  -0.0187  -0.0019   0.0648
     0.0792   0.1096   0.1215   0.1804   0.2239   0.2329   0.6539   0.6878
     0.7861   0.8535   0.8780   0.9090   0.9271   1.0213   1.0430   1.0461
     1.0554   1.0577   1.1460   1.3289   1.4465   1.4658   1.4873   1.5876
     1.6255   2.0212   2.0406   2.1813   2.1998   2.2265   2.2633   2.3057
     2.3216   2.3757   2.4054   2.4118   2.5854   2.7262   2.8146   6.9553
     7.0171   7.0870   7.1090   7.1343   7.2990   7.3792   7.7979   7.8239
     8.3036   8.6020   8.6271   8.6831   8.8301   8.8676   8.8975   8.9588
     8.9927   9.1049

          k = 0.2500 0.0000 0.0000 ( 37738 PWs)   bands (ev):

   -38.6476 -38.5709 -23.2192 -23.2068 -23.1215 -23.0606 -19.0728 -19.0039
   -18.9738 -18.9011 -18.6417 -18.5616 -15.5992 -15.5449 -15.1526 -15.1091
   -14.9345 -14.9134 -14.8155 -14.6910 -14.6560 -14.5673 -14.5044 -14.2604
   -14.2459 -14.0342 -12.9768  -8.5243  -8.5180  -8.4997  -8.3877  -8.1700
    -8.1584  -8.1286  -8.1169  -8.0005  -7.9587  -7.9275  -7.8699  -2.9981
    -2.9631  -2.9229  -2.8282  -2.3956  -2.3924  -2.3881  -2.3375  -2.2749
    -2.2395  -2.1892  -2.1130  -2.1113  -1.4823  -1.4324  -1.1531  -1.0804
    -1.0433  -1.0395  -1.0282  -0.9510  -0.9357  -0.9308  -0.9166  -0.8603
    -0.8521  -0.6665  -0.6092  -0.5544  -0.3864  -0.3307  -0.3045  -0.2998
    -0.2504  -0.2211  -0.2136  -0.0513  -0.0350  -0.0308   0.0181   0.0317
     0.1333   0.1644   0.1685   0.1869   0.2027   0.2263   0.2584   0.2942
     0.3205   0.3685   0.3806   0.5853   0.5996   0.7323   0.7863   0.8190
     0.8267   0.8859   0.9086   1.0453   1.0748   1.0901   1.0979   1.1523
     1.1855   1.2013   1.5151   1.5260   1.5662   1.5686   1.6908   1.7258
     1.8832   2.0138   2.0564   2.1449   2.2546   2.3462   2.4560   5.2905
     5.4206   5.4336   6.1183   6.2066   6.5028   7.0425   7.0601   7.2370
     7.4058   7.5750   7.6027   7.6473   7.7370   8.2627   8.4095   8.4778
     8.6444   8.7499

          k = 0.2500 0.1281 0.0000 ( 37712 PWs)   bands (ev):

   -38.6453 -38.5686 -23.2002 -23.1878 -23.1047 -23.0419 -19.0388 -18.9697
   -18.9680 -18.8953 -18.7418 -18.6620 -15.4937 -15.4410 -15.1264 -15.0799
   -14.9069 -14.8894 -14.7766 -14.6668 -14.6331 -14.6300 -14.5663 -14.2501
   -14.2351 -14.0396 -12.9804  -8.5315  -8.5193  -8.4990  -8.4158  -8.4029
    -8.3927  -8.2325  -8.1803  -8.0159  -8.0044  -7.8619  -7.7620  -3.1424
    -3.0899  -2.9630  -2.8791  -2.4901  -2.4795  -2.4670  -2.4267  -2.3708
    -2.3644  -2.1037  -2.0946  -2.0237  -1.5245  -1.4766  -1.4664  -1.4642
    -1.4545  -1.3633  -1.3178  -1.3165  -1.2786  -1.1763  -1.1342  -0.8678
    -0.7548  -0.6990  -0.5615  -0.4861  -0.3898  -0.3465  -0.3197  -0.2579
    -0.2513  -0.2336  -0.1917  -0.1357  -0.1132  -0.0834  -0.0223  -0.0089
     0.0153   0.0769   0.1952   0.2176   0.2311   0.3250   0.3502   0.3665
     0.5135   0.5478   0.6797   0.7339   0.7503   0.8128   0.8308   0.8732
     0.9093   0.9370   1.0078   1.0157   1.0255   1.0588   1.1001   1.2414
     1.2504   1.3009   1.4362   1.4476   1.4661   1.5378   1.9776   2.2483
     2.2844   2.3497   2.3998   2.4778   2.5215   2.5852   2.6130   5.5092
     5.6620   5.6756   6.2535   6.3347   6.6308   7.2905   7.3207   7.3691
     7.4356   7.5041   7.6863   7.8307   7.9519   8.3069   8.3451   8.4481
     8.5208   8.5613

          k = 0.2500 0.2563 0.0000 ( 37709 PWs)   bands (ev):

   -38.6397 -38.5631 -23.1537 -23.1413 -23.0636 -22.9961 -18.9756 -18.9528
   -18.9379 -18.8990 -18.8832 -18.8630 -15.2584 -15.2153 -15.0805 -15.0172
   -14.8531 -14.8408 -14.7763 -14.7238 -14.6812 -14.6093 -14.5513 -14.2181
   -14.2016 -14.0531 -12.9939  -8.7177  -8.7061  -8.5364  -8.4818  -8.4648
    -8.4508  -8.4293  -8.3191  -8.1132  -8.1016  -7.9603  -7.8520  -3.5657
    -3.5069  -3.1863  -3.1074  -2.6245  -2.6096  -2.5921  -2.5327  -2.4679
    -2.4604  -2.3465  -2.2464  -2.2341  -2.0595  -2.0024  -1.9570  -1.8892
    -1.8710  -1.8407  -1.7585  -1.3496  -1.3100  -1.2810  -1.2040  -1.1098
    -0.8549  -0.8248  -0.6965  -0.6550  -0.6157  -0.5929  -0.5531  -0.5196
    -0.5099  -0.4001  -0.2887  -0.0960   0.0303   0.0421   0.0795   0.1616
     0.2081   0.2293   0.2688   0.2775   0.3744   0.3926   0.7272   0.7599
     0.7947   0.8143   0.8448   0.8790   0.8954   0.8986   0.9126   0.9648
     0.9880   1.0104   1.0320   1.0982   1.3071   1.3081   1.3699   1.4461
     1.4672   1.5441   1.5635   1.6522   1.6633   1.7504   2.2044   2.3169
     2.6969   2.7818   2.8070   2.8588   2.8917   3.0467   3.0791   6.0503
     6.1733   6.1877   6.5975   6.6435   6.9948   7.0966   7.2009   7.8302
     7.8468   7.9687   8.2009   8.2761   8.2943   8.3551   8.3904   8.5532
     8.6452   8.6742

          k = 0.2500 0.3844 0.0000 ( 37741 PWs)   bands (ev):

   -38.6342 -38.5576 -23.1062 -23.0937 -23.0217 -22.9493 -19.1572 -19.0786
   -18.9385 -18.8653 -18.8571 -18.7878 -15.1325 -15.0921 -15.0165 -14.9415
   -14.8388 -14.8214 -14.8178 -14.7864 -14.6272 -14.5187 -14.4937 -14.1750
   -14.1569 -14.0662 -13.0142  -8.8243  -8.8129  -8.6444  -8.5061  -8.4642
    -8.4434  -8.4289  -8.3501  -8.3383  -8.3036  -8.1805  -8.0985  -3.9789
    -3.9227  -3.5354  -3.4595  -3.0353  -3.0202  -3.0150  -2.6555  -2.6347
    -2.5740  -2.5111  -2.3598  -2.3531  -2.3479  -2.3205  -2.1273  -2.0786
    -2.0631  -1.8406  -1.7813  -1.3913  -1.3584  -1.3176  -1.2208  -1.1931
    -1.0738  -1.0101  -0.8579  -0.8443  -0.8257  -0.7826  -0.7746  -0.6125
    -0.5715  -0.4605  -0.3205  -0.0786   0.0962   0.1390   0.1802   0.2243
     0.2921   0.3279   0.4036   0.4853   0.5388   0.5894   0.7763   0.7958
     0.8065   0.8408   0.9419   1.0307   1.0649   1.1066   1.1099   1.1628
     1.2388   1.2660   1.3125   1.3155   1.3798   1.4009   1.4783   1.5331
     1.7461   1.7469   1.9860   2.0724   2.0878   2.1113   2.1888   2.2353
     2.6549   2.7153   2.8328   3.1331   3.1665   3.3227   3.3459   6.3295
     6.3513   6.4773   6.6020   6.6657   7.2177   7.4224   7.5597   7.9907
     8.1245   8.1989   8.2302   8.5848   8.7227   8.8174   8.8828   9.1109
     9.1851   9.2128

          k = 0.2500-0.5125 0.0000 ( 37754 PWs)   bands (ev):

   -38.6319 -38.5553 -23.0861 -23.0737 -23.0041 -22.9296 -19.2317 -19.1532
   -18.9327 -18.8595 -18.8164 -18.7470 -15.1818 -15.1243 -14.8958 -14.8616
   -14.8575 -14.8223 -14.8119 -14.7693 -14.6288 -14.4745 -14.4633 -14.1543
   -14.1357 -14.0719 -13.0244  -8.8088  -8.7977  -8.6409  -8.5096  -8.4976
    -8.4628  -8.4292  -8.4138  -8.4109  -8.3314  -8.3173  -8.2807  -4.1411
    -4.0862  -3.6925  -3.6157  -3.2754  -3.2662  -3.2586  -2.6502  -2.6276
    -2.5337  -2.5209  -2.4812  -2.4705  -2.3465  -2.3367  -2.2396  -2.1935
    -2.0650  -1.8405  -1.7869  -1.3982  -1.3709  -1.3423  -1.2231  -1.1701
    -1.1697  -1.0963  -0.9265  -0.9012  -0.9002  -0.8573  -0.8200  -0.6159
    -0.5893  -0.4696  -0.3268  -0.0686   0.1215   0.1562   0.2027   0.2333
     0.2765   0.3323   0.4096   0.5043   0.6686   0.7186   0.8504   0.8589
     0.8852   0.9270   1.0187   1.0705   1.0976   1.1487   1.1647   1.2138
     1.2153   1.2895   1.3115   1.3625   1.3855   1.5568   1.5770   1.8035
     1.8358   2.0160   2.0354   2.1455   2.2340   2.2510   2.2668   2.3708
     2.4957   2.5707   2.7604   3.1906   3.2253   3.3784   3.4007   6.2879
     6.3045   6.5040   6.5339   6.6092   7.4462   7.5800   7.6996   8.0389
     8.3231   8.6077   8.8058   8.8142   8.8378   8.9357   9.0852   9.1865
     9.2380   9.2588

          k = 0.3750 0.0000 0.0000 ( 37742 PWs)   bands (ev):

   -38.6432 -38.5666 -23.1729 -23.1605 -23.0838 -23.0154 -19.1631 -19.0915
   -18.9841 -18.9145 -18.6357 -18.5555 -15.3483 -15.3184 -15.2893 -15.2177
   -15.0660 -15.0280 -14.9168 -14.6753 -14.6546 -14.5608 -14.4941 -14.2490
   -14.2339 -14.0384 -13.1457  -8.5258  -8.5137  -8.4781  -8.3883  -8.1107
    -8.0993  -8.0393  -8.0275  -7.9697  -7.8735  -7.8512  -7.8003  -3.3241
    -3.2844  -3.1875  -3.1011  -2.4639  -2.4616  -2.2328  -2.1875  -2.1758
    -2.1489  -2.1404  -2.1112  -2.0709  -1.4937  -1.4574  -1.4487  -1.4230
    -1.4193  -1.2552  -1.2368  -1.2130  -1.1738  -1.0830  -1.0761  -0.9289
    -0.9121  -0.7592  -0.6989  -0.6950  -0.6486  -0.6232  -0.5585  -0.4401
    -0.3004  -0.2230  -0.1680  -0.1089  -0.0265  -0.0059   0.0047   0.0185
     0.1192   0.2247   0.2293   0.2446   0.2608   0.2820   0.3023   0.3125
     0.3493   0.4108   0.4223   0.6006   0.6232   0.6585   0.8673   0.8919
     0.9134   0.9829   0.9844   1.0289   1.0603   1.0814   1.2520   1.2963
     1.3330   1.3379   1.4032   1.4195   1.4423   1.4577   1.6666   1.7527
     1.7702   2.0351   2.0705   2.1880   2.2668   2.4501   2.5388   5.9250
     6.0575   6.0703   6.7246   6.7539   7.1250   7.5310   7.5496   7.5698
     7.6024   7.6354   7.9785   8.0310   8.2633   8.3666   8.4234   8.4965
     8.5941   9.0018

          k = 0.3750 0.1281 0.0000 ( 37694 PWs)   bands (ev):

   -38.6409 -38.5643 -23.1559 -23.1435 -23.0683 -22.9986 -19.1558 -19.0842
   -18.9512 -18.8815 -18.7340 -18.6542 -15.2839 -15.2601 -15.2094 -15.1288
   -15.0133 -14.9851 -14.8680 -14.6461 -14.6281 -14.6238 -14.5594 -14.2326
   -14.2173 -14.0319 -13.1109  -8.5267  -8.5136  -8.4754  -8.3924  -8.3574
    -8.3457  -8.1847  -8.1060  -8.0719  -8.0604  -7.9248  -7.8158  -3.4766
    -3.4231  -3.2392  -3.1570  -2.5045  -2.4910  -2.4314  -2.3945  -2.3000
    -2.2621  -2.1314  -2.0498  -1.9741  -1.8040  -1.7730  -1.7416  -1.6789
    -1.5087  -1.4724  -1.4590  -1.3487  -1.2946  -1.2889  -1.2061  -1.0341
    -0.9812  -0.7300  -0.6349  -0.5750  -0.4580  -0.4419  -0.4026  -0.3422
    -0.3181  -0.2921  -0.2819  -0.1997  -0.1382  -0.0653  -0.0613   0.0282
     0.1055   0.1247   0.1393   0.2933   0.3087   0.4048   0.4176   0.4225
     0.5936   0.6402   0.7011   0.7796   0.7817   0.8260   0.8751   0.8994
     0.9508   0.9615   1.0664   1.1223   1.1346   1.1818   1.2734   1.2978
     1.3030   1.3328   1.3545   1.3787   1.4574   1.5241   1.7468   2.3041
     2.3581   2.4046   2.4265   2.5103   2.5389   2.7314   2.7597   6.0733
     6.1800   6.1930   6.7969   6.8329   7.1831   7.1924   7.2881   7.6290
     7.6438   7.6943   8.1719   8.2991   8.3978   8.4119   8.4596   8.4989
     8.6531   8.9786

          k = 0.3750 0.2563 0.0000 ( 37739 PWs)   bands (ev):

   -38.6354 -38.5588 -23.1143 -23.1019 -23.0304 -22.9573 -19.1383 -19.0666
   -18.9493 -18.8702 -18.8680 -18.7979 -15.1667 -15.1389 -15.0170 -14.9546
   -14.8695 -14.8368 -14.7926 -14.7298 -14.7283 -14.5787 -14.5391 -14.1952
   -14.1790 -14.0263 -13.0240  -8.7668  -8.7552  -8.5899  -8.4913  -8.4832
    -8.4697  -8.4470  -8.3408  -8.3365  -8.3291  -8.1840  -8.0725  -3.9200
    -3.8565  -3.4687  -3.3859  -2.6943  -2.6744  -2.6154  -2.5729  -2.4725
    -2.4658  -2.3677  -2.3263  -2.3062  -2.2528  -2.2394  -2.1157  -2.0889
    -2.0637  -1.7667  -1.6967  -1.3382  -1.2871  -1.2421  -1.1794  -1.0694
    -0.9800  -0.9710  -0.7658  -0.7060  -0.6747  -0.6485  -0.6098  -0.5323
    -0.5101  -0.4083  -0.3227  -0.1243   0.0637   0.1889   0.2258   0.2386
     0.3830   0.4194   0.4907   0.5051   0.5642   0.6048   0.7744   0.8056
     0.8066   0.8412   0.9169   0.9413   0.9574   0.9843   1.0115   1.0945
     1.1442   1.1790   1.1872   1.2142   1.3451   1.3501   1.4922   1.4962
     1.5224   1.5505   1.5640   1.5675   1.6315   1.6727   2.1522   2.2660
     2.6970   2.7860   2.8189   3.2512   3.2758   3.3965   3.4216   6.1427
     6.1657   6.2557   6.5977   6.6534   7.1461   7.3025   7.4645   7.8646
     7.8842   7.9121   8.0233   8.5920   8.6585   8.6760   8.7238   8.8791
     9.0531   9.0871

          k = 0.3750 0.3844 0.0000 ( 37819 PWs)   bands (ev):

   -38.6299 -38.5533 -23.0719 -23.0595 -22.9919 -22.9153 -19.1439 -19.1180
   -19.0659 -19.0454 -18.7786 -18.7084 -15.0615 -15.0217 -14.9558 -14.9039
   -14.8600 -14.8296 -14.6969 -14.6434 -14.5525 -14.5186 -14.4593 -14.1621
   -14.1443 -14.0455 -12.9331  -9.0332  -9.0217  -8.8476  -8.7141  -8.6696
    -8.6579  -8.4916  -8.4711  -8.4679  -8.4504  -8.4156  -8.3292  -4.3724
    -4.3097  -3.8296  -3.7492  -3.0073  -2.9921  -2.9842  -2.7878  -2.7715
    -2.7621  -2.7214  -2.7062  -2.6574  -2.3613  -2.3587  -2.2550  -2.2076
    -2.0708  -1.6158  -1.5629  -1.4303  -1.3788  -1.2424  -1.2158  -1.1922
    -1.1327  -1.0459  -1.0248  -0.9625  -0.8971  -0.8780  -0.8361  -0.4672
    -0.4614  -0.3466  -0.3428  -0.0701   0.2006   0.3399   0.4901   0.5067
     0.5232   0.5389   0.7121   0.8538   0.9080   0.9341   0.9460   0.9596
     1.0016   1.0703   1.0794   1.1359   1.1447   1.1649   1.2205   1.2278
     1.2386   1.3159   1.3711   1.4468   1.4732   1.4769   1.6614   1.7577
     1.7772   1.9361   1.9931   1.9942   2.0093   2.1194   2.1342   2.3765
     2.6397   2.7151   2.8467   3.7921   3.8204   3.9068   3.9239   5.7859
     5.8007   6.0205   6.2905   6.3823   7.3776   7.6502   7.7866   7.8745
     8.2182   8.4454   8.4696   8.4823   8.5509   8.8774   8.9557   9.0821
     9.1409   9.1902

          k = 0.3750-0.5125 0.0000 ( 37814 PWs)   bands (ev):

   -38.6276 -38.5510 -23.0541 -23.0417 -22.9757 -22.8977 -19.2161 -19.1376
   -19.1126 -19.0407 -18.7395 -18.6691 -15.0713 -15.0091 -14.9668 -14.9306
   -14.7969 -14.7869 -14.6153 -14.5730 -14.5347 -14.4360 -14.4197 -14.1506
   -14.1320 -14.0695 -12.8942  -9.1121  -9.1008  -8.9298  -8.8249  -8.8130
    -8.7353  -8.6382  -8.6314  -8.4665  -8.4623  -8.4386  -8.3246  -4.5532
    -4.4912  -3.9947  -3.9151  -3.2457  -3.2393  -3.2299  -2.9027  -2.8601
    -2.8030  -2.7893  -2.7174  -2.6669  -2.3568  -2.3547  -2.3026  -2.2565
    -2.0534  -1.6371  -1.5901  -1.3870  -1.3364  -1.3023  -1.2733  -1.2728
    -1.1453  -1.1170  -1.0960  -1.0237  -0.9787  -0.9611  -0.9201  -0.4317
    -0.4289  -0.3480  -0.3073  -0.0446   0.2344   0.3567   0.5496   0.5652
     0.6014   0.6490   0.7880   0.9624   0.9660   0.9756   0.9914   1.0348
     1.1391   1.1459   1.1826   1.1835   1.2223   1.2433   1.2894   1.3830
     1.3956   1.4388   1.4396   1.4972   1.5303   1.5545   1.6394   1.9882
     2.0349   2.0539   2.1902   2.2060   2.2281   2.2654   2.2741   2.3147
     2.4696   2.5602   2.7755   3.9538   3.9845   4.0748   4.0902   5.5906
     5.6034   5.8509   6.1879   6.2933   7.5505   7.5859   7.7815   7.9755
     8.4865   8.5665   8.5814   8.7173   8.7946   8.8867   8.9650   9.0084
     9.0357   9.2105

          k =-0.5000 0.0000 0.0000 ( 37718 PWs)   bands (ev):

   -38.6414 -38.5647 -23.1534 -23.1409 -23.0679 -22.9963 -19.2352 -19.1641
   -18.9459 -18.8757 -18.6331 -18.5529 -15.3869 -15.3561 -15.1724 -15.1499
   -15.1082 -15.0911 -14.9628 -14.6843 -14.6775 -14.5495 -14.4821 -14.2432
   -14.2281 -14.0377 -13.2128  -8.5251  -8.5127  -8.4663  -8.3833  -8.0879
    -8.0766  -8.0010  -7.9892  -7.9627  -7.8370  -7.8209  -7.7708  -3.4475
    -3.4088  -3.3027  -3.2173  -2.4905  -2.4884  -2.1957  -2.1814  -2.1770
    -2.1554  -2.0975  -1.9320  -1.8883  -1.7334  -1.7003  -1.5491  -1.3876
    -1.3685  -1.3474  -1.3368  -1.3317  -1.2441  -1.1788  -1.1722  -0.9387
    -0.9230  -0.9062  -0.8878  -0.7778  -0.6776  -0.6399  -0.6370  -0.4977
    -0.2985  -0.2521  -0.1292  -0.0688  -0.0145  -0.0009   0.0049   0.0129
     0.1133   0.2396   0.2423   0.2546   0.2935   0.3082   0.3227   0.3266
     0.3424   0.3439   0.4233   0.5250   0.7545   0.7832   0.9083   0.9103
     0.9320   0.9488   0.9701   1.0006   1.0664   1.1083   1.1660   1.3728
     1.3805   1.3814   1.4022   1.4365   1.5004   1.5694   1.5746   1.7382
     1.7520   2.0242   2.0504   2.1895   2.2566   2.4636   2.5452   6.6949
     6.7507   6.7884   6.8609   6.9120   6.9263   7.0137   7.0945   7.5132
     7.5843   7.6337   8.0054   8.1521   8.2607   8.6654   8.7366   8.8103
     8.9127   8.9386

          k =-0.5000 0.1281 0.0000 ( 37704 PWs)   bands (ev):

   -38.6391 -38.5625 -23.1372 -23.1248 -23.0530 -22.9803 -19.2274 -19.1562
   -18.9135 -18.8433 -18.7307 -18.6509 -15.3382 -15.3067 -15.1002 -15.0565
   -15.0511 -14.9922 -14.9119 -14.6536 -14.6467 -14.6162 -14.5483 -14.2249
   -14.2095 -14.0274 -13.1639  -8.5210  -8.5079  -8.4644  -8.3808  -8.2231
    -8.2123  -8.2117  -8.2005  -8.0864  -8.0424  -7.9589  -7.9562  -3.6055
    -3.5529  -3.3627  -3.2807  -2.5153  -2.5064  -2.4211  -2.3819  -2.1910
    -2.0753  -2.0614  -2.0587  -2.0378  -2.0151  -1.9705  -1.8989  -1.8287
    -1.4882  -1.4795  -1.4632  -1.3727  -1.2727  -1.2215  -1.2184  -1.0973
    -1.0877  -0.7061  -0.6998  -0.6245  -0.4910  -0.4697  -0.4231  -0.4164
    -0.3883  -0.3450  -0.2950  -0.2475  -0.2382  -0.0624  -0.0508   0.0316
     0.1214   0.1909   0.2204   0.2863   0.3036   0.4386   0.4911   0.5057
     0.6116   0.6307   0.7537   0.7660   0.8639   0.8694   0.9181   0.9215
     0.9364   0.9674   1.0464   1.0859   1.0970   1.1380   1.3192   1.3510
     1.3595   1.4004   1.4082   1.4820   1.4878   1.5503   1.5668   2.2875
     2.3837   2.4128   2.4216   2.5034   2.5311   2.7530   2.7795   6.6196
     6.6386   6.7185   6.8996   7.0417   7.0805   7.0842   7.1913   7.2561
     7.2821   7.7175   8.0039   8.5743   8.6361   8.6827   8.7561   8.8749
     8.9198   9.0425

          k =-0.5000 0.2563 0.0000 ( 37750 PWs)   bands (ev):

   -38.6336 -38.5570 -23.0978 -23.0853 -23.0165 -22.9411 -19.2087 -19.1374
   -18.9448 -18.8657 -18.8319 -18.7614 -15.2158 -15.1821 -14.9729 -14.9463
   -14.8006 -14.7773 -14.7719 -14.7513 -14.6933 -14.5788 -14.5723 -14.1854
   -14.1693 -14.0149 -13.0381  -8.6889  -8.6773  -8.5344  -8.5228  -8.5169
    -8.4893  -8.4775  -8.4639  -8.3720  -8.3562  -8.3428  -8.2892  -4.0622
    -3.9981  -3.6050  -3.5227  -2.7113  -2.6902  -2.6015  -2.5628  -2.5219
    -2.4777  -2.4667  -2.4596  -2.2892  -2.2543  -2.2409  -2.1956  -2.1424
    -2.1072  -1.7378  -1.6679  -1.3202  -1.2699  -1.2010  -1.0998  -1.0912
    -1.0784  -0.9670  -0.7666  -0.7070  -0.7068  -0.6924  -0.6380  -0.5283
    -0.5113  -0.4020  -0.3367  -0.1388   0.0820   0.2305   0.2556   0.2629
     0.3935   0.4637   0.5201   0.5476   0.7238   0.7645   0.8059   0.8577
     0.8657   0.8961   0.9674   1.0184   1.0430   1.0535   1.0561   1.0610
     1.0892   1.1816   1.2324   1.2856   1.3854   1.4699   1.4959   1.5056
     1.5090   1.5121   1.5236   1.5995   1.6404   1.8399   1.8993   2.2251
     2.6957   2.7826   2.8187   3.3626   3.3857   3.4913   3.5146   6.1072
     6.1237   6.3058   6.5063   6.5999   7.3057   7.4807   7.5455   7.9201
     7.9426   7.9708   7.9898   8.6380   8.6959   8.7956   8.8436   8.9217
     9.0922   9.1318

          k =-0.5000 0.3844 0.0000 ( 37858 PWs)   bands (ev):

   -38.6281 -38.5515 -23.0576 -23.0451 -22.9794 -22.9011 -19.1899 -19.1358
   -19.1185 -19.0571 -18.7443 -18.6736 -15.0870 -15.0512 -14.9506 -14.8861
   -14.8271 -14.8203 -14.5958 -14.5604 -14.5022 -14.5020 -14.4904 -14.1563
   -14.1387 -14.0360 -12.8985  -9.0825  -9.0710  -8.8980  -8.8283  -8.8165
    -8.7323  -8.6414  -8.6204  -8.4849  -8.4744  -8.4439  -8.3436  -4.5336
    -4.4695  -3.9718  -3.8913  -2.9954  -2.9803  -2.9717  -2.9061  -2.8613
    -2.8198  -2.8067  -2.7351  -2.6905  -2.3603  -2.3580  -2.2927  -2.2439
    -2.0709  -1.5300  -1.4950  -1.4735  -1.4491  -1.2146  -1.1954  -1.1779
    -1.1660  -1.1009  -1.0152  -0.9896  -0.9277  -0.9128  -0.8720  -0.4105
    -0.3994  -0.3603  -0.2941  -0.0650   0.2330   0.3808   0.6141   0.6183
     0.6685   0.7147   0.8504   0.9283   0.9362   0.9718   0.9870   1.0900
     1.0930   1.1133   1.1261   1.1723   1.2181   1.2454   1.3040   1.3226
     1.3552   1.4111   1.4113   1.4527   1.4852   1.5639   1.6345   1.7628
     1.7951   1.9558   1.9711   2.0196   2.0628   2.0703   2.2868   2.2886
     2.6374   2.7133   2.8521   4.0164   4.0433   4.1133   4.1281   5.5484
     5.5620   5.8016   6.1793   6.2857   7.5002   7.6211   7.7755   7.9565
     8.2550   8.4089   8.4858   8.6418   8.8097   8.8352   8.9467   8.9885
     9.1006   9.1472

          k =-0.5000-0.5125 0.0000 ( 37836 PWs)   bands (ev):

   -38.6259 -38.5492 -23.0407 -23.0282 -22.9639 -22.8843 -19.2097 -19.1821
   -19.1311 -19.1107 -18.7060 -18.6352 -15.0323 -15.0226 -14.9962 -14.9576
   -14.7558 -14.7551 -14.5205 -14.4775 -14.4676 -14.4515 -14.3977 -14.1488
   -14.1302 -14.0683 -12.8357  -9.2345  -9.2231  -9.0471  -8.9458  -8.9339
    -8.8708  -8.7593  -8.7486  -8.4824  -8.4756  -8.4396  -8.3404  -4.7228
    -4.6594  -4.1391  -4.0593  -3.2333  -3.2277  -3.2177  -3.0364  -2.9926
    -2.8469  -2.8348  -2.7581  -2.7119  -2.3484  -2.3467  -2.3262  -2.2789
    -2.0437  -1.5751  -1.5310  -1.4553  -1.4061  -1.3161  -1.2340  -1.2226
    -1.2127  -1.1136  -1.0895  -1.0852  -1.0108  -0.9961  -0.9573  -0.3671
    -0.3599  -0.3561  -0.2542  -0.0333   0.2701   0.4014   0.6769   0.7422
     0.8819   0.9259   0.9740   0.9909   1.0071   1.0203   1.0293   1.0394
     1.0594   1.1375   1.2367   1.2653   1.3118   1.3250   1.3534   1.5105
     1.5330   1.5393   1.5461   1.5524   1.5577   1.6741   1.7594   1.8682
     2.0551   2.0737   2.1629   2.1786   2.2414   2.2765   2.4484   2.4609
     2.4644   2.5548   2.7846   4.2298   4.2579   4.3435   4.3569   5.3002
     5.3126   5.5723   6.0688   6.1850   7.5361   7.5645   7.8757   7.8939
     8.2119   8.4025   8.6468   8.7241   8.7558   8.7597   8.9318   9.0054
     9.0242   9.0777

     the Fermi energy is     2.4591 ev

!    total energy              =   -1868.72223557 Ry
     Harris-Foulkes estimate   =   -1868.72223601 Ry
     estimated scf accuracy    <       0.00000049 Ry

     The total energy is the sum of the following terms:

     one-electron contribution =  -24728.84354596 Ry
     hartree contribution      =   12514.75956603 Ry
     xc contribution           =    -642.19934016 Ry
     ewald contribution        =   10987.57181323 Ry
     smearing contrib. (-TS)   =      -0.01072871 Ry

     convergence has been achieved in  35 iterations

     negative rho (up, down):  9.052E-02 0.000E+00

     Forces acting on atoms (cartesian axes, Ry/au):

     atom    1 type  3   force =     0.00000000    0.00000000   -0.00059973
     atom    2 type  2   force =     0.00000000    0.00000000    0.00043549
     atom    3 type  3   force =     0.00000000    0.00000000    0.00032795
     atom    4 type  1   force =     0.00000000    0.00000000   -0.00022760
     atom    5 type  2   force =     0.00000000    0.00000000   -0.00029009
     atom    6 type  3   force =     0.00000000    0.00000000    0.00132402
     atom    7 type  3   force =     0.00000000    0.00000000    0.00103468
     atom    8 type  4   force =     0.00000000    0.00000000   -0.00289372
     atom    9 type  3   force =     0.00000000    0.00000000    0.00504947
     atom   10 type  3   force =     0.00000000    0.00000000    0.00347780
     atom   11 type  2   force =     0.00000000    0.00000000   -0.00154502
     atom   12 type  1   force =     0.00000000    0.00000000    0.01649852
     atom   13 type  3   force =     0.00000000    0.00000000   -0.01937247
     atom   14 type  3   force =     0.00000000    0.00000000    0.02174561
     atom   15 type  2   force =     0.00000000    0.00000000   -0.02386093
     atom   16 type  3   force =     0.00000000    0.00000000    0.01868749
     atom   17 type  1   force =     0.00000000    0.00000000   -0.00242068
     atom   18 type  2   force =     0.00000000    0.00000000   -0.02264293
     atom   19 type  3   force =     0.00000000    0.00000000    0.00421848
     atom   20 type  3   force =     0.00000000    0.00000000    0.00304419
     atom   21 type  4   force =     0.00000000    0.00000000   -0.00092382
     atom   22 type  3   force =     0.00000000    0.00000000   -0.00059229
     atom   23 type  3   force =     0.00000000    0.00000000    0.00078418
     atom   24 type  2   force =     0.00000000    0.00000000    0.00008818
     atom   25 type  1   force =     0.00000000    0.00000000    0.00002170
     atom   26 type  3   force =     0.00000000    0.00000000   -0.00196982
     atom   27 type  2   force =     0.00000000    0.00000000    0.00034622
     atom   28 type  3   force =     0.00000000    0.00000000    0.00025511

     Total force =     0.051404     Total SCF correction =     0.002066


     Computing stress (Cartesian axis) and pressure


     negative rho (up, down):  9.052E-02 0.000E+00
          total   stress  (Ry/bohr**3)                   (kbar)     P=       -6.03
   0.00000239   0.00000000   0.00000000            0.35        0.00        0.00
   0.00000000  -0.00010338   0.00000000            0.00      -15.21        0.00
   0.00000000   0.00000000  -0.00002193            0.00        0.00       -3.23

 
     init_run     :      9.22s CPU      9.82s WALL (       1 calls)
     electrons    :    579.13s CPU    600.29s WALL (       1 calls)
     forces       :      3.89s CPU      4.07s WALL (       1 calls)
     stress       :     19.60s CPU     20.06s WALL (       1 calls)

     Called by init_run:
     wfcinit      :      6.44s CPU      6.64s WALL (       1 calls)
     potinit      :      0.66s CPU      0.69s WALL (       1 calls)
     hinit0       :      1.05s CPU      1.23s WALL (       1 calls)

     Called by electrons:
     c_bands      :    446.26s CPU    456.79s WALL (      35 calls)
     sum_band     :     87.86s CPU     93.62s WALL (      35 calls)
     v_of_rho     :      2.57s CPU      2.61s WALL (      36 calls)
     newd         :     25.33s CPU     30.11s WALL (      36 calls)
     mix_rho      :     17.65s CPU     17.82s WALL (      35 calls)

     Called by c_bands:
     init_us_2    :      3.78s CPU      3.80s WALL (    1825 calls)
     cegterg      :    418.78s CPU    428.79s WALL (     875 calls)

     Called by sum_band:
     sum_band:bec :      0.25s CPU      0.25s WALL (     875 calls)
     addusdens    :     25.14s CPU     30.15s WALL (      35 calls)

     Called by *egterg:
     h_psi        :    214.84s CPU    221.78s WALL (    3614 calls)
     s_psi        :     21.90s CPU     22.05s WALL (    3614 calls)
     g_psi        :      0.67s CPU      0.67s WALL (    2714 calls)
     cdiaghg      :     99.98s CPU    100.47s WALL (    3589 calls)

     Called by h_psi:
     h_psi:calbec :     25.61s CPU     26.65s WALL (    3614 calls)
     vloc_psi     :    165.49s CPU    168.11s WALL (    3614 calls)
     add_vuspsi   :     22.77s CPU     24.60s WALL (    3614 calls)

     General routines
     calbec       :     41.17s CPU     42.26s WALL (    4614 calls)
     fft          :      2.00s CPU      2.12s WALL (     491 calls)
     ffts         :      9.46s CPU      9.57s WALL (   16315 calls)
     fftw         :    189.76s CPU    192.75s WALL (  624540 calls)
     interpolate  :      0.15s CPU      0.17s WALL (      36 calls)
 
     Parallel routines
     fft_scatt_xy :     24.52s CPU     24.85s WALL (  641346 calls)
     fft_scatt_yz :    114.75s CPU    116.53s WALL (  641346 calls)
 
     PWSCF        :  10m12.58s CPU  10m35.34s WALL

 
   This run was terminated on:  18:10:17   5May2021            

=------------------------------------------------------------------------------=
   JOB DONE.
=------------------------------------------------------------------------------=
[1620252617.616109] [holy7c08411:20045:0]          mpool.c:43   UCX  WARN  object 0x3da3940 was not returned to mpool ucp_requests
[1620252617.623481] [holy7c08309:98366:0]          mpool.c:43   UCX  WARN  object 0x2e5f900 was not returned to mpool ucp_requests
[1620252617.621999] [holy7c08409:84563:0]          mpool.c:43   UCX  WARN  object 0x39fec00 was not returned to mpool ucp_requests
[1620252617.622020] [holy7c08409:84563:0]          mpool.c:43   UCX  WARN  object 0x39fef80 was not returned to mpool ucp_requests
[1620252617.622785] [holy7c08405:131906:0]          mpool.c:43   UCX  WARN  object 0x3d34500 was not returned to mpool ucp_requests
[1620252617.622809] [holy7c08405:131906:0]          mpool.c:43   UCX  WARN  object 0x3d34a40 was not returned to mpool ucp_requests
[1620252617.624225] [holy7c08407:246225:0]          mpool.c:43   UCX  WARN  object 0x2b6a100 was not returned to mpool ucp_requests
[1620252617.616957] [holy7c08411:20046:0]          mpool.c:43   UCX  WARN  object 0x343b340 was not returned to mpool ucp_requests
[1620252617.624243] [holy7c08309:98367:0]          mpool.c:43   UCX  WARN  object 0x38c9ec0 was not returned to mpool ucp_requests
