
     Program PWSCF v.6.5 starts on  5May2021 at 17:59:33 

     This program is part of the open-source Quantum ESPRESSO suite
     for quantum simulation of materials; please cite
         "P. Giannozzi et al., J. Phys.:Condens. Matter 21 395502 (2009);
         "P. Giannozzi et al., J. Phys.:Condens. Matter 29 465901 (2017);
          URL http://www.quantum-espresso.org", 
     in publications or presentations arising from this work. More details at
     http://www.quantum-espresso.org/quote

     Parallel version (MPI), running on    20 processors

     MPI processes distributed on    13 nodes
     R & G space division:  proc/nbgrp/npool/nimage =      20
     Reading input from YBCO_CuO_cleave_3.5_sep_scf.pwi
Warning: card &IONS ignored
Warning: card     ION_DYNAMICS = 'BFGS' ignored
Warning: card / ignored
Warning: card &CELL ignored
Warning: card     CELL_DYNAMICS = 'BFGS' ignored
Warning: card / ignored

     Current dimensions of program PWSCF are:
     Max number of different atomic species (ntypx) = 10
     Max number of k-points (npk) =  40000
     Max angular momentum in pseudopotentials (lmaxx) =  3

     Subspace diagonalization in iterative solution of the eigenvalue problem:
     one sub-group per band group will be used
     scalapack distributed-memory algorithm (size of sub-group:  4*  4 procs)

     Message from routine setup:
     using ibrav=0 with symmetry is DISCOURAGED, use correct ibrav instead
 
     Parallelization info
     --------------------
     sticks:   dense  smooth     PW     G-vecs:    dense   smooth      PW
     Min         150      50     14                76742    14760    2302
     Max         151      52     15                76785    14783    2351
     Sum        3015    1011    293              1535249   295383   46557
 


     bravais-lattice index     =            0
     lattice parameter (alat)  =       7.3477  a.u.
     unit-cell volume          =    4705.1293 (a.u.)^3
     number of atoms/cell      =           28
     number of atomic types    =            4
     number of electrons       =       229.00
     number of Kohn-Sham states=          138
     kinetic-energy cutoff     =      60.0000  Ry
     charge density cutoff     =     720.0000  Ry
     convergence threshold     =      1.0E-06
     mixing beta               =       0.2000
     number of iterations used =           10  local-TF  mixing
     Exchange-correlation= SLA PW PBE PBE
                           (   1   4   3   4   0   0   0)

     celldm(1)=   7.347715  celldm(2)=   0.000000  celldm(3)=   0.000000
     celldm(4)=   0.000000  celldm(5)=   0.000000  celldm(6)=   0.000000

     crystal axes: (cart. coord. in units of alat)
               a(1) = (   1.000000   0.000000   0.000000 )  
               a(2) = (   0.000000   0.975577   0.000000 )  
               a(3) = (   0.000000   0.000000  12.157743 )  

     reciprocal axes: (cart. coord. in units 2 pi/alat)
               b(1) = (  1.000000  0.000000  0.000000 )  
               b(2) = (  0.000000  1.025034  0.000000 )  
               b(3) = (  0.000000  0.000000  0.082252 )  


     PseudoPot. # 1 for Ba read from file:
     /n/holyscratch01/hoffman_lab/ruizhe/YBCO_Project/pseudo/Ba.pbe-nsp-van.UPF
     MD5 check sum: 2b9c31dd849566dd297d80989662b7a0
     Pseudo is Ultrasoft + core correction, Zval = 10.0
     Generated by new atomic code, or converted to UPF format
     Using radial grid of  907 points,  6 beta functions with: 
                l(1) =   0
                l(2) =   0
                l(3) =   1
                l(4) =   1
                l(5) =   2
                l(6) =   2
     Q(r) pseudized with  6 coefficients,  rinner =    1.200   1.200   1.200
                                                       1.200   1.200

     PseudoPot. # 2 for Cu read from file:
     /n/holyscratch01/hoffman_lab/ruizhe/YBCO_Project/pseudo/Cu.pbe-n-van_ak.UPF
     MD5 check sum: 34e3282627ffb533726feb647e090d62
     Pseudo is Ultrasoft + core correction, Zval = 11.0
     Generated by new atomic code, or converted to UPF format
     Using radial grid of  867 points,  6 beta functions with: 
                l(1) =   0
                l(2) =   0
                l(3) =   1
                l(4) =   1
                l(5) =   2
                l(6) =   2
     Q(r) pseudized with  8 coefficients,  rinner =    1.400   1.400   1.400
                                                       1.400   1.400

     PseudoPot. # 3 for O  read from file:
     /n/holyscratch01/hoffman_lab/ruizhe/YBCO_Project/pseudo/O.pbe-van_ak.UPF
     MD5 check sum: 783ce7fe4c79b6a4916957118fed0856
     Pseudo is Ultrasoft, Zval =  6.0
     Generated by new atomic code, or converted to UPF format
     Using radial grid of  737 points,  4 beta functions with: 
                l(1) =   0
                l(2) =   0
                l(3) =   1
                l(4) =   1
     Q(r) pseudized with  8 coefficients,  rinner =    0.800   0.800   0.800


     PseudoPot. # 4 for Y  read from file:
     /n/holyscratch01/hoffman_lab/ruizhe/YBCO_Project/pseudo/Y.pbe-nsp-van.UPF
     MD5 check sum: 4412fed3ab108fed87a1b7d6a69a4a38
     Pseudo is Ultrasoft + core correction, Zval = 11.0
     Generated by new atomic code, or converted to UPF format
     Using radial grid of  885 points,  6 beta functions with: 
                l(1) =   0
                l(2) =   0
                l(3) =   1
                l(4) =   1
                l(5) =   2
                l(6) =   2
     Q(r) pseudized with  6 coefficients,  rinner =    1.200   1.200   1.200
                                                       1.200   1.200

     atomic species   valence    mass     pseudopotential
        Ba            10.00   137.32700     Ba( 1.00)
        Cu            11.00    63.54600     Cu( 1.00)
        O              6.00    15.99900     O ( 1.00)
        Y             11.00    88.90584     Y ( 1.00)

      4 Sym. Ops. (no inversion) found



   Cartesian axes

     site n.     atom                  positions (alat units)
         1           O   tau(   1) = (   0.0000000   0.4877884  -0.0257983  )
         2           Cu  tau(   2) = (   0.0000000   0.0000000   0.0215779  )
         3           O   tau(   3) = (   0.0000000   0.0000000   0.5073114  )
         4           Ba  tau(   4) = (   0.4999996   0.4877884   0.5319677  )
         5           Cu  tau(   5) = (   0.0000000   0.0000000   1.0495845  )
         6           O   tau(   6) = (   0.4999996   0.0000000   1.1181579  )
         7           O   tau(   7) = (   0.0000000   0.4877884   1.1273137  )
         8           Y   tau(   8) = (   0.4999996   0.4877884   1.4938777  )
         9           O   tau(   9) = (   0.0000000   0.4877884   1.8497402  )
        10           O   tau(  10) = (   0.4999996   0.0000000   1.8692709  )
        11           Cu  tau(  11) = (   0.0000000   0.0000000   1.9417560  )
        12           Ba  tau(  12) = (   0.4999996   0.4877884   2.4526063  )
        13           O   tau(  13) = (   0.0000000   0.0000000   2.5103470  )
        14           O   tau(  14) = (   0.0000000   0.4877884   2.9968469  )
        15           Cu  tau(  15) = (   0.0000000   0.0000000   2.9968521  )
        16           O   tau(  16) = (   0.0000000   0.0000000   4.3834782  )
        17           Ba  tau(  17) = (   0.4999996   0.4877884   4.4412112  )
        18           Cu  tau(  18) = (   0.0000000   0.0000000   4.9520846  )
        19           O   tau(  19) = (   0.4999996   0.0000000   5.0245569  )
        20           O   tau(  20) = (   0.0000000   0.4877884   5.0440696  )
        21           Y   tau(  21) = (   0.4999996   0.4877884   5.3999347  )
        22           O   tau(  22) = (   0.0000000   0.4877884   5.7664987  )
        23           O   tau(  23) = (   0.4999996   0.0000000   5.7756673  )
        24           Cu  tau(  24) = (   0.0000000   0.0000000   5.8442459  )
        25           Ba  tau(  25) = (   0.4999996   0.4877884   6.3618472  )
        26           O   tau(  26) = (   0.0000000   0.0000000   6.3865036  )
        27           Cu  tau(  27) = (   0.0000000   0.0000000   6.8722088  )
        28           O   tau(  28) = (   0.0000000   0.4877884   6.9195901  )

     number of k points=    25  Gaussian smearing, width (Ry)=  0.0100
                       cart. coord. in units 2pi/alat
        k(    1) = (   0.0000000   0.0000000   0.0000000), wk =   0.0312500
        k(    2) = (   0.0000000   0.1281293   0.0000000), wk =   0.0625000
        k(    3) = (   0.0000000   0.2562585   0.0000000), wk =   0.0625000
        k(    4) = (   0.0000000   0.3843878   0.0000000), wk =   0.0625000
        k(    5) = (   0.0000000  -0.5125170   0.0000000), wk =   0.0312500
        k(    6) = (   0.1250000   0.0000000   0.0000000), wk =   0.0625000
        k(    7) = (   0.1250000   0.1281293   0.0000000), wk =   0.1250000
        k(    8) = (   0.1250000   0.2562585   0.0000000), wk =   0.1250000
        k(    9) = (   0.1250000   0.3843878   0.0000000), wk =   0.1250000
        k(   10) = (   0.1250000  -0.5125170   0.0000000), wk =   0.0625000
        k(   11) = (   0.2500000   0.0000000   0.0000000), wk =   0.0625000
        k(   12) = (   0.2500000   0.1281293   0.0000000), wk =   0.1250000
        k(   13) = (   0.2500000   0.2562585   0.0000000), wk =   0.1250000
        k(   14) = (   0.2500000   0.3843878   0.0000000), wk =   0.1250000
        k(   15) = (   0.2500000  -0.5125170   0.0000000), wk =   0.0625000
        k(   16) = (   0.3750000   0.0000000   0.0000000), wk =   0.0625000
        k(   17) = (   0.3750000   0.1281293   0.0000000), wk =   0.1250000
        k(   18) = (   0.3750000   0.2562585   0.0000000), wk =   0.1250000
        k(   19) = (   0.3750000   0.3843878   0.0000000), wk =   0.1250000
        k(   20) = (   0.3750000  -0.5125170   0.0000000), wk =   0.0625000
        k(   21) = (  -0.5000000   0.0000000   0.0000000), wk =   0.0312500
        k(   22) = (  -0.5000000   0.1281293   0.0000000), wk =   0.0625000
        k(   23) = (  -0.5000000   0.2562585   0.0000000), wk =   0.0625000
        k(   24) = (  -0.5000000   0.3843878   0.0000000), wk =   0.0625000
        k(   25) = (  -0.5000000  -0.5125170   0.0000000), wk =   0.0312500

     Dense  grid:  1535249 G-vectors     FFT dimensions: (  64,  64, 768)

     Smooth grid:   295383 G-vectors     FFT dimensions: (  40,  36, 450)

     Estimated max dynamical RAM per process >     489.94 MB

     Estimated total dynamical RAM >       9.57 GB

     Initial potential from superposition of free atoms

     starting charge  228.84827, renormalised to  229.00000

     negative rho (up, down):  8.944E-02 0.000E+00
     Starting wfcs are  201 randomized atomic wfcs

     total cpu time spent up to now is       12.5 secs

     Self-consistent Calculation

     iteration #  1     ecut=    60.00 Ry     beta= 0.20
     Davidson diagonalization with overlap
     ethr =  1.00E-02,  avg # of iterations =  2.0

     negative rho (up, down):  8.729E-02 0.000E+00

     total cpu time spent up to now is       33.2 secs

     total energy              =   -1869.51647437 Ry
     Harris-Foulkes estimate   =   -1871.09726889 Ry
     estimated scf accuracy    <      13.38988103 Ry

     iteration #  2     ecut=    60.00 Ry     beta= 0.20
     Davidson diagonalization with overlap
     ethr =  5.85E-03,  avg # of iterations =  1.0

     negative rho (up, down):  8.604E-02 0.000E+00

     total cpu time spent up to now is       51.4 secs

     total energy              =   -1868.87497705 Ry
     Harris-Foulkes estimate   =   -1869.87004970 Ry
     estimated scf accuracy    <       5.82408702 Ry

     iteration #  3     ecut=    60.00 Ry     beta= 0.20
     Davidson diagonalization with overlap
     ethr =  2.54E-03,  avg # of iterations =  1.0

     negative rho (up, down):  8.564E-02 0.000E+00

     total cpu time spent up to now is       69.3 secs

     total energy              =   -1868.70353210 Ry
     Harris-Foulkes estimate   =   -1869.15312066 Ry
     estimated scf accuracy    <       4.15296132 Ry

     iteration #  4     ecut=    60.00 Ry     beta= 0.20
     Davidson diagonalization with overlap
     ethr =  1.81E-03,  avg # of iterations =  1.7

     negative rho (up, down):  8.585E-02 0.000E+00

     total cpu time spent up to now is       88.8 secs

     total energy              =   -1868.84021734 Ry
     Harris-Foulkes estimate   =   -1868.91549040 Ry
     estimated scf accuracy    <       2.22052077 Ry

     iteration #  5     ecut=    60.00 Ry     beta= 0.20
     Davidson diagonalization with overlap
     ethr =  9.70E-04,  avg # of iterations =  1.0

     negative rho (up, down):  8.642E-02 0.000E+00

     total cpu time spent up to now is      107.4 secs

     total energy              =   -1868.80548252 Ry
     Harris-Foulkes estimate   =   -1868.87947069 Ry
     estimated scf accuracy    <       1.16428712 Ry

     iteration #  6     ecut=    60.00 Ry     beta= 0.20
     Davidson diagonalization with overlap
     ethr =  5.08E-04,  avg # of iterations =  1.0

     negative rho (up, down):  8.710E-02 0.000E+00

     total cpu time spent up to now is      125.6 secs

     total energy              =   -1868.76196676 Ry
     Harris-Foulkes estimate   =   -1868.82356038 Ry
     estimated scf accuracy    <       0.45720000 Ry

     iteration #  7     ecut=    60.00 Ry     beta= 0.20
     Davidson diagonalization with overlap
     ethr =  2.00E-04,  avg # of iterations =  6.3

     negative rho (up, down):  8.769E-02 0.000E+00

     total cpu time spent up to now is      151.7 secs

     total energy              =   -1868.75501448 Ry
     Harris-Foulkes estimate   =   -1868.77833938 Ry
     estimated scf accuracy    <       0.32001800 Ry

     iteration #  8     ecut=    60.00 Ry     beta= 0.20
     Davidson diagonalization with overlap
     ethr =  1.40E-04,  avg # of iterations =  3.8

     negative rho (up, down):  8.891E-02 0.000E+00

     total cpu time spent up to now is      174.2 secs

     total energy              =   -1868.74297493 Ry
     Harris-Foulkes estimate   =   -1868.77404716 Ry
     estimated scf accuracy    <       0.55647247 Ry

     iteration #  9     ecut=    60.00 Ry     beta= 0.20
     Davidson diagonalization with overlap
     ethr =  1.40E-04,  avg # of iterations =  2.8

     negative rho (up, down):  8.944E-02 0.000E+00

     total cpu time spent up to now is      194.8 secs

     total energy              =   -1868.74751146 Ry
     Harris-Foulkes estimate   =   -1868.75140331 Ry
     estimated scf accuracy    <       0.40235553 Ry

     iteration # 10     ecut=    60.00 Ry     beta= 0.20
     Davidson diagonalization with overlap
     ethr =  1.40E-04,  avg # of iterations =  1.0

     negative rho (up, down):  9.014E-02 0.000E+00

     total cpu time spent up to now is      213.0 secs

     total energy              =   -1868.73209853 Ry
     Harris-Foulkes estimate   =   -1868.75012175 Ry
     estimated scf accuracy    <       0.35650702 Ry

     iteration # 11     ecut=    60.00 Ry     beta= 0.20
     Davidson diagonalization with overlap
     ethr =  1.40E-04,  avg # of iterations =  1.0

     negative rho (up, down):  9.066E-02 0.000E+00

     total cpu time spent up to now is      230.9 secs

     total energy              =   -1868.73221038 Ry
     Harris-Foulkes estimate   =   -1868.73945491 Ry
     estimated scf accuracy    <       0.35592418 Ry

     iteration # 12     ecut=    60.00 Ry     beta= 0.20
     Davidson diagonalization with overlap
     ethr =  1.40E-04,  avg # of iterations =  1.0

     negative rho (up, down):  9.070E-02 0.000E+00

     total cpu time spent up to now is      248.7 secs

     total energy              =   -1868.73185739 Ry
     Harris-Foulkes estimate   =   -1868.73566523 Ry
     estimated scf accuracy    <       0.29421900 Ry

     iteration # 13     ecut=    60.00 Ry     beta= 0.20
     Davidson diagonalization with overlap
     ethr =  1.28E-04,  avg # of iterations =  1.0

     negative rho (up, down):  9.049E-02 0.000E+00

     total cpu time spent up to now is      266.3 secs

     total energy              =   -1868.73015445 Ry
     Harris-Foulkes estimate   =   -1868.73290106 Ry
     estimated scf accuracy    <       0.08901199 Ry

     iteration # 14     ecut=    60.00 Ry     beta= 0.20
     Davidson diagonalization with overlap
     ethr =  3.89E-05,  avg # of iterations =  7.2

     negative rho (up, down):  8.997E-02 0.000E+00

     total cpu time spent up to now is      293.7 secs

     total energy              =   -1868.72789165 Ry
     Harris-Foulkes estimate   =   -1868.73080649 Ry
     estimated scf accuracy    <       0.02850155 Ry

     iteration # 15     ecut=    60.00 Ry     beta= 0.20
     Davidson diagonalization with overlap
     ethr =  1.24E-05,  avg # of iterations =  4.8

     negative rho (up, down):  9.041E-02 0.000E+00

     total cpu time spent up to now is      318.0 secs

     total energy              =   -1868.72829891 Ry
     Harris-Foulkes estimate   =   -1868.72874139 Ry
     estimated scf accuracy    <       0.03187221 Ry

     iteration # 16     ecut=    60.00 Ry     beta= 0.20
     Davidson diagonalization with overlap
     ethr =  1.24E-05,  avg # of iterations =  1.0

     negative rho (up, down):  8.932E-02 0.000E+00

     total cpu time spent up to now is      336.3 secs

     total energy              =   -1868.72776637 Ry
     Harris-Foulkes estimate   =   -1868.72842959 Ry
     estimated scf accuracy    <       0.02456823 Ry

     iteration # 17     ecut=    60.00 Ry     beta= 0.20
     Davidson diagonalization with overlap
     ethr =  1.07E-05,  avg # of iterations =  1.1

     negative rho (up, down):  8.923E-02 0.000E+00

     total cpu time spent up to now is      354.1 secs

     total energy              =   -1868.72667407 Ry
     Harris-Foulkes estimate   =   -1868.72801108 Ry
     estimated scf accuracy    <       0.03130056 Ry

     iteration # 18     ecut=    60.00 Ry     beta= 0.20
     Davidson diagonalization with overlap
     ethr =  1.07E-05,  avg # of iterations =  2.5

     negative rho (up, down):  9.843E-02 0.000E+00

     total cpu time spent up to now is      373.5 secs

     total energy              =   -1868.72557043 Ry
     Harris-Foulkes estimate   =   -1868.72680868 Ry
     estimated scf accuracy    <       0.02197493 Ry

     iteration # 19     ecut=    60.00 Ry     beta= 0.20
     Davidson diagonalization with overlap
     ethr =  9.60E-06,  avg # of iterations =  5.2

     negative rho (up, down):  1.019E-01 0.000E+00

     total cpu time spent up to now is      397.5 secs

     total energy              =   -1868.72504709 Ry
     Harris-Foulkes estimate   =   -1868.72571791 Ry
     estimated scf accuracy    <       0.01341268 Ry

     iteration # 20     ecut=    60.00 Ry     beta= 0.20
     Davidson diagonalization with overlap
     ethr =  5.86E-06,  avg # of iterations =  5.8

     negative rho (up, down):  1.059E-01 0.000E+00

     total cpu time spent up to now is      422.8 secs

     total energy              =   -1868.72424459 Ry
     Harris-Foulkes estimate   =   -1868.72516376 Ry
     estimated scf accuracy    <       0.00996321 Ry

     iteration # 21     ecut=    60.00 Ry     beta= 0.20
     Davidson diagonalization with overlap
     ethr =  4.35E-06,  avg # of iterations =  6.8

     negative rho (up, down):  1.025E-01 0.000E+00

     total cpu time spent up to now is      450.4 secs

     total energy              =   -1868.72357455 Ry
     Harris-Foulkes estimate   =   -1868.72441819 Ry
     estimated scf accuracy    <       0.00800255 Ry

     iteration # 22     ecut=    60.00 Ry     beta= 0.20
     Davidson diagonalization with overlap
     ethr =  3.49E-06,  avg # of iterations =  3.8

     negative rho (up, down):  1.009E-01 0.000E+00

     total cpu time spent up to now is      472.2 secs

     total energy              =   -1868.72346604 Ry
     Harris-Foulkes estimate   =   -1868.72374219 Ry
     estimated scf accuracy    <       0.00288880 Ry

     iteration # 23     ecut=    60.00 Ry     beta= 0.20
     Davidson diagonalization with overlap
     c_bands:  1 eigenvalues not converged
     c_bands:  1 eigenvalues not converged
     ethr =  1.26E-06,  avg # of iterations =  6.2

     negative rho (up, down):  1.076E-01 0.000E+00

     total cpu time spent up to now is      497.6 secs

     total energy              =   -1868.72341501 Ry
     Harris-Foulkes estimate   =   -1868.72349845 Ry
     estimated scf accuracy    <       0.00212681 Ry

     iteration # 24     ecut=    60.00 Ry     beta= 0.20
     Davidson diagonalization with overlap
     ethr =  9.29E-07,  avg # of iterations =  7.7

     negative rho (up, down):  1.015E-01 0.000E+00

     total cpu time spent up to now is      526.2 secs

     total energy              =   -1868.72330321 Ry
     Harris-Foulkes estimate   =   -1868.72344017 Ry
     estimated scf accuracy    <       0.00139879 Ry

     iteration # 25     ecut=    60.00 Ry     beta= 0.20
     Davidson diagonalization with overlap
     ethr =  6.11E-07,  avg # of iterations =  3.8

     negative rho (up, down):  9.490E-02 0.000E+00

     total cpu time spent up to now is      547.9 secs

     total energy              =   -1868.72316074 Ry
     Harris-Foulkes estimate   =   -1868.72331831 Ry
     estimated scf accuracy    <       0.00070992 Ry

     iteration # 26     ecut=    60.00 Ry     beta= 0.20
     Davidson diagonalization with overlap
     ethr =  3.10E-07,  avg # of iterations =  6.2

     negative rho (up, down):  9.101E-02 0.000E+00

     total cpu time spent up to now is      574.0 secs

     total energy              =   -1868.72314589 Ry
     Harris-Foulkes estimate   =   -1868.72318313 Ry
     estimated scf accuracy    <       0.00036992 Ry

     iteration # 27     ecut=    60.00 Ry     beta= 0.20
     Davidson diagonalization with overlap
     c_bands:  1 eigenvalues not converged
     c_bands:  1 eigenvalues not converged
     ethr =  1.62E-07,  avg # of iterations =  7.6

     negative rho (up, down):  9.046E-02 0.000E+00

     total cpu time spent up to now is      601.5 secs

     total energy              =   -1868.72316949 Ry
     Harris-Foulkes estimate   =   -1868.72315545 Ry
     estimated scf accuracy    <       0.00015691 Ry

     iteration # 28     ecut=    60.00 Ry     beta= 0.20
     Davidson diagonalization with overlap
     c_bands:  1 eigenvalues not converged
     ethr =  6.85E-08,  avg # of iterations =  3.8

     negative rho (up, down):  9.018E-02 0.000E+00

     total cpu time spent up to now is      622.9 secs

     total energy              =   -1868.72317731 Ry
     Harris-Foulkes estimate   =   -1868.72317213 Ry
     estimated scf accuracy    <       0.00008930 Ry

     iteration # 29     ecut=    60.00 Ry     beta= 0.20
     Davidson diagonalization with overlap
     ethr =  3.90E-08,  avg # of iterations =  2.5

     negative rho (up, down):  8.993E-02 0.000E+00

     total cpu time spent up to now is      642.6 secs

     total energy              =   -1868.72319409 Ry
     Harris-Foulkes estimate   =   -1868.72317905 Ry
     estimated scf accuracy    <       0.00004007 Ry

     iteration # 30     ecut=    60.00 Ry     beta= 0.20
     Davidson diagonalization with overlap
     c_bands:  1 eigenvalues not converged
     ethr =  1.75E-08,  avg # of iterations =  5.0

     negative rho (up, down):  9.011E-02 0.000E+00

     total cpu time spent up to now is      666.1 secs

     total energy              =   -1868.72319807 Ry
     Harris-Foulkes estimate   =   -1868.72319515 Ry
     estimated scf accuracy    <       0.00001283 Ry

     iteration # 31     ecut=    60.00 Ry     beta= 0.20
     Davidson diagonalization with overlap
     ethr =  5.60E-09,  avg # of iterations =  1.1

     negative rho (up, down):  9.024E-02 0.000E+00

     total cpu time spent up to now is      684.1 secs

     total energy              =   -1868.72319836 Ry
     Harris-Foulkes estimate   =   -1868.72319837 Ry
     estimated scf accuracy    <       0.00000889 Ry

     iteration # 32     ecut=    60.00 Ry     beta= 0.20
     Davidson diagonalization with overlap
     ethr =  3.88E-09,  avg # of iterations =  2.5

     negative rho (up, down):  9.042E-02 0.000E+00

     total cpu time spent up to now is      704.0 secs

     total energy              =   -1868.72319814 Ry
     Harris-Foulkes estimate   =   -1868.72319875 Ry
     estimated scf accuracy    <       0.00000409 Ry

     iteration # 33     ecut=    60.00 Ry     beta= 0.20
     Davidson diagonalization with overlap
     ethr =  1.79E-09,  avg # of iterations =  1.9

     negative rho (up, down):  9.041E-02 0.000E+00

     total cpu time spent up to now is      723.0 secs

     total energy              =   -1868.72319854 Ry
     Harris-Foulkes estimate   =   -1868.72319831 Ry
     estimated scf accuracy    <       0.00000136 Ry

     iteration # 34     ecut=    60.00 Ry     beta= 0.20
     Davidson diagonalization with overlap
     ethr =  5.92E-10,  avg # of iterations =  2.0

     negative rho (up, down):  9.046E-02 0.000E+00

     total cpu time spent up to now is      741.4 secs

     End of self-consistent calculation

          k = 0.0000 0.0000 0.0000 ( 36815 PWs)   bands (ev):

   -38.5041 -38.4274 -23.1331 -23.1208 -23.0103 -22.9747 -19.0370 -18.9692
   -18.5095 -18.5007 -18.4336 -18.4205 -15.8280 -15.7778 -14.8702 -14.8164
   -14.6172 -14.6134 -14.6071 -14.5633 -14.5222 -14.3521 -14.2982 -14.1144
   -14.1019 -13.8608 -12.5713  -8.3806  -8.3537  -8.3328  -8.1892  -8.1253
    -8.1136  -8.0984  -8.0869  -7.9481  -7.9248  -7.8842  -7.8024  -2.4595
    -2.4292  -2.4075  -2.3798  -2.2890  -2.2337  -2.2151  -2.2059  -2.1722
    -2.1328  -2.0959  -2.0417  -1.9204  -1.2648  -1.2026  -0.8127  -0.7959
    -0.7517  -0.4817  -0.4251  -0.4237  -0.4146  -0.3864  -0.3796  -0.2251
    -0.2232  -0.1922  -0.1714  -0.1555  -0.1493  -0.0928  -0.0888  -0.0625
    -0.0530   0.0377   0.0414   0.0527   0.0547   0.0771   0.1382   0.1537
     0.1919   0.1944   0.2057   0.2161   0.2654   0.3058   0.3104   0.3274
     0.5931   0.7504   0.7945   0.8539   0.8599   0.9016   0.9319   0.9705
     1.0089   1.0092   1.0262   1.1120   1.1174   1.1323   1.1433   1.1464
     1.1885   1.5675   1.6087   1.6297   1.6374   1.7197   1.8293   1.8363
     1.9168   2.1327   2.2744   2.3203   2.3601   2.4027   2.4345   4.7772
     4.9397   4.9685   5.5073   5.5886   6.2513   6.3201   6.3553   6.5519
     6.7589   7.0551   7.3303   7.7898   7.8157   7.8635   8.0068   8.2303
     8.2991   8.3537

          k = 0.0000 0.1281 0.0000 ( 36867 PWs)   bands (ev):

   -38.5018 -38.4251 -23.1115 -23.0992 -22.9917 -22.9536 -19.0011 -18.9332
   -18.6050 -18.5252 -18.5063 -18.4304 -15.7191 -15.6698 -14.8784 -14.8228
   -14.6263 -14.6152 -14.5832 -14.5323 -14.5039 -14.3976 -14.3461 -14.1201
   -14.1060 -13.8940 -12.6425  -8.3686  -8.3368  -8.3187  -8.1783  -8.1178
    -8.1064  -8.0841  -8.0723  -7.9469  -7.9085  -7.8512  -7.8020  -2.5496
    -2.5416  -2.5236  -2.4692  -2.4099  -2.3591  -2.2173  -2.2103  -2.1021
    -2.0806  -2.0435  -2.0265  -1.9300  -1.3336  -1.3155  -1.2647  -1.1999
    -1.1467  -0.8122  -0.7766  -0.5937  -0.5139  -0.4800  -0.4749  -0.4686
    -0.4592  -0.4526  -0.4247  -0.3859  -0.2603  -0.1329  -0.0839  -0.0595
    -0.0454   0.0120   0.0187   0.0719   0.0949   0.1698   0.1726   0.1836
     0.2044   0.2065   0.2659   0.2969   0.3001   0.3226   0.4894   0.5189
     0.5549   0.5918   0.6682   0.7308   0.8133   0.8252   0.8538   1.0594
     1.0919   1.1243   1.1422   1.1635   1.2877   1.3302   1.3446   1.3545
     1.3659   1.5448   1.6061   1.6149   1.6709   1.6811   1.7850   1.9166
     1.9700   2.1998   2.2241   2.4662   2.4839   2.6460   2.6610   5.1150
     5.3028   5.3181   5.7505   5.8290   6.4950   6.6411   6.6588   6.8599
     7.0250   7.3218   7.5624   7.7292   7.8028   7.9790   8.1592   8.4766
     8.4857   8.5819

          k = 0.0000 0.2563 0.0000 ( 36890 PWs)   bands (ev):

   -38.4962 -38.4195 -23.0585 -23.0461 -22.9462 -22.9017 -18.9100 -18.8419
   -18.8300 -18.7510 -18.4985 -18.4226 -15.4707 -15.4245 -14.9533 -14.8942
   -14.6899 -14.6650 -14.5371 -14.4664 -14.4627 -14.4506 -14.4177 -14.0982
   -14.0812 -13.9451 -12.8106  -8.3421  -8.2962  -8.2809  -8.1590  -8.1497
    -8.1476  -7.9948  -7.9809  -7.9690  -7.8097  -7.7985  -7.7695  -2.9777
    -2.9440  -2.8439  -2.7794  -2.3644  -2.3577  -2.2676  -2.2614  -2.2206
    -2.0933  -2.0805  -2.0285  -2.0215  -1.9744  -1.9563  -1.8662  -1.2654
    -1.2137  -1.1979  -1.1076  -0.9848  -0.8449  -0.8321  -0.8173  -0.7645
    -0.7031  -0.6975  -0.6388  -0.6251  -0.4522  -0.4037  -0.3896  -0.3434
    -0.2552  -0.2183  -0.1417  -0.0607  -0.0224  -0.0027   0.1773   0.2239
     0.2431   0.2433   0.2465   0.3182   0.3289   0.3407   0.3930   0.4437
     0.8206   0.8395   0.8955   0.9524   0.9799   1.0424   1.0851   1.1548
     1.1614   1.2278   1.2610   1.3166   1.3844   1.4084   1.4099   1.4879
     1.5116   1.6229   1.6812   1.8044   1.8438   1.9071   1.9218   1.9343
     1.9777   2.0887   2.1477   2.5702   2.8513   2.9585   2.9802   5.8623
     6.1913   6.2058   6.4040   6.4819   7.0563   7.4967   7.5113   7.5988
     7.6724   7.6930   7.7890   7.8927   8.0875   8.4059   8.4632   8.6321
     8.7764   8.8280

          k = 0.0000 0.3844 0.0000 ( 36778 PWs)   bands (ev):

   -38.4906 -38.4139 -23.0040 -22.9915 -22.8997 -22.8483 -19.0280 -18.9494
   -18.8118 -18.7434 -18.4908 -18.4149 -15.2188 -15.1818 -15.0976 -15.0331
   -14.8035 -14.7574 -14.5575 -14.4631 -14.4254 -14.4106 -14.3964 -14.0396
   -14.0213 -13.9459 -12.9719  -8.3166  -8.2560  -8.2407  -8.1918  -8.1807
    -8.1168  -8.0396  -7.8719  -7.8599  -7.7917  -7.7056  -7.6846  -3.3449
    -3.3148  -3.1564  -3.0845  -2.9220  -2.9110  -2.9068  -2.2711  -2.2669
    -2.0729  -2.0587  -2.0193  -2.0102  -1.9499  -1.9357  -1.8797  -1.5763
    -1.4176  -1.2472  -1.2092  -1.1815  -1.1756  -1.1249  -1.1147  -1.0594
    -0.9445  -0.9398  -0.7857  -0.7381  -0.6742  -0.6476  -0.6332  -0.5867
    -0.4712  -0.4556  -0.4391  -0.3487  -0.0832   0.0433   0.1095   0.2150
     0.2371   0.2497   0.2672   0.2723   0.3244   0.3667   0.6132   0.6835
     0.8884   0.9342   1.0053   1.0378   1.0574   1.0833   1.1019   1.1145
     1.2163   1.2305   1.2979   1.3828   1.5113   1.5590   1.5965   1.6060
     1.7013   1.7422   1.7531   1.8702   1.8887   2.0725   2.1183   2.1856
     2.3146   2.3303   2.3939   2.5379   2.8541   2.9371   3.0203   6.7059
     7.0345   7.0776   7.2564   7.2986   7.4860   7.5600   7.7296   8.2170
     8.2334   8.3756   8.4212   8.5436   8.5991   8.6947   8.7398   8.8611
     8.8653   9.3233

          k = 0.0000-0.5125 0.0000 ( 36914 PWs)   bands (ev):

   -38.4883 -38.4116 -22.9809 -22.9685 -22.8801 -22.8258 -19.1040 -19.0255
   -18.7687 -18.7001 -18.4875 -18.4116 -15.1742 -15.1206 -15.0884 -15.0511
   -14.8772 -14.8136 -14.5850 -14.4514 -14.4116 -14.4027 -14.3735 -14.0085
   -13.9898 -13.9321 -13.0364  -8.3061  -8.2396  -8.2236  -8.2033  -8.1924
    -8.0957  -8.0636  -7.8249  -7.8128  -7.7880  -7.6607  -7.6484  -3.4882
    -3.4602  -3.2998  -3.2167  -3.1621  -3.1430  -3.1385  -2.3057  -2.3022
    -2.1323  -2.0727  -1.9727  -1.9094  -1.8769  -1.8663  -1.8106  -1.6988
    -1.4883  -1.4115  -1.3540  -1.3416  -1.3123  -1.3095  -1.0488  -1.0444
    -0.9945  -0.9262  -0.8812  -0.8250  -0.7722  -0.7347  -0.7201  -0.6946
    -0.6721  -0.6340  -0.4726  -0.4120  -0.1199   0.1290   0.1846   0.1927
     0.2048   0.2082   0.2733   0.2788   0.3083   0.3726   0.7053   0.7372
     0.9253   0.9441   1.0135   1.0252   1.0905   1.0905   1.1549   1.1705
     1.1829   1.1882   1.2548   1.2998   1.5891   1.6604   1.6719   1.6785
     1.6908   1.7501   1.7915   1.9966   2.0533   2.1785   2.1980   2.4251
     2.4592   2.4770   2.4928   2.5589   2.7186   2.8162   2.9394   7.3719
     7.3816   7.4401   7.4433   7.5175   7.5707   7.5848   7.9259   8.1089
     8.4760   8.5544   8.7373   8.7903   8.8473   8.8792   8.9074   8.9319
     9.2461   9.3210

          k = 0.1250 0.0000 0.0000 ( 36852 PWs)   bands (ev):

   -38.5023 -38.4256 -23.1147 -23.1023 -22.9951 -22.9567 -19.0046 -18.9365
   -18.6094 -18.5347 -18.4982 -18.4179 -15.7128 -15.6610 -14.8947 -14.8447
   -14.6649 -14.6542 -14.5968 -14.5570 -14.5425 -14.3816 -14.3249 -14.1151
   -14.1018 -13.8719 -12.6478  -8.3728  -8.3638  -8.3417  -8.2138  -8.0902
    -8.0785  -8.0642  -8.0526  -7.9100  -7.8920  -7.8479  -7.7751  -2.5443
    -2.5020  -2.4559  -2.3801  -2.3782  -2.3308  -2.2043  -2.1897  -2.1613
    -2.1228  -2.1195  -2.0639  -1.9207  -1.2505  -1.1883  -0.8072  -0.7912
    -0.7904  -0.6995  -0.6324  -0.5212  -0.5042  -0.5011  -0.4901  -0.4406
    -0.4137  -0.4132  -0.3778  -0.2450  -0.1895  -0.1554  -0.1442   0.0003
     0.0521   0.0687   0.1183   0.1285   0.1481   0.1592   0.1886   0.1959
     0.2034   0.2716   0.2817   0.2925   0.3018   0.3089   0.3296   0.3418
     0.5348   0.5986   0.6457   0.6747   0.6870   0.8795   0.8870   0.9038
     0.9218   0.9234   0.9801   1.0969   1.1185   1.1641   1.2292   1.3537
     1.3710   1.5076   1.6425   1.6845   1.7758   1.7835   1.8509   1.9271
     1.9481   2.1813   2.1891   2.2860   2.3304   2.3622   2.4811   4.9660
     5.1256   5.1380   5.7136   5.7931   6.4372   6.5675   6.5770   6.8174
     6.9586   7.2849   7.5288   7.7705   7.8437   7.9701   8.1590   8.4669
     8.5404   8.6020

          k = 0.1250 0.1281 0.0000 ( 36854 PWs)   bands (ev):

   -38.5000 -38.4233 -23.0939 -23.0815 -22.9771 -22.9363 -18.9692 -18.9009
   -18.6136 -18.5928 -18.5372 -18.5146 -15.6048 -15.5540 -14.8927 -14.8406
   -14.6609 -14.6507 -14.5657 -14.5378 -14.5143 -14.4350 -14.3791 -14.1147
   -14.1003 -13.8954 -12.6974  -8.3596  -8.3511  -8.3330  -8.2383  -8.2261
    -8.1990  -8.0616  -7.9733  -7.9403  -7.9287  -7.7744  -7.6695  -2.6467
    -2.6109  -2.5998  -2.5167  -2.4089  -2.3655  -2.2551  -2.2198  -2.1931
    -2.1724  -2.0430  -1.9751  -1.9202  -1.3272  -1.3100  -1.2851  -1.1563
    -1.0985  -1.0155  -0.9703  -0.8062  -0.7895  -0.7091  -0.6792  -0.5856
    -0.4694  -0.4603  -0.3502  -0.2650  -0.2497  -0.1800  -0.1682  -0.0729
    -0.0607  -0.0302   0.0020   0.0910   0.1007   0.1437   0.1471   0.1863
     0.2353   0.2368   0.2497   0.2568   0.3669   0.3698   0.4909   0.5202
     0.6116   0.6644   0.7516   0.7968   0.8119   0.8308   0.8726   0.9270
     0.9281   1.0659   1.1156   1.1424   1.1936   1.2101   1.2546   1.4861
     1.4978   1.5408   1.5516   1.5569   1.6600   1.8654   1.9942   2.0962
     2.2259   2.2887   2.4402   2.4906   2.5021   2.6569   2.6740   5.2504
     5.4440   5.4587   5.9200   6.0009   6.6435   6.8729   6.8835   7.1160
     7.2210   7.5038   7.6590   7.6974   7.7978   8.1299   8.2962   8.5629
     8.6553   8.7354

          k = 0.1250 0.2563 0.0000 ( 36914 PWs)   bands (ev):

   -38.4944 -38.4177 -23.0427 -23.0303 -22.9328 -22.8861 -18.8793 -18.8255
   -18.8109 -18.7465 -18.5938 -18.5189 -15.3587 -15.3115 -14.9384 -14.8797
   -14.6887 -14.6686 -14.5342 -14.5089 -14.4804 -14.4693 -14.4375 -14.0894
   -14.0726 -13.9343 -12.8188  -8.3618  -8.3504  -8.3327  -8.2964  -8.2821
    -8.1819  -8.1556  -8.0517  -7.8963  -7.8847  -7.7386  -7.6322  -3.0836
    -3.0399  -2.8753  -2.8089  -2.3872  -2.3758  -2.3179  -2.2652  -2.2522
    -2.2093  -2.1790  -2.0878  -2.0753  -1.9661  -1.8914  -1.8571  -1.3651
    -1.3044  -1.2059  -1.1633  -1.1519  -1.1390  -1.0975  -1.0351  -0.9999
    -0.6423  -0.6322  -0.5728  -0.5353  -0.4381  -0.3913  -0.3834  -0.3356
    -0.1555  -0.1485  -0.0943   0.0157   0.0420   0.0483   0.1354   0.1502
     0.1819   0.2395   0.2753   0.2899   0.3397   0.3856   0.6026   0.6463
     0.8408   0.8624   0.8885   0.9642   0.9759   1.0716   1.0737   1.0932
     1.1101   1.2124   1.2702   1.2832   1.3638   1.3691   1.4955   1.5021
     1.5193   1.5633   1.6563   1.8773   1.8914   1.9562   2.0682   2.3337
     2.3840   2.4459   2.5527   2.6668   2.8502   2.9656   2.9865   5.9447
     6.2444   6.2593   6.5082   6.5802   7.1369   7.4485   7.5316   7.6985
     7.7121   7.9088   7.9865   8.0591   8.2124   8.3799   8.4156   8.6681
     8.7037   8.7845

          k = 0.1250 0.3844 0.0000 ( 36899 PWs)   bands (ev):

   -38.4888 -38.4121 -22.9902 -22.9777 -22.8876 -22.8347 -19.0220 -18.9434
   -18.7825 -18.7138 -18.5839 -18.5090 -15.1128 -15.0823 -15.0579 -14.9830
   -14.7709 -14.7337 -14.5376 -14.5231 -14.4865 -14.3908 -14.3864 -14.0356
   -14.0173 -13.9396 -12.9408  -8.3662  -8.3552  -8.3108  -8.2661  -8.2513
    -8.2045  -8.1235  -8.0118  -7.9444  -7.9325  -7.7829  -7.7063  -3.4656
    -3.4258  -3.2020  -3.1319  -2.9117  -2.8991  -2.8964  -2.3059  -2.2969
    -2.1942  -2.1298  -2.1148  -2.1017  -1.9654  -1.9178  -1.8999  -1.6270
    -1.6086  -1.6046  -1.5254  -1.4248  -1.3291  -1.2041  -1.0326  -0.9736
    -0.8274  -0.8214  -0.8014  -0.7796  -0.6586  -0.6345  -0.5902  -0.5763
    -0.2717  -0.2482  -0.1666  -0.1323  -0.0152   0.1255   0.1345   0.1859
     0.2429   0.2484   0.2584   0.2951   0.3265   0.3862   0.7076   0.7652
     0.8908   0.9337   1.0232   1.0774   1.1000   1.1482   1.1610   1.2009
     1.2281   1.2322   1.3407   1.4443   1.5142   1.5354   1.5526   1.5539
     1.8115   1.8855   1.8968   2.1389   2.2882   2.3044   2.3622   2.3808
     2.3841   2.4202   2.5897   2.6610   2.8523   2.9666   3.0363   6.7281
     6.9399   6.9721   7.1371   7.1888   7.3905   7.4515   7.6858   8.2403
     8.2539   8.2950   8.4290   8.6333   8.6950   8.8044   8.8440   8.9557
     9.0675   9.3646

          k = 0.1250-0.5125 0.0000 ( 36892 PWs)   bands (ev):

   -38.4865 -38.4098 -22.9680 -22.9556 -22.8686 -22.8129 -19.0975 -19.0191
   -18.7401 -18.6712 -18.5797 -18.5049 -15.1338 -15.0792 -14.9710 -14.9330
   -14.8396 -14.7840 -14.5554 -14.5119 -14.4726 -14.3796 -14.3547 -14.0072
   -13.9885 -13.9310 -12.9908  -8.3408  -8.3299  -8.3021  -8.2521  -8.2366
    -8.1923  -8.1097  -7.9925  -7.9804  -7.9245  -7.8220  -7.8065  -3.6137
    -3.5756  -3.3481  -3.2710  -3.1533  -3.1393  -3.1323  -2.3224  -2.3162
    -2.1396  -2.0659  -2.0140  -1.9861  -1.9659  -1.9634  -1.8926  -1.8089
    -1.7689  -1.7579  -1.7532  -1.5081  -1.3750  -1.2608  -0.9843  -0.9536
    -0.9052  -0.9024  -0.8650  -0.8146  -0.7462  -0.7251  -0.6755  -0.6460
    -0.3174  -0.2779  -0.2504  -0.2040  -0.1190   0.1315   0.1482   0.2134
     0.2292   0.2596   0.2715   0.3304   0.3726   0.3835   0.8041   0.8377
     0.9357   1.0038   1.0281   1.0585   1.0770   1.1711   1.1932   1.1961
     1.2057   1.2074   1.2954   1.4824   1.5982   1.6160   1.6372   1.7377
     1.7750   2.1717   2.1911   2.3317   2.3508   2.3762   2.4063   2.4560
     2.4719   2.5261   2.5512   2.5619   2.7340   2.8762   2.9621   7.1047
     7.1612   7.2335   7.2427   7.2736   7.4646   7.5326   7.9555   8.0133
     8.5913   8.7527   8.7814   8.8610   8.9832   9.0327   9.0516   9.1395
     9.1513   9.3012

          k = 0.2500 0.0000 0.0000 ( 36946 PWs)   bands (ev):

   -38.4980 -38.4212 -23.0695 -23.0571 -22.9580 -22.9126 -18.9231 -18.8541
   -18.8241 -18.7514 -18.4921 -18.4119 -15.4490 -15.3947 -15.0024 -14.9588
   -14.7840 -14.7629 -14.6674 -14.5411 -14.5058 -14.4171 -14.3540 -14.1097
   -14.0953 -13.8880 -12.8259  -8.3745  -8.3637  -8.3370  -8.2398  -8.0202
    -8.0086  -7.9789  -7.9672  -7.8524  -7.8104  -7.7660  -7.7077  -2.8477
    -2.8128  -2.7726  -2.6783  -2.2450  -2.2417  -2.2380  -2.1875  -2.1245
    -2.0896  -2.0391  -1.9629  -1.9609  -1.3323  -1.2823  -1.0031  -0.9309
    -0.8944  -0.8895  -0.8779  -0.8008  -0.7854  -0.7806  -0.7666  -0.7098
    -0.7017  -0.5164  -0.4591  -0.4046  -0.2378  -0.1807  -0.1543  -0.1528
    -0.1003  -0.0711  -0.0635   0.0990   0.1153   0.1196   0.1681   0.1817
     0.2834   0.3148   0.3189   0.3369   0.3526   0.3720   0.4085   0.4425
     0.4700   0.5170   0.5257   0.7357   0.7499   0.8763   0.9365   0.9690
     0.9740   1.0347   1.0582   1.1956   1.2245   1.2402   1.2482   1.3025
     1.3344   1.3515   1.6655   1.6764   1.7161   1.7209   1.8411   1.8761
     2.0348   2.1638   2.2064   2.2946   2.4061   2.4966   2.6084   5.3990
     5.5706   5.5837   6.2686   6.3570   6.8760   7.1971   7.2104   7.4981
     7.5689   7.7249   7.7603   7.7970   7.9572   8.4125   8.5669   8.6550
     8.8140   8.9543

          k = 0.2500 0.1281 0.0000 ( 36930 PWs)   bands (ev):

   -38.4957 -38.4190 -23.0506 -23.0382 -22.9412 -22.8939 -18.8891 -18.8199
   -18.8183 -18.7456 -18.5922 -18.5123 -15.3435 -15.2908 -14.9762 -14.9296
   -14.7564 -14.7389 -14.6284 -14.5168 -14.4829 -14.4799 -14.4159 -14.0995
   -14.0845 -13.8936 -12.8295  -8.3817  -8.3690  -8.3323  -8.2660  -8.2531
    -8.2448  -8.0844  -8.0184  -7.8661  -7.8546  -7.7136  -7.6003  -2.9921
    -2.9397  -2.8127  -2.7290  -2.3399  -2.3292  -2.3166  -2.2772  -2.2202
    -2.2138  -1.9535  -1.9444  -1.8736  -1.3749  -1.3265  -1.3162  -1.3158
    -1.3041  -1.2133  -1.1677  -1.1663  -1.1285  -1.0263  -0.9839  -0.7185
    -0.6046  -0.5503  -0.4122  -0.3362  -0.2399  -0.1965  -0.1704  -0.1082
    -0.1016  -0.0837  -0.0434   0.0141   0.0370   0.0666   0.1280   0.1414
     0.1644   0.2266   0.3443   0.3676   0.3810   0.4736   0.5006   0.5169
     0.6636   0.6976   0.8262   0.8828   0.9003   0.9624   0.9810   1.0216
     1.0581   1.0868   1.1578   1.1642   1.1758   1.2089   1.2455   1.3917
     1.4007   1.4481   1.5883   1.5978   1.6166   1.6877   2.1294   2.3986
     2.4355   2.5020   2.5493   2.6282   2.6715   2.7356   2.7636   5.6148
     5.8121   5.8256   6.4036   6.4849   7.0158   7.4445   7.4700   7.5204
     7.5867   7.7621   7.8499   7.9888   8.1477   8.4590   8.5099   8.6235
     8.6781   8.7677

          k = 0.2500 0.2563 0.0000 ( 36939 PWs)   bands (ev):

   -38.4901 -38.4134 -23.0041 -22.9916 -22.9001 -22.8481 -18.8259 -18.8031
   -18.7882 -18.7493 -18.7334 -18.7133 -15.1083 -15.0651 -14.9303 -14.8668
   -14.7025 -14.6903 -14.6262 -14.5736 -14.5326 -14.4591 -14.4011 -14.0675
   -14.0509 -13.9079 -12.8431  -8.5680  -8.5563  -8.3881  -8.3151  -8.3148
    -8.3009  -8.2672  -8.1713  -7.9634  -7.9518  -7.8121  -7.6906  -3.4154
    -3.3568  -3.0360  -2.9573  -2.4741  -2.4593  -2.4419  -2.3832  -2.3172
    -2.3097  -2.1997  -2.0958  -2.0836  -1.9092  -1.8523  -1.8069  -1.7390
    -1.7208  -1.6908  -1.6082  -1.1994  -1.1597  -1.1312  -1.0538  -0.9616
    -0.7056  -0.6747  -0.5466  -0.5049  -0.4664  -0.4429  -0.4033  -0.3716
    -0.3602  -0.2503  -0.1401   0.0540   0.1804   0.1922   0.2285   0.3115
     0.3582   0.3794   0.4188   0.4275   0.5232   0.5423   0.8774   0.9101
     0.9450   0.9643   0.9947   1.0293   1.0458   1.0485   1.0623   1.1149
     1.1377   1.1603   1.1817   1.2455   1.4569   1.4587   1.5221   1.5940
     1.6177   1.6891   1.7132   1.8024   1.8135   1.8957   2.3568   2.4694
     2.8461   2.9323   2.9566   3.0091   3.0417   3.1970   3.2289   6.1532
     6.3228   6.3380   6.7508   6.8037   7.2452   7.3232   7.3576   7.9803
     7.9956   8.2707   8.3711   8.4375   8.4458   8.5358   8.5676   8.7041
     8.7986   8.8423

          k = 0.2500 0.3844 0.0000 ( 36955 PWs)   bands (ev):

   -38.4846 -38.4079 -22.9565 -22.9441 -22.8582 -22.8013 -19.0075 -18.9288
   -18.7888 -18.7156 -18.7074 -18.6380 -14.9822 -14.9418 -14.8664 -14.7912
   -14.6884 -14.6711 -14.6673 -14.6362 -14.4773 -14.3688 -14.3434 -14.0244
   -14.0063 -13.9220 -12.8634  -8.6745  -8.6631  -8.4961  -8.3442  -8.2977
    -8.2936  -8.2785  -8.2003  -8.1885  -8.1557  -8.0324  -7.9369  -3.8286
    -3.7725  -3.3851  -3.3095  -2.8848  -2.8696  -2.8684  -2.5051  -2.4844
    -2.4237  -2.3614  -2.2097  -2.2025  -2.1973  -2.1702  -1.9772  -1.9283
    -1.9127  -1.6906  -1.6312  -1.2411  -1.2081  -1.1695  -1.0716  -1.0430
    -0.9244  -0.8603  -0.7078  -0.6946  -0.6756  -0.6328  -0.6270  -0.4625
    -0.4216  -0.3109  -0.1719   0.0714   0.2465   0.2890   0.3298   0.3742
     0.4421   0.4778   0.5528   0.6347   0.6888   0.7396   0.9265   0.9459
     0.9563   0.9910   1.0914   1.1809   1.2146   1.2569   1.2600   1.3118
     1.3890   1.4159   1.4629   1.4657   1.5298   1.5508   1.6279   1.6854
     1.8962   1.8974   2.1282   2.2227   2.2380   2.2641   2.3339   2.3874
     2.8047   2.8658   2.9799   3.2834   3.3162   3.4731   3.4958   6.4784
     6.5010   6.5984   6.7489   6.8222   7.4081   7.5721   7.7166   8.1693
     8.3473   8.3561   8.5112   8.7468   8.8724   8.9910   9.0384   9.2760
     9.3348   9.3728

          k = 0.2500-0.5125 0.0000 ( 36998 PWs)   bands (ev):

   -38.4823 -38.4056 -22.9365 -22.9240 -22.8406 -22.7815 -19.0820 -19.0035
   -18.7830 -18.7098 -18.6667 -18.5971 -15.0315 -14.9739 -14.7452 -14.7109
   -14.7074 -14.6723 -14.6618 -14.6191 -14.4785 -14.3241 -14.3131 -14.0037
   -13.9851 -13.9284 -12.8736  -8.6590  -8.6479  -8.4925  -8.3598  -8.3478
    -8.2963  -8.2795  -8.2635  -8.2498  -8.1834  -8.1549  -8.1329  -3.9908
    -3.9361  -3.5423  -3.4657  -3.1258  -3.1186  -3.1081  -2.4997  -2.4773
    -2.3834  -2.3709  -2.3308  -2.3207  -2.1959  -2.1862  -2.0895  -2.0431
    -1.9145  -1.6904  -1.6368  -1.2481  -1.2206  -1.1954  -1.0729  -1.0202
    -1.0200  -0.9467  -0.7767  -0.7512  -0.7501  -0.7099  -0.6700  -0.4658
    -0.4393  -0.3200  -0.1782   0.0814   0.2718   0.3063   0.3526   0.3832
     0.4264   0.4819   0.5590   0.6534   0.8186   0.8690   1.0006   1.0087
     1.0348   1.0773   1.1683   1.2208   1.2476   1.2990   1.3144   1.3641
     1.3655   1.4391   1.4607   1.5127   1.5354   1.7070   1.7267   1.9568
     1.9879   2.1664   2.1859   2.2965   2.3776   2.4013   2.4170   2.5162
     2.6455   2.7211   2.9064   3.3410   3.3750   3.5288   3.5506   6.4382
     6.4547   6.6425   6.6773   6.7617   7.6153   7.7312   7.8377   8.2186
     8.5643   8.7718   8.9633   8.9638   8.9880   9.1048   9.2425   9.3378
     9.3977   9.4186

          k = 0.3750 0.0000 0.0000 ( 36982 PWs)   bands (ev):

   -38.4936 -38.4169 -23.0232 -23.0108 -22.9203 -22.8674 -19.0134 -18.9418
   -18.8344 -18.7646 -18.4860 -18.4058 -15.1980 -15.1681 -15.1392 -15.0673
   -14.9158 -14.8776 -14.7681 -14.5254 -14.5044 -14.4106 -14.3437 -14.0983
   -14.0833 -13.8926 -12.9945  -8.3761  -8.3632  -8.3115  -8.2405  -7.9608
    -7.9494  -7.8896  -7.8778  -7.8215  -7.7253  -7.6902  -7.6381  -3.1737
    -3.1341  -3.0372  -2.9512  -2.3132  -2.3109  -2.0826  -2.0377  -2.0256
    -1.9987  -1.9902  -1.9611  -1.9207  -1.3436  -1.3071  -1.2988  -1.2732
    -1.2694  -1.1051  -1.0866  -1.0631  -1.0254  -0.9326  -0.9256  -0.7783
    -0.7616  -0.6092  -0.5490  -0.5451  -0.4985  -0.4735  -0.4085  -0.2903
    -0.1537  -0.0723  -0.0182   0.0413   0.1239   0.1445   0.1546   0.1685
     0.2692   0.3751   0.3797   0.3945   0.4108   0.4307   0.4525   0.4550
     0.4972   0.5603   0.5724   0.7476   0.7708   0.8081   1.0176   1.0418
     1.0598   1.1328   1.1347   1.1779   1.2107   1.2308   1.4041   1.4464
     1.4830   1.4880   1.5537   1.5698   1.5927   1.6077   1.8179   1.9031
     1.9200   2.1852   2.2205   2.3378   2.4185   2.6004   2.6902   6.0267
     6.2075   6.2205   6.8755   6.9253   7.4679   7.6809   7.7024   7.7192
     7.7522   7.7880   8.1286   8.2162   8.4649   8.5497   8.5871   8.6597
     8.7813   9.1682

          k = 0.3750 0.1281 0.0000 ( 36902 PWs)   bands (ev):

   -38.4913 -38.4146 -23.0062 -22.9938 -22.9048 -22.8505 -19.0061 -18.9345
   -18.8015 -18.7316 -18.5844 -18.5045 -15.1335 -15.1098 -15.0594 -14.9784
   -14.8629 -14.8346 -14.7194 -14.4962 -14.4780 -14.4737 -14.4090 -14.0820
   -14.0667 -13.8862 -12.9597  -8.3769  -8.3636  -8.3084  -8.2445  -8.2076
    -8.1959  -8.0365  -7.9442  -7.9221  -7.9106  -7.7766  -7.6543  -3.3262
    -3.2729  -3.0889  -3.0070  -2.3540  -2.3405  -2.2810  -2.2446  -2.1497
    -2.1121  -1.9811  -1.8997  -1.8240  -1.6538  -1.6229  -1.5916  -1.5287
    -1.3607  -1.3224  -1.3084  -1.1987  -1.1447  -1.1392  -1.0560  -0.8839
    -0.8310  -0.5818  -0.4854  -0.4250  -0.3081  -0.2921  -0.2528  -0.1925
    -0.1687  -0.1417  -0.1330  -0.0511   0.0120   0.0850   0.0891   0.1777
     0.2555   0.2749   0.2878   0.4435   0.4589   0.5548   0.5669   0.5727
     0.7431   0.7900   0.8493   0.9289   0.9307   0.9735   1.0252   1.0493
     1.1005   1.1118   1.2095   1.2725   1.2848   1.3295   1.4233   1.4479
     1.4530   1.4853   1.5039   1.5287   1.6078   1.6741   1.8991   2.4563
     2.5082   2.5550   2.5762   2.6607   2.6889   2.8817   2.9098   6.1736
     6.3298   6.3433   6.9534   7.0006   7.3327   7.4102   7.5193   7.7806
     7.7928   7.8864   8.4242   8.4497   8.5508   8.5767   8.6123   8.6703
     8.8145   9.1482

          k = 0.3750 0.2563 0.0000 ( 36937 PWs)   bands (ev):

   -38.4858 -38.4091 -22.9647 -22.9522 -22.8669 -22.8093 -18.9886 -18.9169
   -18.7996 -18.7204 -18.7183 -18.6481 -15.0164 -14.9886 -14.8668 -14.8042
   -14.7190 -14.6864 -14.6423 -14.5795 -14.5794 -14.4288 -14.3889 -14.0446
   -14.0283 -13.8810 -12.8732  -8.6170  -8.6054  -8.4416  -8.3335  -8.3277
    -8.3196  -8.2818  -8.1911  -8.1886  -8.1793  -8.0358  -7.9110  -3.7697
    -3.7064  -3.3184  -3.2358  -2.5438  -2.5241  -2.4651  -2.4234  -2.3219
    -2.3152  -2.2176  -2.1760  -2.1595  -2.1023  -2.0888  -1.9656  -1.9386
    -1.9133  -1.6167  -1.5466  -1.1882  -1.1371  -1.0920  -1.0292  -0.9198
    -0.8301  -0.8229  -0.6158  -0.5561  -0.5246  -0.4985  -0.4626  -0.3826
    -0.3601  -0.2588  -0.1740   0.0258   0.2138   0.3390   0.3753   0.3886
     0.5328   0.5693   0.6403   0.6545   0.7143   0.7550   0.9246   0.9558
     0.9568   0.9911   1.0666   1.0915   1.1076   1.1346   1.1613   1.2424
     1.2944   1.3292   1.3372   1.3640   1.4946   1.5002   1.6398   1.6420
     1.6732   1.7007   1.7157   1.7182   1.7799   1.8187   2.3047   2.4180
     2.8463   2.9366   2.9684   3.4015   3.4257   3.5469   3.5714   6.2896
     6.3156   6.3737   6.7452   6.8091   7.3245   7.4609   7.6154   8.0236
     8.0359   8.1330   8.3272   8.7537   8.8082   8.8269   8.8755   9.0336
     9.2054   9.2448

          k = 0.3750 0.3844 0.0000 ( 37023 PWs)   bands (ev):

   -38.4803 -38.4036 -22.9223 -22.9098 -22.8283 -22.7673 -18.9942 -18.9683
   -18.9162 -18.8957 -18.6289 -18.5585 -14.9113 -14.8714 -14.8057 -14.7537
   -14.7095 -14.6790 -14.5466 -14.4932 -14.4029 -14.3685 -14.3090 -14.0114
   -13.9936 -13.9011 -12.7827  -8.8834  -8.8719  -8.6993  -8.5523  -8.5197
    -8.5080  -8.3435  -8.3214  -8.3117  -8.2905  -8.2530  -8.1814  -4.2221
    -4.1595  -3.6793  -3.5991  -2.8567  -2.8416  -2.8375  -2.6374  -2.6211
    -2.6120  -2.5709  -2.5559  -2.5080  -2.2106  -2.2080  -2.1050  -2.0572
    -1.9203  -1.4657  -1.4128  -1.2802  -1.2287  -1.0923  -1.0655  -1.0450
    -0.9828  -0.8962  -0.8750  -0.8130  -0.7471  -0.7279  -0.6893  -0.3171
    -0.3115  -0.1983  -0.1934   0.0800   0.3509   0.4898   0.6401   0.6568
     0.6728   0.6885   0.8619   1.0030   1.0581   1.0844   1.0960   1.1098
     1.1516   1.2205   1.2292   1.2859   1.2949   1.3151   1.3694   1.3781
     1.3887   1.4656   1.5213   1.5963   1.6236   1.6273   1.8108   1.9082
     1.9274   2.0885   2.1366   2.1441   2.1595   2.2641   2.2863   2.5290
     2.7894   2.8656   2.9941   3.9424   3.9701   4.0572   4.0740   5.9361
     5.9510   6.1545   6.4400   6.5331   7.5420   7.7991   7.9637   8.0094
     8.4256   8.5952   8.6322   8.6932   8.7241   9.0508   9.1129   9.2320
     9.2818   9.3539

          k = 0.3750-0.5125 0.0000 ( 37046 PWs)   bands (ev):

   -38.4780 -38.4013 -22.9045 -22.8920 -22.8122 -22.7497 -19.0664 -18.9878
   -18.9628 -18.8910 -18.5898 -18.5193 -14.9211 -14.8587 -14.8166 -14.7804
   -14.6462 -14.6362 -14.4652 -14.4228 -14.3844 -14.2857 -14.2694 -14.0000
   -13.9814 -13.9259 -12.7439  -8.9623  -8.9510  -8.7815  -8.6750  -8.6631
    -8.5738  -8.4834  -8.4760  -8.3168  -8.3074  -8.2767  -8.1767  -4.4029
    -4.3411  -3.8444  -3.7650  -3.0958  -3.0921  -3.0794  -2.7527  -2.7096
    -2.6525  -2.6389  -2.5671  -2.5174  -2.2061  -2.2040  -2.1526  -2.1060
    -1.9028  -1.4870  -1.4400  -1.2368  -1.1863  -1.1533  -1.1244  -1.1229
    -0.9960  -0.9669  -0.9465  -0.8740  -0.8287  -0.8110  -0.7734  -0.2816
    -0.2790  -0.1996  -0.1579   0.1055   0.3847   0.5065   0.6991   0.7154
     0.7514   0.7987   0.9377   1.1125   1.1163   1.1244   1.1409   1.1851
     1.2889   1.2961   1.3327   1.3337   1.3719   1.3935   1.4391   1.5334
     1.5458   1.5891   1.5900   1.6475   1.6802   1.7038   1.7889   2.1393
     2.1853   2.2044   2.3404   2.3562   2.3718   2.4185   2.4263   2.4601
     2.6194   2.7107   2.9218   4.1041   4.1340   4.2252   4.2403   5.7409
     5.7536   5.9877   6.3376   6.4436   7.7242   7.7522   7.9314   8.1377
     8.6347   8.7189   8.7356   8.8709   8.9756   9.0302   9.1120   9.1646
     9.2009   9.3603

          k =-0.5000 0.0000 0.0000 ( 36894 PWs)   bands (ev):

   -38.4918 -38.4150 -23.0037 -22.9913 -22.9044 -22.8483 -19.0854 -19.0144
   -18.7961 -18.7258 -18.4835 -18.4032 -15.2366 -15.2058 -15.0223 -14.9998
   -14.9579 -14.9406 -14.8138 -14.5345 -14.5273 -14.3993 -14.3317 -14.0925
   -14.0774 -13.8920 -13.0614  -8.3754  -8.3624  -8.2996  -8.2354  -7.9380
    -7.9267  -7.8513  -7.8394  -7.8144  -7.6888  -7.6601  -7.6085  -3.2971
    -3.2585  -3.1523  -3.0674  -2.3398  -2.3378  -2.0454  -2.0313  -2.0267
    -2.0056  -1.9472  -1.7818  -1.7382  -1.5830  -1.5505  -1.3991  -1.2375
    -1.2182  -1.1974  -1.1871  -1.1817  -1.0957  -1.0283  -1.0217  -0.7888
    -0.7725  -0.7557  -0.7374  -0.6278  -0.5275  -0.4898  -0.4869  -0.3479
    -0.1520  -0.1017   0.0202   0.0817   0.1359   0.1491   0.1554   0.1629
     0.2634   0.3900   0.3923   0.4039   0.4422   0.4583   0.4711   0.4769
     0.4901   0.4938   0.5660   0.6730   0.9044   0.9330   1.0561   1.0585
     1.0818   1.0987   1.1203   1.1498   1.2168   1.2574   1.3186   1.5230
     1.5304   1.5319   1.5524   1.5865   1.6506   1.7190   1.7260   1.8886
     1.9017   2.1743   2.2003   2.3393   2.4083   2.6140   2.6964   6.8041
     6.8663   6.9386   6.9867   7.0621   7.0763   7.1759   7.2509   7.6631
     7.7341   7.9294   8.2703   8.3064   8.4883   8.8428   8.8862   8.9781
     9.0781   9.0886

          k =-0.5000 0.1281 0.0000 ( 36904 PWs)   bands (ev):

   -38.4895 -38.4128 -22.9876 -22.9751 -22.8895 -22.8323 -19.0777 -19.0065
   -18.7638 -18.6934 -18.5811 -18.5012 -15.1879 -15.1564 -14.9500 -14.9063
   -14.9006 -14.8419 -14.7630 -14.5038 -14.4965 -14.4660 -14.3980 -14.0742
   -14.0589 -13.8818 -13.0127  -8.3712  -8.3579  -8.2974  -8.2329  -8.0732
    -8.0626  -8.0619  -8.0508  -7.9382  -7.8942  -7.7979  -7.7940  -3.4552
    -3.4026  -3.2123  -3.1307  -2.3647  -2.3558  -2.2707  -2.2320  -2.0407
    -1.9254  -1.9111  -1.9086  -1.8877  -1.8649  -1.8203  -1.7488  -1.6783
    -1.3410  -1.3290  -1.3126  -1.2227  -1.1226  -1.0716  -1.0686  -0.9469
    -0.9373  -0.5584  -0.5497  -0.4745  -0.3413  -0.3196  -0.2734  -0.2664
    -0.2382  -0.1957  -0.1449  -0.0973  -0.0906   0.0879   0.0996   0.1811
     0.2696   0.3409   0.3707   0.4365   0.4538   0.5876   0.6412   0.6558
     0.7616   0.7808   0.9001   0.9155   1.0128   1.0191   1.0676   1.0720
     1.0866   1.1171   1.1882   1.2361   1.2471   1.2859   1.4692   1.5033
     1.5097   1.5510   1.5587   1.6320   1.6380   1.6997   1.7187   2.4398
     2.5338   2.5630   2.5712   2.6538   2.6810   2.9033   2.9297   6.7646
     6.7874   6.8256   7.0103   7.1810   7.2340   7.2555   7.3464   7.4057
     7.4331   7.9854   8.3142   8.7244   8.7865   8.8438   8.9132   9.0244
     9.0699   9.1958

          k =-0.5000 0.2563 0.0000 ( 36970 PWs)   bands (ev):

   -38.4840 -38.4073 -22.9481 -22.9357 -22.8530 -22.7930 -19.0589 -18.9877
   -18.7951 -18.7159 -18.6822 -18.6115 -15.0655 -15.0318 -14.8225 -14.7958
   -14.6506 -14.6270 -14.6228 -14.6012 -14.5428 -14.4290 -14.4221 -14.0348
   -14.0187 -13.8696 -12.8872  -8.5392  -8.5275  -8.3845  -8.3730  -8.3686
    -8.3396  -8.3267  -8.2983  -8.2238  -8.1949  -8.1938  -8.1279  -3.9118
    -3.8480  -3.4547  -3.3726  -2.5609  -2.5400  -2.4512  -2.4132  -2.3718
    -2.3274  -2.3160  -2.3090  -2.1425  -2.1038  -2.0903  -2.0456  -1.9920
    -1.9569  -1.5877  -1.5177  -1.1702  -1.1200  -1.0510  -0.9502  -0.9409
    -0.9280  -0.8196  -0.6165  -0.5572  -0.5566  -0.5423  -0.4916  -0.3782
    -0.3612  -0.2526  -0.1881   0.0112   0.2321   0.3805   0.4056   0.4128
     0.5429   0.6137   0.6697   0.6972   0.8738   0.9148   0.9559   1.0081
     1.0159   1.0459   1.1171   1.1686   1.1935   1.2033   1.2066   1.2109
     1.2392   1.3299   1.3825   1.4353   1.5325   1.6200   1.6458   1.6559
     1.6566   1.6613   1.6737   1.7453   1.7882   1.9927   2.0517   2.3769
     2.8450   2.9331   2.9681   3.5129   3.5355   3.6416   3.6644   6.2572
     6.2740   6.4326   6.6564   6.7493   7.4785   7.6237   7.6319   8.1196
     8.1347   8.1402   8.2134   8.8044   8.8463   8.9654   8.9988   9.0718
     9.2458   9.2884

          k =-0.5000 0.3844 0.0000 ( 37078 PWs)   bands (ev):

   -38.4785 -38.4018 -22.9079 -22.8955 -22.8159 -22.7531 -19.0402 -18.9861
   -18.9688 -18.9074 -18.5946 -18.5237 -14.9368 -14.9010 -14.8004 -14.7357
   -14.6764 -14.6696 -14.4460 -14.4102 -14.3523 -14.3518 -14.3401 -14.0057
   -13.9881 -13.8914 -12.7481  -8.9327  -8.9212  -8.7497  -8.6784  -8.6666
    -8.5704  -8.4933  -8.4586  -8.3352  -8.3232  -8.2784  -8.1958  -4.3832
    -4.3194  -3.8214  -3.7411  -2.8449  -2.8297  -2.8250  -2.7560  -2.7108
    -2.6693  -2.6563  -2.5848  -2.5411  -2.2096  -2.2073  -2.1426  -2.0934
    -1.9204  -1.3799  -1.3450  -1.3234  -1.2991  -1.0655  -1.0454  -1.0276
    -1.0174  -0.9513  -0.8657  -0.8400  -0.7775  -0.7627  -0.7257  -0.2604
    -0.2493  -0.2122  -0.1447   0.0851   0.3833   0.5306   0.7638   0.7684
     0.8186   0.8645   1.0003   1.0773   1.0861   1.1221   1.1367   1.2401
     1.2433   1.2635   1.2760   1.3222   1.3674   1.3954   1.4540   1.4728
     1.5049   1.5615   1.5618   1.6028   1.6354   1.7132   1.7837   1.9134
     1.9453   2.1061   2.1213   2.1617   2.2152   2.2157   2.4395   2.4409
     2.7871   2.8638   2.9996   4.1666   4.1928   4.2638   4.2783   5.6986
     5.7123   5.9369   6.3293   6.4358   7.6730   7.7872   7.9255   8.1173
     8.4065   8.5523   8.6461   8.8013   8.9767   8.9768   9.0919   9.1512
     9.2523   9.2966

          k =-0.5000-0.5125 0.0000 ( 37044 PWs)   bands (ev):

   -38.4762 -38.3995 -22.8911 -22.8786 -22.8003 -22.7363 -19.0600 -19.0324
   -18.9814 -18.9610 -18.5563 -18.4853 -14.8822 -14.8725 -14.8461 -14.8072
   -14.6051 -14.6043 -14.3704 -14.3273 -14.3174 -14.3012 -14.2473 -13.9982
   -13.9796 -13.9247 -12.6856  -9.0848  -9.0733  -8.8988  -8.7959  -8.7840
    -8.7091  -8.6006  -8.5972  -8.3327  -8.3229  -8.2754  -8.1925  -4.5725
    -4.5093  -3.9888  -3.9092  -3.0833  -3.0806  -3.0671  -2.8864  -2.8420
    -2.6964  -2.6843  -2.6078  -2.5625  -2.1977  -2.1960  -2.1761  -2.1284
    -1.8931  -1.4251  -1.3810  -1.3051  -1.2560  -1.1677  -1.0837  -1.0732
    -1.0626  -0.9641  -0.9403  -0.9357  -0.8606  -0.8459  -0.8111  -0.2170
    -0.2119  -0.2060  -0.1049   0.1168   0.4203   0.5513   0.8266   0.8925
     1.0319   1.0761   1.1241   1.1411   1.1568   1.1695   1.1792   1.1896
     1.2092   1.2875   1.3855   1.4155   1.4611   1.4752   1.5033   1.6606
     1.6836   1.6897   1.6962   1.7028   1.7080   1.8234   1.9088   2.0196
     2.2055   2.2242   2.3131   2.3288   2.3851   2.4221   2.6013   2.6131
     2.6142   2.7052   2.9310   4.3801   4.4075   4.4940   4.5071   5.4506
     5.4629   5.7089   6.2187   6.3350   7.7112   7.7425   8.0314   8.0437
     8.3616   8.5548   8.7884   8.8723   8.8989   8.9095   9.0598   9.1576
     9.1913   9.2137

     the Fermi energy is     2.6095 ev

!    total energy              =   -1868.72319855 Ry
     Harris-Foulkes estimate   =   -1868.72319861 Ry
     estimated scf accuracy    <       0.00000070 Ry

     The total energy is the sum of the following terms:

     one-electron contribution =  -26048.68322113 Ry
     hartree contribution      =   13175.93342074 Ry
     xc contribution           =    -642.19933881 Ry
     ewald contribution        =   11646.23668470 Ry
     smearing contrib. (-TS)   =      -0.01074405 Ry

     convergence has been achieved in  34 iterations

     negative rho (up, down):  9.046E-02 0.000E+00

     Forces acting on atoms (cartesian axes, Ry/au):

     atom    1 type  3   force =     0.00000000    0.00000000   -0.00043450
     atom    2 type  2   force =     0.00000000    0.00000000    0.00187239
     atom    3 type  3   force =     0.00000000    0.00000000    0.00035293
     atom    4 type  1   force =     0.00000000    0.00000000   -0.00018538
     atom    5 type  2   force =     0.00000000    0.00000000   -0.00023979
     atom    6 type  3   force =     0.00000000    0.00000000    0.00132819
     atom    7 type  3   force =     0.00000000    0.00000000    0.00103705
     atom    8 type  4   force =     0.00000000    0.00000000   -0.00284644
     atom    9 type  3   force =     0.00000000    0.00000000    0.00517697
     atom   10 type  3   force =     0.00000000    0.00000000    0.00353902
     atom   11 type  2   force =     0.00000000    0.00000000   -0.00178747
     atom   12 type  1   force =     0.00000000    0.00000000    0.01640804
     atom   13 type  3   force =     0.00000000    0.00000000   -0.01943478
     atom   14 type  3   force =     0.00000000    0.00000000    0.02218619
     atom   15 type  2   force =     0.00000000    0.00000000   -0.02521131
     atom   16 type  3   force =     0.00000000    0.00000000    0.01995819
     atom   17 type  1   force =     0.00000000    0.00000000   -0.00407315
     atom   18 type  2   force =     0.00000000    0.00000000   -0.02295598
     atom   19 type  3   force =     0.00000000    0.00000000    0.00424780
     atom   20 type  3   force =     0.00000000    0.00000000    0.00302878
     atom   21 type  4   force =     0.00000000    0.00000000   -0.00089564
     atom   22 type  3   force =     0.00000000    0.00000000   -0.00048505
     atom   23 type  3   force =     0.00000000    0.00000000    0.00090628
     atom   24 type  2   force =     0.00000000    0.00000000    0.00036859
     atom   25 type  1   force =     0.00000000    0.00000000    0.00006281
     atom   26 type  3   force =     0.00000000    0.00000000   -0.00192601
     atom   27 type  2   force =     0.00000000    0.00000000   -0.00030031
     atom   28 type  3   force =     0.00000000    0.00000000    0.00030258

     Total force =     0.052983     Total SCF correction =     0.004243


     Computing stress (Cartesian axis) and pressure


     negative rho (up, down):  9.046E-02 0.000E+00
          total   stress  (Ry/bohr**3)                   (kbar)     P=       -6.38
   0.00000100   0.00000000   0.00000000            0.15        0.00        0.00
   0.00000000  -0.00010610   0.00000000            0.00      -15.61        0.00
   0.00000000   0.00000000  -0.00002510            0.00        0.00       -3.69

 
     init_run     :     11.04s CPU     11.55s WALL (       1 calls)
     electrons    :    698.76s CPU    728.82s WALL (       1 calls)
     forces       :      4.82s CPU      4.98s WALL (       1 calls)
     stress       :     45.57s CPU     46.42s WALL (       1 calls)

     Called by init_run:
     wfcinit      :      7.77s CPU      7.91s WALL (       1 calls)
     potinit      :      0.70s CPU      0.72s WALL (       1 calls)
     hinit0       :      1.10s CPU      1.11s WALL (       1 calls)

     Called by electrons:
     c_bands      :    540.45s CPU    552.66s WALL (      34 calls)
     sum_band     :    100.00s CPU    109.81s WALL (      34 calls)
     v_of_rho     :      3.81s CPU      3.85s WALL (      35 calls)
     newd         :     29.32s CPU     37.38s WALL (      35 calls)
     mix_rho      :     25.64s CPU     25.83s WALL (      34 calls)

     Called by c_bands:
     init_us_2    :      3.53s CPU      3.56s WALL (    1775 calls)
     cegterg      :    508.39s CPU    520.08s WALL (     850 calls)

     Called by sum_band:
     sum_band:bec :      0.23s CPU      0.24s WALL (     850 calls)
     addusdens    :     20.97s CPU     29.90s WALL (      34 calls)

     Called by *egterg:
     h_psi        :    233.93s CPU    241.66s WALL (    3703 calls)
     s_psi        :     20.50s CPU     20.82s WALL (    3703 calls)
     g_psi        :      0.64s CPU      0.64s WALL (    2828 calls)
     cdiaghg      :    118.06s CPU    118.54s WALL (    3678 calls)

     Called by h_psi:
     h_psi:calbec :     30.32s CPU     31.39s WALL (    3703 calls)
     vloc_psi     :    180.71s CPU    183.57s WALL (    3703 calls)
     add_vuspsi   :     21.93s CPU     24.03s WALL (    3703 calls)

     General routines
     calbec       :     71.74s CPU     72.97s WALL (    4678 calls)
     fft          :      4.08s CPU      4.11s WALL (     478 calls)
     ffts         :     11.89s CPU     12.00s WALL (   15696 calls)
     fftw         :    207.60s CPU    210.81s WALL (  608306 calls)
     interpolate  :      0.30s CPU      0.30s WALL (      35 calls)
 
     Parallel routines
     fft_scatt_xy :     23.69s CPU     24.05s WALL (  624480 calls)
     fft_scatt_yz :    138.43s CPU    140.49s WALL (  624480 calls)
 
     PWSCF        :  12m41.17s CPU  13m12.79s WALL

 
   This run was terminated on:  18:12:46   5May2021            

=------------------------------------------------------------------------------=
   JOB DONE.
=------------------------------------------------------------------------------=
[1620252766.848455] [holy7c04510:51468:0]          mpool.c:43   UCX  WARN  object 0x42d3440 was not returned to mpool ucp_requests
[1620252766.848716] [holy7c06607:178972:0]          mpool.c:43   UCX  WARN  object 0x436bcc0 was not returned to mpool ucp_requests
[1620252766.848116] [holy7c06606:260874:0]          mpool.c:43   UCX  WARN  object 0x3b2ef00 was not returned to mpool ucp_requests
[1620252766.848137] [holy7c06606:260874:0]          mpool.c:43   UCX  WARN  object 0x3b2f7c0 was not returned to mpool ucp_requests
[1620252766.852369] [holy7c06511:47741:0]          mpool.c:43   UCX  WARN  object 0x36fcf40 was not returned to mpool ucp_requests
[1620252766.852406] [holy7c06511:47741:0]          mpool.c:43   UCX  WARN  object 0x36fd480 was not returned to mpool ucp_requests
[1620252766.849069] [holy7c04510:51467:0]          mpool.c:43   UCX  WARN  object 0x38cc8c0 was not returned to mpool ucp_requests
[1620252766.849086] [holy7c04510:51467:0]          mpool.c:43   UCX  WARN  object 0x38cce00 was not returned to mpool ucp_requests
[1620252766.847700] [holy7c06607:178973:0]          mpool.c:43   UCX  WARN  object 0x4548680 was not returned to mpool ucp_requests
