
     Program PWSCF v.6.5 starts on  5May2021 at 17:56:35 

     This program is part of the open-source Quantum ESPRESSO suite
     for quantum simulation of materials; please cite
         "P. Giannozzi et al., J. Phys.:Condens. Matter 21 395502 (2009);
         "P. Giannozzi et al., J. Phys.:Condens. Matter 29 465901 (2017);
          URL http://www.quantum-espresso.org", 
     in publications or presentations arising from this work. More details at
     http://www.quantum-espresso.org/quote

     Parallel version (MPI), running on    20 processors

     MPI processes distributed on    17 nodes
     R & G space division:  proc/nbgrp/npool/nimage =      20
     Reading input from YBCO_BaO_cleave_6.0_sep_scf.pwi
Warning: card &IONS ignored
Warning: card     ION_DYNAMICS = 'BFGS' ignored
Warning: card / ignored
Warning: card &CELL ignored
Warning: card     CELL_DYNAMICS = 'BFGS' ignored
Warning: card / ignored

     Current dimensions of program PWSCF are:
     Max number of different atomic species (ntypx) = 10
     Max number of k-points (npk) =  40000
     Max angular momentum in pseudopotentials (lmaxx) =  3

     Subspace diagonalization in iterative solution of the eigenvalue problem:
     one sub-group per band group will be used
     scalapack distributed-memory algorithm (size of sub-group:  4*  4 procs)

     Message from routine setup:
     using ibrav=0 with symmetry is DISCOURAGED, use correct ibrav instead
 
     Parallelization info
     --------------------
     sticks:   dense  smooth     PW     G-vecs:    dense   smooth      PW
     Min         150      50     14                80800    15544    2422
     Max         151      51     15                80843    15571    2473
     Sum        3015    1011    293              1616397   311077   48995
 


     bravais-lattice index     =            0
     lattice parameter (alat)  =       7.3477  a.u.
     unit-cell volume          =    4953.9607 (a.u.)^3
     number of atoms/cell      =           28
     number of atomic types    =            4
     number of electrons       =       229.00
     number of Kohn-Sham states=          138
     kinetic-energy cutoff     =      60.0000  Ry
     charge density cutoff     =     720.0000  Ry
     convergence threshold     =      1.0E-06
     mixing beta               =       0.2000
     number of iterations used =           10  local-TF  mixing
     Exchange-correlation= SLA PW PBE PBE
                           (   1   4   3   4   0   0   0)

     celldm(1)=   7.347715  celldm(2)=   0.000000  celldm(3)=   0.000000
     celldm(4)=   0.000000  celldm(5)=   0.000000  celldm(6)=   0.000000

     crystal axes: (cart. coord. in units of alat)
               a(1) = (   1.000000   0.000000   0.000000 )  
               a(2) = (   0.000000   0.975577   0.000000 )  
               a(3) = (   0.000000   0.000000  12.800707 )  

     reciprocal axes: (cart. coord. in units 2 pi/alat)
               b(1) = (  1.000000  0.000000  0.000000 )  
               b(2) = (  0.000000  1.025034  0.000000 )  
               b(3) = (  0.000000  0.000000  0.078121 )  


     PseudoPot. # 1 for Ba read from file:
     /n/holyscratch01/hoffman_lab/ruizhe/YBCO_Project/pseudo/Ba.pbe-nsp-van.UPF
     MD5 check sum: 2b9c31dd849566dd297d80989662b7a0
     Pseudo is Ultrasoft + core correction, Zval = 10.0
     Generated by new atomic code, or converted to UPF format
     Using radial grid of  907 points,  6 beta functions with: 
                l(1) =   0
                l(2) =   0
                l(3) =   1
                l(4) =   1
                l(5) =   2
                l(6) =   2
     Q(r) pseudized with  6 coefficients,  rinner =    1.200   1.200   1.200
                                                       1.200   1.200

     PseudoPot. # 2 for Cu read from file:
     /n/holyscratch01/hoffman_lab/ruizhe/YBCO_Project/pseudo/Cu.pbe-n-van_ak.UPF
     MD5 check sum: 34e3282627ffb533726feb647e090d62
     Pseudo is Ultrasoft + core correction, Zval = 11.0
     Generated by new atomic code, or converted to UPF format
     Using radial grid of  867 points,  6 beta functions with: 
                l(1) =   0
                l(2) =   0
                l(3) =   1
                l(4) =   1
                l(5) =   2
                l(6) =   2
     Q(r) pseudized with  8 coefficients,  rinner =    1.400   1.400   1.400
                                                       1.400   1.400

     PseudoPot. # 3 for O  read from file:
     /n/holyscratch01/hoffman_lab/ruizhe/YBCO_Project/pseudo/O.pbe-van_ak.UPF
     MD5 check sum: 783ce7fe4c79b6a4916957118fed0856
     Pseudo is Ultrasoft, Zval =  6.0
     Generated by new atomic code, or converted to UPF format
     Using radial grid of  737 points,  4 beta functions with: 
                l(1) =   0
                l(2) =   0
                l(3) =   1
                l(4) =   1
     Q(r) pseudized with  8 coefficients,  rinner =    0.800   0.800   0.800


     PseudoPot. # 4 for Y  read from file:
     /n/holyscratch01/hoffman_lab/ruizhe/YBCO_Project/pseudo/Y.pbe-nsp-van.UPF
     MD5 check sum: 4412fed3ab108fed87a1b7d6a69a4a38
     Pseudo is Ultrasoft + core correction, Zval = 11.0
     Generated by new atomic code, or converted to UPF format
     Using radial grid of  885 points,  6 beta functions with: 
                l(1) =   0
                l(2) =   0
                l(3) =   1
                l(4) =   1
                l(5) =   2
                l(6) =   2
     Q(r) pseudized with  6 coefficients,  rinner =    1.200   1.200   1.200
                                                       1.200   1.200

     atomic species   valence    mass     pseudopotential
        Ba            10.00   137.32700     Ba( 1.00)
        Cu            11.00    63.54600     Cu( 1.00)
        O              6.00    15.99900     O ( 1.00)
        Y             11.00    88.90584     Y ( 1.00)

      4 Sym. Ops. (no inversion) found



   Cartesian axes

     site n.     atom                  positions (alat units)
         1           O   tau(   1) = (   0.0000000   0.4877884  -0.0257983  )
         2           Cu  tau(   2) = (   0.0000000   0.0000000   0.0215779  )
         3           O   tau(   3) = (   0.0000000   0.0000000   0.5073114  )
         4           Ba  tau(   4) = (   0.4999996   0.4877884   0.5319677  )
         5           Cu  tau(   5) = (   0.0000000   0.0000000   1.0495845  )
         6           O   tau(   6) = (   0.4999996   0.0000000   1.1181579  )
         7           O   tau(   7) = (   0.0000000   0.4877884   1.1273137  )
         8           Y   tau(   8) = (   0.4999996   0.4877884   1.4938777  )
         9           O   tau(   9) = (   0.0000000   0.4877884   1.8497402  )
        10           O   tau(  10) = (   0.4999996   0.0000000   1.8692709  )
        11           Cu  tau(  11) = (   0.0000000   0.0000000   1.9417560  )
        12           Ba  tau(  12) = (   0.4999996   0.4877884   2.4526063  )
        13           O   tau(  13) = (   0.0000000   0.0000000   2.5103470  )
        14           O   tau(  14) = (   0.0000000   0.4877884   2.9968469  )
        15           Cu  tau(  15) = (   0.0000000   0.0000000   2.9968521  )
        16           O   tau(  16) = (   0.0000000   0.0000000   3.4833288  )
        17           Ba  tau(  17) = (   0.4999996   0.4877884   3.5410618  )
        18           Cu  tau(  18) = (   0.0000000   0.0000000   5.5950485  )
        19           O   tau(  19) = (   0.4999996   0.0000000   5.6675208  )
        20           O   tau(  20) = (   0.0000000   0.4877884   5.6870335  )
        21           Y   tau(  21) = (   0.4999996   0.4877884   6.0428986  )
        22           O   tau(  22) = (   0.0000000   0.4877884   6.4094625  )
        23           O   tau(  23) = (   0.4999996   0.0000000   6.4186312  )
        24           Cu  tau(  24) = (   0.0000000   0.0000000   6.4872097  )
        25           Ba  tau(  25) = (   0.4999996   0.4877884   7.0048111  )
        26           O   tau(  26) = (   0.0000000   0.0000000   7.0294675  )
        27           Cu  tau(  27) = (   0.0000000   0.0000000   7.5151727  )
        28           O   tau(  28) = (   0.0000000   0.4877884   7.5625540  )

     number of k points=    25  Gaussian smearing, width (Ry)=  0.0100
                       cart. coord. in units 2pi/alat
        k(    1) = (   0.0000000   0.0000000   0.0000000), wk =   0.0312500
        k(    2) = (   0.0000000   0.1281293   0.0000000), wk =   0.0625000
        k(    3) = (   0.0000000   0.2562585   0.0000000), wk =   0.0625000
        k(    4) = (   0.0000000   0.3843878   0.0000000), wk =   0.0625000
        k(    5) = (   0.0000000  -0.5125170   0.0000000), wk =   0.0312500
        k(    6) = (   0.1250000   0.0000000   0.0000000), wk =   0.0625000
        k(    7) = (   0.1250000   0.1281293   0.0000000), wk =   0.1250000
        k(    8) = (   0.1250000   0.2562585   0.0000000), wk =   0.1250000
        k(    9) = (   0.1250000   0.3843878   0.0000000), wk =   0.1250000
        k(   10) = (   0.1250000  -0.5125170   0.0000000), wk =   0.0625000
        k(   11) = (   0.2500000   0.0000000   0.0000000), wk =   0.0625000
        k(   12) = (   0.2500000   0.1281293   0.0000000), wk =   0.1250000
        k(   13) = (   0.2500000   0.2562585   0.0000000), wk =   0.1250000
        k(   14) = (   0.2500000   0.3843878   0.0000000), wk =   0.1250000
        k(   15) = (   0.2500000  -0.5125170   0.0000000), wk =   0.0625000
        k(   16) = (   0.3750000   0.0000000   0.0000000), wk =   0.0625000
        k(   17) = (   0.3750000   0.1281293   0.0000000), wk =   0.1250000
        k(   18) = (   0.3750000   0.2562585   0.0000000), wk =   0.1250000
        k(   19) = (   0.3750000   0.3843878   0.0000000), wk =   0.1250000
        k(   20) = (   0.3750000  -0.5125170   0.0000000), wk =   0.0625000
        k(   21) = (  -0.5000000   0.0000000   0.0000000), wk =   0.0312500
        k(   22) = (  -0.5000000   0.1281293   0.0000000), wk =   0.0625000
        k(   23) = (  -0.5000000   0.2562585   0.0000000), wk =   0.0625000
        k(   24) = (  -0.5000000   0.3843878   0.0000000), wk =   0.0625000
        k(   25) = (  -0.5000000  -0.5125170   0.0000000), wk =   0.0312500

     Dense  grid:  1616397 G-vectors     FFT dimensions: (  64,  64, 810)

     Smooth grid:   311077 G-vectors     FFT dimensions: (  40,  36, 480)

     Estimated max dynamical RAM per process >     515.30 MB

     Estimated total dynamical RAM >      10.06 GB

     Initial potential from superposition of free atoms

     starting charge  228.84827, renormalised to  229.00000

     negative rho (up, down):  8.957E-02 0.000E+00
     Starting wfcs are  201 randomized atomic wfcs

     total cpu time spent up to now is       11.0 secs

     Self-consistent Calculation

     iteration #  1     ecut=    60.00 Ry     beta= 0.20
     Davidson diagonalization with overlap
     ethr =  1.00E-02,  avg # of iterations =  2.0

     negative rho (up, down):  8.748E-02 0.000E+00

     total cpu time spent up to now is       28.6 secs

     total energy              =   -1869.57589911 Ry
     Harris-Foulkes estimate   =   -1871.20229796 Ry
     estimated scf accuracy    <      16.71809888 Ry

     iteration #  2     ecut=    60.00 Ry     beta= 0.20
     Davidson diagonalization with overlap
     ethr =  7.30E-03,  avg # of iterations =  1.0

     negative rho (up, down):  8.643E-02 0.000E+00

     total cpu time spent up to now is       44.4 secs

     total energy              =   -1869.20644749 Ry
     Harris-Foulkes estimate   =   -1869.95718648 Ry
     estimated scf accuracy    <       6.06154198 Ry

     iteration #  3     ecut=    60.00 Ry     beta= 0.20
     Davidson diagonalization with overlap
     ethr =  2.65E-03,  avg # of iterations =  1.0

     negative rho (up, down):  8.595E-02 0.000E+00

     total cpu time spent up to now is       60.3 secs

     total energy              =   -1868.71196440 Ry
     Harris-Foulkes estimate   =   -1869.37669061 Ry
     estimated scf accuracy    <       4.37232670 Ry

     iteration #  4     ecut=    60.00 Ry     beta= 0.20
     Davidson diagonalization with overlap
     ethr =  1.91E-03,  avg # of iterations =  1.4

     negative rho (up, down):  8.598E-02 0.000E+00

     total cpu time spent up to now is       76.0 secs

     total energy              =   -1868.96395241 Ry
     Harris-Foulkes estimate   =   -1868.99160856 Ry
     estimated scf accuracy    <       2.78719233 Ry

     iteration #  5     ecut=    60.00 Ry     beta= 0.20
     Davidson diagonalization with overlap
     ethr =  1.22E-03,  avg # of iterations =  1.0

     negative rho (up, down):  8.685E-02 0.000E+00

     total cpu time spent up to now is       91.6 secs

     total energy              =   -1868.86396096 Ry
     Harris-Foulkes estimate   =   -1868.98916612 Ry
     estimated scf accuracy    <       2.15656109 Ry

     iteration #  6     ecut=    60.00 Ry     beta= 0.20
     Davidson diagonalization with overlap
     ethr =  9.42E-04,  avg # of iterations =  1.0

     negative rho (up, down):  8.783E-02 0.000E+00

     total cpu time spent up to now is      107.0 secs

     total energy              =   -1868.84490388 Ry
     Harris-Foulkes estimate   =   -1868.89609853 Ry
     estimated scf accuracy    <       1.22590620 Ry

     iteration #  7     ecut=    60.00 Ry     beta= 0.20
     Davidson diagonalization with overlap
     ethr =  5.35E-04,  avg # of iterations =  1.3

     negative rho (up, down):  8.907E-02 0.000E+00

     total cpu time spent up to now is      122.9 secs

     total energy              =   -1868.80719074 Ry
     Harris-Foulkes estimate   =   -1868.86370084 Ry
     estimated scf accuracy    <       0.82532508 Ry

     iteration #  8     ecut=    60.00 Ry     beta= 0.20
     Davidson diagonalization with overlap
     ethr =  3.60E-04,  avg # of iterations =  4.8

     negative rho (up, down):  8.969E-02 0.000E+00

     total cpu time spent up to now is      142.9 secs

     total energy              =   -1868.80814408 Ry
     Harris-Foulkes estimate   =   -1868.82911381 Ry
     estimated scf accuracy    <       0.43044610 Ry

     iteration #  9     ecut=    60.00 Ry     beta= 0.20
     Davidson diagonalization with overlap
     ethr =  1.88E-04,  avg # of iterations =  4.6

     negative rho (up, down):  9.066E-02 0.000E+00

     total cpu time spent up to now is      162.6 secs

     total energy              =   -1868.80066614 Ry
     Harris-Foulkes estimate   =   -1868.81523214 Ry
     estimated scf accuracy    <       0.38623870 Ry

     iteration # 10     ecut=    60.00 Ry     beta= 0.20
     Davidson diagonalization with overlap
     ethr =  1.69E-04,  avg # of iterations =  2.6

     negative rho (up, down):  9.088E-02 0.000E+00

     total cpu time spent up to now is      179.8 secs

     total energy              =   -1868.79571642 Ry
     Harris-Foulkes estimate   =   -1868.80468527 Ry
     estimated scf accuracy    <       0.31547355 Ry

     iteration # 11     ecut=    60.00 Ry     beta= 0.20
     Davidson diagonalization with overlap
     ethr =  1.38E-04,  avg # of iterations =  2.8

     negative rho (up, down):  9.183E-02 0.000E+00

     total cpu time spent up to now is      197.3 secs

     total energy              =   -1868.76709009 Ry
     Harris-Foulkes estimate   =   -1868.79773386 Ry
     estimated scf accuracy    <       0.21315205 Ry

     iteration # 12     ecut=    60.00 Ry     beta= 0.20
     Davidson diagonalization with overlap
     ethr =  9.31E-05,  avg # of iterations =  6.6

     negative rho (up, down):  9.860E-02 0.000E+00

     total cpu time spent up to now is      220.7 secs

     total energy              =   -1868.76911687 Ry
     Harris-Foulkes estimate   =   -1868.77708782 Ry
     estimated scf accuracy    <       0.09611562 Ry

     iteration # 13     ecut=    60.00 Ry     beta= 0.20
     Davidson diagonalization with overlap
     ethr =  4.20E-05,  avg # of iterations =  4.6

     negative rho (up, down):  9.632E-02 0.000E+00

     total cpu time spent up to now is      240.1 secs

     total energy              =   -1868.77012786 Ry
     Harris-Foulkes estimate   =   -1868.77218953 Ry
     estimated scf accuracy    <       0.07167026 Ry

     iteration # 14     ecut=    60.00 Ry     beta= 0.20
     Davidson diagonalization with overlap
     ethr =  3.13E-05,  avg # of iterations =  1.9

     negative rho (up, down):  1.019E-01 0.000E+00

     total cpu time spent up to now is      256.4 secs

     total energy              =   -1868.77044159 Ry
     Harris-Foulkes estimate   =   -1868.77141101 Ry
     estimated scf accuracy    <       0.03301031 Ry

     iteration # 15     ecut=    60.00 Ry     beta= 0.20
     Davidson diagonalization with overlap
     c_bands:  1 eigenvalues not converged
     ethr =  1.44E-05,  avg # of iterations =  9.1

     negative rho (up, down):  9.323E-02 0.000E+00

     total cpu time spent up to now is      282.3 secs

     total energy              =   -1868.77078079 Ry
     Harris-Foulkes estimate   =   -1868.77126554 Ry
     estimated scf accuracy    <       0.01544149 Ry

     iteration # 16     ecut=    60.00 Ry     beta= 0.20
     Davidson diagonalization with overlap
     c_bands:  2 eigenvalues not converged
     ethr =  6.74E-06,  avg # of iterations =  6.1

     negative rho (up, down):  1.073E-01 0.000E+00

     total cpu time spent up to now is      304.0 secs

     total energy              =   -1868.77018299 Ry
     Harris-Foulkes estimate   =   -1868.77104459 Ry
     estimated scf accuracy    <       0.01042219 Ry

     iteration # 17     ecut=    60.00 Ry     beta= 0.20
     Davidson diagonalization with overlap
     ethr =  4.55E-06,  avg # of iterations =  9.6

     negative rho (up, down):  1.041E-01 0.000E+00

     total cpu time spent up to now is      331.2 secs

     total energy              =   -1868.77033966 Ry
     Harris-Foulkes estimate   =   -1868.77061890 Ry
     estimated scf accuracy    <       0.00660109 Ry

     iteration # 18     ecut=    60.00 Ry     beta= 0.20
     Davidson diagonalization with overlap
     ethr =  2.88E-06,  avg # of iterations =  5.6

     negative rho (up, down):  9.920E-02 0.000E+00

     total cpu time spent up to now is      352.5 secs

     total energy              =   -1868.77019655 Ry
     Harris-Foulkes estimate   =   -1868.77041868 Ry
     estimated scf accuracy    <       0.00576384 Ry

     iteration # 19     ecut=    60.00 Ry     beta= 0.20
     Davidson diagonalization with overlap
     c_bands:  1 eigenvalues not converged
     ethr =  2.52E-06,  avg # of iterations =  6.0

     negative rho (up, down):  9.301E-02 0.000E+00

     total cpu time spent up to now is      373.9 secs

     total energy              =   -1868.76949910 Ry
     Harris-Foulkes estimate   =   -1868.77021735 Ry
     estimated scf accuracy    <       0.00563525 Ry

     iteration # 20     ecut=    60.00 Ry     beta= 0.20
     Davidson diagonalization with overlap
     ethr =  2.46E-06,  avg # of iterations =  7.1

     negative rho (up, down):  9.166E-02 0.000E+00

     total cpu time spent up to now is      397.1 secs

     total energy              =   -1868.76937592 Ry
     Harris-Foulkes estimate   =   -1868.76956928 Ry
     estimated scf accuracy    <       0.00506712 Ry

     iteration # 21     ecut=    60.00 Ry     beta= 0.20
     Davidson diagonalization with overlap
     c_bands:  1 eigenvalues not converged
     ethr =  2.21E-06,  avg # of iterations =  6.7

     negative rho (up, down):  8.986E-02 0.000E+00

     total cpu time spent up to now is      419.1 secs

     total energy              =   -1868.76841580 Ry
     Harris-Foulkes estimate   =   -1868.76938975 Ry
     estimated scf accuracy    <       0.00465421 Ry

     iteration # 22     ecut=    60.00 Ry     beta= 0.20
     Davidson diagonalization with overlap
     c_bands:  1 eigenvalues not converged
     ethr =  2.03E-06,  avg # of iterations =  9.7

     negative rho (up, down):  8.982E-02 0.000E+00

     total cpu time spent up to now is      446.1 secs

     total energy              =   -1868.76816528 Ry
     Harris-Foulkes estimate   =   -1868.76847338 Ry
     estimated scf accuracy    <       0.00381819 Ry

     iteration # 23     ecut=    60.00 Ry     beta= 0.20
     Davidson diagonalization with overlap
     ethr =  1.67E-06,  avg # of iterations =  3.8

     negative rho (up, down):  8.969E-02 0.000E+00

     total cpu time spent up to now is      464.3 secs

     total energy              =   -1868.76772992 Ry
     Harris-Foulkes estimate   =   -1868.76818462 Ry
     estimated scf accuracy    <       0.00333057 Ry

     iteration # 24     ecut=    60.00 Ry     beta= 0.20
     Davidson diagonalization with overlap
     ethr =  1.45E-06,  avg # of iterations =  8.6

     negative rho (up, down):  9.094E-02 0.000E+00

     total cpu time spent up to now is      489.7 secs

     total energy              =   -1868.76753357 Ry
     Harris-Foulkes estimate   =   -1868.76781135 Ry
     estimated scf accuracy    <       0.00212724 Ry

     iteration # 25     ecut=    60.00 Ry     beta= 0.20
     Davidson diagonalization with overlap
     ethr =  9.29E-07,  avg # of iterations =  5.8

     negative rho (up, down):  9.011E-02 0.000E+00

     total cpu time spent up to now is      510.6 secs

     total energy              =   -1868.76747159 Ry
     Harris-Foulkes estimate   =   -1868.76756808 Ry
     estimated scf accuracy    <       0.00124606 Ry

     iteration # 26     ecut=    60.00 Ry     beta= 0.20
     Davidson diagonalization with overlap
     ethr =  5.44E-07,  avg # of iterations =  5.3

     negative rho (up, down):  9.043E-02 0.000E+00

     total cpu time spent up to now is      531.0 secs

     total energy              =   -1868.76756664 Ry
     Harris-Foulkes estimate   =   -1868.76751898 Ry
     estimated scf accuracy    <       0.00064805 Ry

     iteration # 27     ecut=    60.00 Ry     beta= 0.20
     Davidson diagonalization with overlap
     ethr =  2.83E-07,  avg # of iterations =  5.2

     negative rho (up, down):  9.037E-02 0.000E+00

     total cpu time spent up to now is      551.7 secs

     total energy              =   -1868.76760092 Ry
     Harris-Foulkes estimate   =   -1868.76759368 Ry
     estimated scf accuracy    <       0.00037302 Ry

     iteration # 28     ecut=    60.00 Ry     beta= 0.20
     Davidson diagonalization with overlap
     ethr =  1.63E-07,  avg # of iterations =  1.2

     negative rho (up, down):  9.012E-02 0.000E+00

     total cpu time spent up to now is      567.4 secs

     total energy              =   -1868.76763452 Ry
     Harris-Foulkes estimate   =   -1868.76760511 Ry
     estimated scf accuracy    <       0.00025715 Ry

     iteration # 29     ecut=    60.00 Ry     beta= 0.20
     Davidson diagonalization with overlap
     ethr =  1.12E-07,  avg # of iterations =  1.7

     negative rho (up, down):  9.003E-02 0.000E+00

     total cpu time spent up to now is      583.6 secs

     total energy              =   -1868.76763632 Ry
     Harris-Foulkes estimate   =   -1868.76763920 Ry
     estimated scf accuracy    <       0.00021914 Ry

     iteration # 30     ecut=    60.00 Ry     beta= 0.20
     Davidson diagonalization with overlap
     ethr =  9.57E-08,  avg # of iterations =  1.0

     negative rho (up, down):  8.981E-02 0.000E+00

     total cpu time spent up to now is      599.0 secs

     total energy              =   -1868.76761000 Ry
     Harris-Foulkes estimate   =   -1868.76763705 Ry
     estimated scf accuracy    <       0.00020359 Ry

     iteration # 31     ecut=    60.00 Ry     beta= 0.20
     Davidson diagonalization with overlap
     ethr =  8.89E-08,  avg # of iterations =  2.6

     negative rho (up, down):  8.973E-02 0.000E+00

     total cpu time spent up to now is      616.0 secs

     total energy              =   -1868.76760696 Ry
     Harris-Foulkes estimate   =   -1868.76761194 Ry
     estimated scf accuracy    <       0.00016128 Ry

     iteration # 32     ecut=    60.00 Ry     beta= 0.20
     Davidson diagonalization with overlap
     ethr =  7.04E-08,  avg # of iterations =  1.0

     negative rho (up, down):  8.979E-02 0.000E+00

     total cpu time spent up to now is      631.5 secs

     total energy              =   -1868.76767697 Ry
     Harris-Foulkes estimate   =   -1868.76760814 Ry
     estimated scf accuracy    <       0.00013211 Ry

     iteration # 33     ecut=    60.00 Ry     beta= 0.20
     Davidson diagonalization with overlap
     ethr =  5.77E-08,  avg # of iterations =  4.6

     negative rho (up, down):  9.087E-02 0.000E+00

     total cpu time spent up to now is      651.1 secs

     total energy              =   -1868.76769684 Ry
     Harris-Foulkes estimate   =   -1868.76768144 Ry
     estimated scf accuracy    <       0.00004907 Ry

     iteration # 34     ecut=    60.00 Ry     beta= 0.20
     Davidson diagonalization with overlap
     c_bands:  1 eigenvalues not converged
     ethr =  2.14E-08,  avg # of iterations =  6.8

     negative rho (up, down):  9.093E-02 0.000E+00

     total cpu time spent up to now is      673.6 secs

     total energy              =   -1868.76769896 Ry
     Harris-Foulkes estimate   =   -1868.76770059 Ry
     estimated scf accuracy    <       0.00000727 Ry

     iteration # 35     ecut=    60.00 Ry     beta= 0.20
     Davidson diagonalization with overlap
     ethr =  3.17E-09,  avg # of iterations =  3.0

     negative rho (up, down):  9.092E-02 0.000E+00

     total cpu time spent up to now is      692.4 secs

     total energy              =   -1868.76769723 Ry
     Harris-Foulkes estimate   =   -1868.76769969 Ry
     estimated scf accuracy    <       0.00000570 Ry

     iteration # 36     ecut=    60.00 Ry     beta= 0.20
     Davidson diagonalization with overlap
     ethr =  2.49E-09,  avg # of iterations =  1.2

     negative rho (up, down):  9.080E-02 0.000E+00

     total cpu time spent up to now is      708.0 secs

     total energy              =   -1868.76770022 Ry
     Harris-Foulkes estimate   =   -1868.76769734 Ry
     estimated scf accuracy    <       0.00000279 Ry

     iteration # 37     ecut=    60.00 Ry     beta= 0.20
     Davidson diagonalization with overlap
     ethr =  1.22E-09,  avg # of iterations =  2.1

     negative rho (up, down):  9.075E-02 0.000E+00

     total cpu time spent up to now is      724.9 secs

     total energy              =   -1868.76770120 Ry
     Harris-Foulkes estimate   =   -1868.76770041 Ry
     estimated scf accuracy    <       0.00000128 Ry

     iteration # 38     ecut=    60.00 Ry     beta= 0.20
     Davidson diagonalization with overlap
     ethr =  5.60E-10,  avg # of iterations =  1.3

     negative rho (up, down):  9.066E-02 0.000E+00

     total cpu time spent up to now is      740.1 secs

     End of self-consistent calculation

          k = 0.0000 0.0000 0.0000 ( 38797 PWs)   bands (ev):

   -38.6200 -38.2559 -24.6266 -23.2726 -23.2434 -23.1850 -19.1551 -18.7621
   -18.6243 -18.6151 -18.2795 -18.2621 -15.9503 -15.6573 -15.2732 -14.9912
   -14.7699 -14.7574 -14.7356 -14.5563 -14.5482 -14.4744 -14.2556 -14.2502
   -14.2477 -14.0090 -13.9747  -9.9461  -9.4563  -9.4327  -8.4986  -8.4591
    -8.4582  -8.2650  -8.2382  -8.2381  -8.2102  -8.1387  -8.1153  -2.5789
    -2.5445  -2.4143  -2.3608  -2.3584  -2.3570  -2.3505  -2.3316  -2.2886
    -2.2139  -2.1689  -1.9488  -1.8171  -1.4725  -1.3809  -1.0787  -1.0583
    -1.0405  -0.9634  -0.9553  -0.9380  -0.6086  -0.5661  -0.5641  -0.5293
    -0.5269  -0.4356  -0.3879  -0.3701  -0.3636  -0.3494  -0.2657  -0.2128
    -0.2074  -0.1904  -0.1737  -0.1218  -0.1146  -0.1001  -0.0888  -0.0553
     0.0121   0.0361   0.0398   0.0484   0.0593   0.1644   0.1652   0.3343
     0.3829   0.4236   0.5717   0.5980   0.7321   0.7393   0.7528   0.8561
     0.8702   0.8717   0.9050   0.9085   0.9768   1.0065   1.0161   1.0689
     1.2279   1.2417   1.4383   1.4572   1.4888   1.5454   1.5879   1.6874
     1.6997   1.7152   1.8453   1.8486   1.8852   2.1722   2.1725   3.5621
     4.7017   4.7855   4.7957   5.2765   5.3414   5.8272   6.1739   6.2080
     6.3246   6.7016   7.0239   7.1497   7.4164   7.6626   7.6788   7.8533
     7.9927   8.0442

          k = 0.0000 0.1281 0.0000 ( 38797 PWs)   bands (ev):

   -38.6177 -38.2536 -24.6086 -23.2510 -23.2218 -23.1642 -19.1191 -18.7260
   -18.7194 -18.6211 -18.3669 -18.2763 -15.8414 -15.5583 -15.2279 -14.9996
   -14.7848 -14.7668 -14.7049 -14.5665 -14.5203 -14.5123 -14.3168 -14.2610
   -14.2566 -14.0735 -14.0012  -9.9318  -9.4679  -9.3999  -8.4806  -8.4486
    -8.4418  -8.2577  -8.2298  -8.2238  -8.1968  -8.1353  -8.1000  -2.6803
    -2.6553  -2.6028  -2.5295  -2.3598  -2.3504  -2.3372  -2.3202  -2.2446
    -2.2189  -2.1984  -1.9810  -1.9670  -1.8022  -1.4805  -1.4751  -1.3961
    -1.3271  -1.0147  -0.9951  -0.9416  -0.9306  -0.8738  -0.7901  -0.6789
    -0.6175  -0.6143  -0.5981  -0.5664  -0.5089  -0.4943  -0.4203  -0.3468
    -0.2482  -0.2091  -0.2022  -0.0579  -0.0554   0.0293   0.0457   0.0460
     0.0485   0.0669   0.0821   0.1270   0.2450   0.2476   0.3496   0.3510
     0.4190   0.4202   0.5386   0.5917   0.6230   0.6465   0.7053   0.8039
     0.8431   0.9356   0.9770   1.0015   1.0328   1.1359   1.1501   1.1746
     1.2213   1.3184   1.3302   1.4449   1.4648   1.4871   1.5548   1.6121
     1.6711   1.7026   1.9433   2.1031   2.3709   2.4938   2.5027   3.7395
     5.0038   5.1572   5.1605   5.5403   5.6094   5.9925   6.4523   6.5074
     6.5709   6.9193   7.2031   7.3918   7.6015   7.6184   7.7455   7.8428
     7.9306   8.0159

          k = 0.0000 0.2563 0.0000 ( 38804 PWs)   bands (ev):

   -38.6121 -38.2479 -24.5645 -23.1979 -23.1687 -23.1132 -19.0280 -18.9445
   -18.6404 -18.6133 -18.5866 -18.2684 -15.5931 -15.3434 -15.1103 -15.0752
   -14.8694 -14.8246 -14.6397 -14.6283 -14.5861 -14.4861 -14.4002 -14.2406
   -14.2383 -14.2255 -14.0380  -9.8915  -9.4956  -9.3189  -8.4389  -8.4199
    -8.4018  -8.2988  -8.2711  -8.1786  -8.1205  -8.0933  -8.0034  -3.1118
    -3.0201  -3.0043  -2.8863  -2.5828  -2.5067  -2.4989  -2.3878  -2.3273
    -2.2398  -2.2361  -2.2035  -2.1614  -2.1455  -1.9191  -1.8364  -1.7541
    -1.3764  -1.2786  -1.2763  -1.1997  -1.1380  -1.0010  -0.9812  -0.9267
    -0.9244  -0.8974  -0.8458  -0.8405  -0.7930  -0.6467  -0.5816  -0.5514
    -0.5460  -0.4342  -0.3678  -0.2399  -0.1757  -0.1157  -0.1023   0.0098
     0.0835   0.0865   0.1024   0.1124   0.1949   0.2646   0.4119   0.4828
     0.5436   0.6048   0.6895   0.6906   0.8157   0.8399   0.8648   0.9601
     1.0037   1.0114   1.0131   1.0514   1.1150   1.2192   1.2284   1.2300
     1.3153   1.3173   1.3235   1.4533   1.5527   1.6385   1.7550   1.7599
     1.7625   1.7662   2.1158   2.2478   2.7863   2.7994   3.2002   4.2184
     5.7734   6.0486   6.0497   6.1619   6.2580   6.2992   6.8497   7.3177
     7.3560   7.3925   7.4882   7.5810   7.7974   7.8861   7.9546   8.1515
     8.2641   8.3434

          k = 0.0000 0.3844 0.0000 ( 38732 PWs)   bands (ev):

   -38.6065 -38.2423 -24.5195 -23.1434 -23.1141 -23.0608 -19.1424 -18.9297
   -18.7943 -18.6056 -18.5320 -18.2606 -15.3431 -15.2182 -15.1738 -14.9741
   -14.9719 -14.9222 -14.7237 -14.6693 -14.6156 -14.5830 -14.3628 -14.2665
   -14.1860 -14.1793 -14.0648  -9.8399  -9.5273  -9.2346  -8.4011  -8.3839
    -8.3616  -8.3318  -8.3043  -8.2182  -8.0115  -7.9840  -7.9019  -3.6418
    -3.4650  -3.3953  -3.2405  -3.0655  -3.0630  -2.9128  -2.4146  -2.4104
    -2.3783  -2.3212  -2.1810  -2.0933  -2.0509  -2.0393  -2.0250  -1.7032
    -1.5533  -1.4532  -1.4219  -1.3409  -1.3198  -1.2499  -1.2447  -1.2147
    -1.0871  -1.0796  -0.9841  -0.9565  -0.9471  -0.9218  -0.7948  -0.7897
    -0.7199  -0.5964  -0.5454  -0.4208  -0.4043  -0.3785  -0.1635  -0.0685
     0.0609   0.0775   0.0947   0.1263   0.1352   0.3944   0.4115   0.5447
     0.6221   0.6465   0.7308   0.7745   0.8906   0.8918   0.9434   0.9633
     1.0314   1.0482   1.0846   1.1772   1.2022   1.2413   1.4082   1.4809
     1.4939   1.6203   1.6414   1.6769   1.7286   1.7416   1.7763   1.7964
     2.0978   2.1689   2.1737   2.1870   2.7589   2.7684   3.7392   4.8642
     5.9119   6.6954   6.9191   6.9384   7.0026   7.1376   7.3757   7.4934
     7.5653   7.6823   7.9026   8.1446   8.2047   8.3470   8.4394   8.5589
     8.5755   8.6282

          k = 0.0000-0.5125 0.0000 ( 38850 PWs)   bands (ev):

   -38.6042 -38.2400 -24.5005 -23.1204 -23.0910 -23.0387 -19.2184 -18.8866
   -18.8702 -18.6024 -18.4888 -18.2573 -15.2983 -15.2113 -15.1596 -15.0016
   -14.9652 -14.8694 -14.7750 -14.7663 -14.6380 -14.5702 -14.4058 -14.1848
   -14.1481 -14.1458 -14.1073  -9.8134  -9.5439  -9.1987  -8.3867  -8.3654
    -8.3449  -8.3434  -8.3160  -8.2352  -7.9644  -7.9368  -7.8582  -3.8841
    -3.6122  -3.5470  -3.3740  -3.3014  -3.2947  -3.0459  -2.4492  -2.4446
    -2.4318  -2.3979  -2.1789  -2.1259  -2.0344  -1.9804  -1.8288  -1.8007
    -1.6194  -1.5530  -1.5286  -1.4653  -1.4307  -1.3824  -1.2389  -1.1914
    -1.1765  -1.1718  -1.1081  -1.0276  -0.9440  -0.9049  -0.8820  -0.8768
    -0.8182  -0.8106  -0.5947  -0.5005  -0.4791  -0.4075  -0.2322  -0.0371
     0.0039   0.0487   0.0511   0.1323   0.1408   0.3812   0.5119   0.6011
     0.6401   0.6472   0.7215   0.8577   0.8635   0.9515   1.0082   1.0286
     1.0376   1.0408   1.0487   1.1640   1.2018   1.2391   1.5370   1.5588
     1.6340   1.6427   1.6477   1.7860   1.8738   1.8942   1.9717   2.0326
     2.0377   2.0436   2.3310   2.3361   2.6228   2.6311   3.9273   5.4338
     5.5149   7.0100   7.2122   7.3331   7.4294   7.4389   7.4994   7.5498
     7.6387   7.8271   8.1383   8.3396   8.4791   8.5444   8.6778   8.7155
     8.7702   8.7722

          k = 0.1250 0.0000 0.0000 ( 38782 PWs)   bands (ev):

   -38.6182 -38.2541 -24.6117 -23.2542 -23.2249 -23.1673 -19.1226 -18.7288
   -18.7243 -18.6126 -18.3814 -18.2596 -15.8350 -15.5488 -15.2989 -15.0171
   -14.8249 -14.8053 -14.7136 -14.5933 -14.5130 -14.5041 -14.3018 -14.2562
   -14.2531 -14.0455 -13.9835  -9.9670  -9.4298  -9.3915  -8.5090  -8.4780
    -8.4687  -8.2299  -8.2039  -8.2030  -8.1758  -8.1014  -8.0832  -2.6687
    -2.5835  -2.5610  -2.4951  -2.3489  -2.3205  -2.3189  -2.3114  -2.2778
    -2.2357  -2.1523  -1.9513  -1.9361  -1.4982  -1.3695  -1.1177  -1.0977
    -1.0643  -0.9965  -0.9579  -0.9498  -0.8092  -0.6588  -0.6507  -0.6448
    -0.6389  -0.5951  -0.5547  -0.5460  -0.4246  -0.4198  -0.3801  -0.3574
    -0.3181  -0.1562  -0.0979  -0.0903  -0.0862  -0.0229   0.0155   0.0220
     0.0255   0.0427   0.0486   0.0612   0.1594   0.1653   0.1805   0.2077
     0.4606   0.4849   0.4985   0.5160   0.6101   0.6817   0.7180   0.7480
     0.7497   0.7594   0.9116   0.9430   1.0047   1.0150   1.1102   1.1582
     1.2214   1.2703   1.2741   1.4532   1.5844   1.5934   1.6072   1.6341
     1.6813   1.7700   1.8392   1.9332   2.1257   2.2156   2.2160   3.7259
     4.9099   4.9774   4.9850   5.5068   5.5684   5.9578   6.4030   6.4363
     6.5106   6.8861   7.2853   7.3550   7.6135   7.6595   7.8222   7.9711
     7.9993   8.0559

          k = 0.1250 0.1281 0.0000 ( 38802 PWs)   bands (ev):

   -38.6159 -38.2517 -24.5942 -23.2333 -23.2041 -23.1472 -19.0872 -18.7283
   -18.7074 -18.6932 -18.3824 -18.3578 -15.7270 -15.4535 -15.2511 -15.0150
   -14.8247 -14.8018 -14.6858 -14.5573 -14.5505 -14.5323 -14.3517 -14.2555
   -14.2529 -14.0981 -14.0087  -9.9463  -9.5783  -9.2761  -8.4934  -8.4663
    -8.4571  -8.3777  -8.3497  -8.2541  -8.0801  -8.0527  -7.9634  -2.7752
    -2.7199  -2.6903  -2.5272  -2.3949  -2.3782  -2.3505  -2.3165  -2.3143
    -2.2472  -2.1587  -2.0032  -1.9955  -1.8947  -1.4760  -1.4693  -1.4494
    -1.2801  -1.1363  -1.0806  -1.0360  -0.9453  -0.9424  -0.9117  -0.8887
    -0.8274  -0.8102  -0.6264  -0.6121  -0.5823  -0.4311  -0.3626  -0.3308
    -0.2742  -0.2181  -0.1871  -0.0916  -0.0515  -0.0360   0.0174   0.0190
     0.0656   0.0974   0.1007   0.1129   0.2142   0.2484   0.2796   0.3505
     0.3510   0.4901   0.5607   0.6455   0.7003   0.7129   0.7330   0.7593
     0.7966   0.8399   0.9621   0.9997   1.0083   1.0418   1.0817   1.2249
     1.2782   1.2820   1.3465   1.3742   1.4038   1.4319   1.5665   1.6586
     1.9829   2.0366   2.1924   2.3873   2.4105   2.5123   2.5144   3.8870
     5.1843   5.3009   5.3039   5.7345   5.7936   6.0869   6.5900   6.7326
     6.7777   7.0923   7.2936   7.4879   7.5649   7.7184   7.7960   7.8967
     7.9930   8.1450

          k = 0.1250 0.2563 0.0000 ( 38854 PWs)   bands (ev):

   -38.6103 -38.2461 -24.5513 -23.1821 -23.1529 -23.0978 -18.9972 -18.9400
   -18.7087 -18.6150 -18.5759 -18.3656 -15.4812 -15.2520 -15.1245 -15.0600
   -14.8573 -14.8256 -14.6422 -14.6227 -14.6058 -14.4811 -14.4366 -14.2317
   -14.2300 -14.2253 -14.0393  -9.8973  -9.6838  -9.2417  -8.5016  -8.4735
    -8.4393  -8.4288  -8.4028  -8.3647  -8.0361  -8.0087  -7.9268  -3.2111
    -3.0953  -3.0190  -2.8962  -2.6051  -2.5263  -2.5046  -2.4355  -2.3655
    -2.3253  -2.3004  -2.2300  -2.2280  -2.1005  -1.9660  -1.8579  -1.8416
    -1.4578  -1.3420  -1.3160  -1.2965  -1.2401  -1.2319  -1.1909  -1.1162
    -0.9821  -0.9419  -0.9169  -0.7837  -0.7638  -0.6941  -0.5966  -0.5437
    -0.3916  -0.3666  -0.3198  -0.1753  -0.1097  -0.0904  -0.0340  -0.0298
     0.0333   0.0981   0.1341   0.1343   0.2323   0.2858   0.2958   0.4863
     0.6988   0.7267   0.7319   0.7511   0.8015   0.8953   0.9042   0.9410
     0.9416   1.0217   1.0360   1.0906   1.1228   1.1403   1.2207   1.2214
     1.2620   1.3556   1.4133   1.4808   1.5538   1.7076   1.7349   1.7374
     2.2245   2.2937   2.4650   2.6363   2.7909   2.8195   3.2042   4.3477
     5.8360   6.1021   6.1050   6.1636   6.3519   6.3996   6.8993   7.3366
     7.3613   7.5512   7.5771   7.5839   7.6855   7.9230   8.0539   8.2149
     8.3104   8.3186

          k = 0.1250 0.3844 0.0000 ( 38857 PWs)   bands (ev):

   -38.6048 -38.2405 -24.5075 -23.1296 -23.1003 -23.0472 -19.1364 -18.9004
   -18.7881 -18.6988 -18.5020 -18.3556 -15.2411 -15.1737 -15.1170 -14.9645
   -14.8967 -14.8944 -14.7045 -14.6537 -14.6327 -14.5927 -14.3441 -14.2982
   -14.1815 -14.1753 -14.0554  -9.8465  -9.6931  -9.2958  -8.5062  -8.4786
    -8.4086  -8.3960  -8.3815  -8.3718  -8.0840  -8.0567  -7.9742  -3.6435
    -3.5626  -3.4835  -3.2931  -3.0587  -3.0528  -2.9537  -2.4468  -2.4294
    -2.4017  -2.2813  -2.2647  -2.1932  -2.1863  -2.0134  -1.9470  -1.8767
    -1.7609  -1.6722  -1.6226  -1.5295  -1.4191  -1.3745  -1.3040  -1.2430
    -1.1507  -0.9988  -0.9761  -0.9354  -0.8982  -0.8792  -0.8236  -0.7896
    -0.6524  -0.4571  -0.3678  -0.2740  -0.2421  -0.1111  -0.0765  -0.0090
     0.0801   0.0952   0.1290   0.1560   0.2266   0.2442   0.4122   0.5697
     0.6279   0.7552   0.7720   0.7971   0.9528   0.9646   1.0164   1.0198
     1.0593   1.0917   1.0943   1.1570   1.2104   1.3170   1.3946   1.4324
     1.5228   1.6568   1.6907   1.7472   1.7627   1.7924   2.1439   2.1477
     2.2530   2.3320   2.4862   2.6033   2.7832   2.8246   3.7404   4.9669
     5.7639   6.6485   6.8195   6.8557   6.9409   7.0316   7.2638   7.3019
     7.3554   7.7598   8.0996   8.1084   8.1485   8.3855   8.4912   8.6461
     8.6855   8.7293

          k = 0.1250-0.5125 0.0000 ( 38824 PWs)   bands (ev):

   -38.6024 -38.2382 -24.4891 -23.1074 -23.0781 -23.0259 -19.2119 -18.8636
   -18.8579 -18.6947 -18.4593 -18.3514 -15.2576 -15.1146 -15.0940 -14.9661
   -14.8672 -14.8241 -14.7650 -14.7547 -14.6314 -14.6089 -14.3806 -14.2185
   -14.1505 -14.1468 -14.0808  -9.8216  -9.6729  -9.3437  -8.4809  -8.4535
    -8.3968  -8.3785  -8.3655  -8.3576  -8.1321  -8.1047  -8.0172  -3.8738
    -3.7265  -3.6382  -3.4331  -3.2974  -3.2891  -3.0959  -2.4644  -2.4531
    -2.4120  -2.3075  -2.2172  -2.1424  -2.0800  -2.0308  -2.0178  -1.9137
    -1.9081  -1.8877  -1.6261  -1.6041  -1.5090  -1.4759  -1.4104  -1.3081
    -1.1116  -1.0681  -1.0459  -0.9886  -0.9235  -0.8945  -0.8801  -0.8045
    -0.7715  -0.4932  -0.3764  -0.3719  -0.2730  -0.1211  -0.1096   0.0083
     0.0774   0.1157   0.1164   0.1523   0.2062   0.2488   0.2904   0.6875
     0.6987   0.7567   0.8144   0.8408   0.9317   0.9320   1.0321   1.0560
     1.0734   1.1096   1.1283   1.1570   1.1989   1.3563   1.4943   1.6101
     1.6493   1.7580   1.8482   1.8811   2.0247   2.0308   2.2180   2.2969
     2.3105   2.3151   2.4037   2.4857   2.6798   2.7389   3.9262   5.3544
     5.6346   6.6547   6.9994   7.0482   7.1024   7.1241   7.1828   7.4844
     7.7931   7.9173   8.2596   8.3794   8.6192   8.6572   8.7766   8.8190
     8.9466   8.9637

          k = 0.2500 0.0000 0.0000 ( 38902 PWs)   bands (ev):

   -38.6139 -38.2497 -24.5752 -23.2090 -23.1797 -23.1239 -19.0409 -18.9392
   -18.6459 -18.6065 -18.5985 -18.2534 -15.5710 -15.3744 -15.3221 -15.1243
   -14.9560 -14.9164 -14.6989 -14.6767 -14.5399 -14.4315 -14.4235 -14.2533
   -14.2505 -14.1150 -13.9933  -9.9944  -9.3645  -9.3162  -8.5195  -8.5001
    -8.4801  -8.1600  -8.1333  -8.1186  -8.0902  -8.0386  -8.0033  -2.9765
    -2.8989  -2.8872  -2.4285  -2.3882  -2.3726  -2.3506  -2.3483  -2.2425
    -2.2028  -2.1517  -1.9119  -1.8905  -1.5724  -1.4633  -1.2930  -1.2186
    -1.2035  -1.1878  -1.0411  -1.0355  -0.9621  -0.9380  -0.9366  -0.9128
    -0.8514  -0.8513  -0.8017  -0.6582  -0.6461  -0.4846  -0.4589  -0.4022
    -0.3651  -0.2424  -0.2193  -0.2089  -0.1333  -0.1079  -0.0423  -0.0365
     0.0164   0.0247   0.1144   0.1752   0.1910   0.1925   0.2004   0.2888
     0.2954   0.3613   0.5486   0.5944   0.6300   0.6490   0.6548   0.7754
     0.7945   0.9023   0.9353   0.9931   1.0429   1.0663   1.0949   1.0976
     1.1812   1.2266   1.3233   1.3949   1.5134   1.5251   1.6163   1.6905
     1.7204   1.7900   1.9804   2.1245   2.2655   2.3527   2.3984   4.1570
     5.4217   5.4277   5.4418   6.0960   6.1596   6.3216   6.8424   7.0592
     7.0935   7.2002   7.5071   7.6139   7.7462   7.9209   8.0069   8.1256
     8.2786   8.4194

          k = 0.2500 0.1281 0.0000 ( 38874 PWs)   bands (ev):

   -38.6116 -38.2474 -24.5589 -23.1900 -23.1607 -23.1054 -19.0068 -18.9334
   -18.7066 -18.6142 -18.5903 -18.3538 -15.4658 -15.3181 -15.2434 -15.0971
   -14.9170 -14.8915 -14.6577 -14.6469 -14.6053 -14.4401 -14.4369 -14.2422
   -14.2401 -14.1433 -14.0157  -9.9747  -9.6164  -9.2128  -8.5218  -8.5013
    -8.4894  -8.4051  -8.3761  -8.2861  -8.0060  -7.9785  -7.8996  -3.1153
    -2.9975  -2.9325  -2.4843  -2.4707  -2.4353  -2.4028  -2.3621  -2.3400
    -2.3265  -2.0858  -2.0814  -2.0208  -1.8297  -1.5677  -1.4819  -1.4715
    -1.4651  -1.3406  -1.3254  -1.2964  -1.2281  -1.1639  -1.1432  -1.0028
    -0.9438  -0.9396  -0.8762  -0.7407  -0.6395  -0.5032  -0.3613  -0.3202
    -0.2686  -0.2496  -0.2362  -0.1625  -0.1105  -0.1030  -0.0499  -0.0277
     0.0016   0.0523   0.2178   0.2229   0.2286   0.2463   0.3410   0.3591
     0.3627   0.4452   0.5460   0.7354   0.7377   0.7753   0.8128   0.8329
     0.8931   0.9075   0.9344   0.9351   1.0297   1.0540   1.0575   1.1624
     1.2478   1.2494   1.3289   1.4572   1.5038   1.5112   1.5487   1.6863
     2.2780   2.3506   2.4290   2.5090   2.5518   2.6029   2.7593   4.2985
     5.6166   5.6691   5.6701   6.1786   6.2948   6.3505   6.8756   7.2118
     7.3067   7.3528   7.3953   7.5656   7.7026   7.8302   8.0826   8.1990
     8.3411   8.4594

          k = 0.2500 0.2563 0.0000 ( 38887 PWs)   bands (ev):

   -38.6060 -38.2418 -24.5190 -23.1435 -23.1142 -23.0602 -18.9402 -18.9207
   -18.9036 -18.5981 -18.5621 -18.5158 -15.2333 -15.1647 -15.0958 -15.0457
   -14.8416 -14.8288 -14.7478 -14.5871 -14.5805 -14.4743 -14.4630 -14.2212
   -14.2101 -14.2076 -14.0297  -9.9362  -9.8633  -9.3019  -8.7077  -8.6801
    -8.5802  -8.4543  -8.4368  -8.4211  -8.1032  -8.0758  -7.9963  -3.5358
    -3.3702  -3.1592  -2.8896  -2.7325  -2.6105  -2.5579  -2.5411  -2.4591
    -2.4475  -2.3326  -2.2409  -2.2386  -2.2293  -1.9778  -1.9149  -1.8738
    -1.8120  -1.7407  -1.7379  -1.3886  -1.3486  -1.2321  -1.2315  -1.2200
    -1.1091  -1.0160  -0.8967  -0.8184  -0.7093  -0.6636  -0.6391  -0.5651
    -0.5190  -0.3674  -0.2744  -0.2140  -0.1861  -0.0335   0.0456   0.0861
     0.1887   0.2158   0.2160   0.2634   0.3135   0.3572   0.5789   0.7476
     0.7561   0.8021   0.8551   0.8936   0.8978   0.9025   0.9122   0.9905
     1.0186   1.0365   1.0634   1.0760   1.1210   1.2148   1.2833   1.3181
     1.3909   1.4626   1.5042   1.5424   1.6421   1.6625   1.6756   1.7782
     2.7607   2.7653   2.8913   2.9724   3.0802   3.2154   3.2711   4.7155
     5.5997   6.1811   6.1924   6.2898   6.6488   6.6828   6.9408   7.1319
     7.4173   7.5986   7.8293   7.8405   7.8646   8.1762   8.3027   8.4270
     8.4491   8.5620

          k = 0.2500 0.3844 0.0000 ( 38919 PWs)   bands (ev):

   -38.6005 -38.2362 -24.4784 -23.0959 -23.0665 -23.0140 -19.1219 -18.9036
   -18.8253 -18.7734 -18.5632 -18.4254 -15.1099 -15.0078 -14.9861 -14.9482
   -14.8205 -14.7979 -14.7539 -14.6634 -14.5628 -14.5371 -14.3336 -14.2987
   -14.1695 -14.1642 -14.0153  -9.9938  -9.8647  -9.5197  -8.8144  -8.7868
    -8.6786  -8.4344  -8.4233  -8.3994  -8.3400  -8.3128  -8.2196  -3.9501
    -3.7828  -3.5893  -3.4678  -3.1200  -3.0264  -3.0253  -2.6365  -2.5801
    -2.5403  -2.3534  -2.3447  -2.3380  -2.3360  -2.2111  -2.1661  -2.1266
    -1.9551  -1.8148  -1.7588  -1.6047  -1.4945  -1.3525  -1.3175  -1.2146
    -1.1171  -1.0557  -1.0095  -0.8763  -0.8660  -0.8204  -0.8018  -0.7415
    -0.5901  -0.5659  -0.3440  -0.1944  -0.0923  -0.0561   0.1154   0.1738
     0.2303   0.2788   0.3560   0.4082   0.4599   0.5644   0.7901   0.8209
     0.8339   0.8484   0.8686   1.0722   1.0780   1.1025   1.1144   1.1823
     1.2115   1.2344   1.2576   1.2704   1.3263   1.3359   1.4056   1.4811
     1.5879   1.6217   1.6622   1.7654   1.7918   1.8033   2.0778   2.0816
     2.6905   2.6920   3.1690   3.2654   3.3479   3.5161   3.7362   5.0563
     5.4402   6.3442   6.3645   6.5173   6.6206   6.6680   7.1721   7.4226
     7.5072   7.9780   8.2024   8.2454   8.2740   8.5231   8.7078   8.8025
     8.9553   8.9818

          k = 0.2500-0.5125 0.0000 ( 38962 PWs)   bands (ev):

   -38.5982 -38.2339 -24.4614 -23.0759 -23.0465 -22.9946 -19.1964 -18.8978
   -18.8479 -18.7846 -18.5575 -18.3843 -15.1544 -14.9955 -14.8782 -14.8326
   -14.7833 -14.7602 -14.7166 -14.7111 -14.7082 -14.5374 -14.3176 -14.2512
   -14.1482 -14.1433 -14.0152  -9.9815  -9.8462  -9.6586  -8.7990  -8.7713
    -8.6702  -8.4994  -8.4721  -8.4261  -8.4122  -8.3853  -8.3567  -4.1138
    -3.9492  -3.8262  -3.6315  -3.2994  -3.2653  -3.2476  -2.6297  -2.5719
    -2.5113  -2.5067  -2.3589  -2.3400  -2.3251  -2.3168  -2.2433  -2.1640
    -1.9837  -1.8398  -1.8308  -1.6364  -1.5641  -1.3725  -1.3566  -1.1901
    -1.1484  -1.0895  -1.0587  -0.9521  -0.9059  -0.8771  -0.8010  -0.7728
    -0.6451  -0.5811  -0.3581  -0.1918  -0.0509  -0.0260   0.1846   0.2115
     0.2410   0.2917   0.4026   0.4165   0.5311   0.6014   0.6975   0.9013
     0.9092   0.9472   0.9583   1.1032   1.1204   1.1720   1.1794   1.1801
     1.2142   1.2815   1.2944   1.3138   1.3864   1.4072   1.4724   1.5821
     1.6174   1.7205   1.7962   1.8328   2.0208   2.0256   2.2559   2.2602
     2.5329   2.5336   3.2265   3.3276   3.4022   3.5621   3.9132   4.9146
     5.9157   6.2962   6.3066   6.3210   6.5478   6.5802   6.9868   7.6332
     7.9342   8.1129   8.3287   8.6421   8.8103   8.8246   8.8651   9.0269
     9.1270   9.1818

          k = 0.3750 0.0000 0.0000 ( 38920 PWs)   bands (ev):

   -38.6095 -38.2452 -24.5380 -23.1627 -23.1333 -23.0794 -19.1283 -18.9523
   -18.7916 -18.6004 -18.5531 -18.2473 -15.4685 -15.3289 -15.2444 -15.2342
   -15.0330 -14.9744 -14.8198 -14.6897 -14.5485 -14.5310 -14.3309 -14.2413
   -14.2389 -14.1604 -14.0050 -10.0009  -9.2971  -9.2645  -8.5200  -8.5019
    -8.4816  -8.1007  -8.0744  -8.0293  -8.0006  -7.9992  -7.9200  -3.2999
    -3.2137  -3.1513  -2.7426  -2.4562  -2.4470  -2.3593  -2.1878  -2.1251
    -2.1228  -2.0617  -1.9082  -1.7959  -1.6642  -1.5182  -1.4508  -1.4233
    -1.3660  -1.3212  -1.2911  -1.2444  -1.2409  -1.2124  -1.0750  -1.0722
    -0.9473  -0.9296  -0.9211  -0.9078  -0.7235  -0.6986  -0.6002  -0.5118
    -0.4682  -0.4288  -0.4196  -0.3129  -0.1251  -0.0869  -0.0235  -0.0174
     0.0028   0.0112   0.0845   0.2126   0.2345   0.2478   0.2561   0.2831
     0.3060   0.4151   0.4444   0.5961   0.7011   0.7542   0.7603   0.7915
     0.8469   0.8987   0.9851   0.9980   1.0372   1.0517   1.0839   1.1234
     1.3197   1.3671   1.4252   1.4316   1.4327   1.4928   1.6842   1.7470
     1.7839   1.8497   2.0070   2.1625   2.2475   2.4586   2.4766   4.7728
     5.8692   6.0641   6.0655   6.3827   6.7654   6.9520   7.0576   7.3194
     7.5646   7.5701   7.5777   7.8732   8.0094   8.2288   8.2337   8.2466
     8.4688   8.6376

          k = 0.3750 0.1281 0.0000 ( 38880 PWs)   bands (ev):

   -38.6072 -38.2430 -24.5230 -23.1457 -23.1163 -23.0627 -19.1210 -18.9193
   -18.7841 -18.6988 -18.5204 -18.3457 -15.4015 -15.2643 -15.1835 -15.1611
   -14.9892 -14.9051 -14.7663 -14.6542 -14.6001 -14.5227 -14.3205 -14.2264
   -14.2225 -14.1692 -14.0312  -9.9830  -9.5562  -9.2704  -8.5175  -8.5041
    -8.4834  -8.3475  -8.3196  -8.2290  -8.0619  -8.0344  -7.9610  -3.4481
    -3.3228  -3.2063  -2.7982  -2.4884  -2.4602  -2.4091  -2.3422  -2.2820
    -2.2603  -2.0710  -2.0093  -2.0000  -1.8079  -1.7845  -1.7239  -1.6739
    -1.6386  -1.4693  -1.4689  -1.3695  -1.2825  -1.2806  -1.2311  -1.1318
    -1.0539  -1.0280  -1.0101  -0.8433  -0.8023  -0.5850  -0.4960  -0.4129
    -0.3381  -0.3189  -0.2537  -0.1896  -0.1621  -0.1106  -0.0737  -0.0544
     0.0178   0.1092   0.1807   0.3022   0.3025   0.3743   0.3811   0.4081
     0.4145   0.5098   0.6182   0.6700   0.6899   0.7633   0.8090   0.8468
     0.9051   0.9344   0.9726   1.0003   1.0565   1.1197   1.1332   1.1480
     1.2984   1.3430   1.4185   1.4530   1.4694   1.6706   1.6738   1.7181
     2.3860   2.4426   2.4575   2.5371   2.5915   2.7576   2.8737   4.9011
     5.8311   6.1679   6.1872   6.1922   6.8538   6.9508   7.1696   7.2238
     7.2312   7.6122   7.6394   7.7289   8.0490   8.3293   8.4384   8.4914
     8.5529   8.6848

          k = 0.3750 0.2563 0.0000 ( 38879 PWs)   bands (ev):

   -38.6017 -38.2374 -24.4863 -23.1041 -23.0747 -23.0219 -19.1035 -18.9140
   -18.8361 -18.7663 -18.5655 -18.4331 -15.2174 -15.1405 -15.0574 -14.9735
   -14.8513 -14.7935 -14.7653 -14.6565 -14.5685 -14.4721 -14.3037 -14.2056
   -14.1883 -14.1849 -14.0362  -9.9745  -9.8929  -9.5061  -8.7568  -8.7291
    -8.6336  -8.4729  -8.4516  -8.4393  -8.3307  -8.3036  -8.2175  -3.8878
    -3.7060  -3.4368  -3.0220  -2.8603  -2.6742  -2.6153  -2.5707  -2.4638
    -2.4588  -2.3477  -2.3407  -2.3130  -2.2501  -2.2449  -2.1682  -2.0951
    -1.8325  -1.7400  -1.7215  -1.5261  -1.3194  -1.2804  -1.1894  -1.1381
    -1.1134  -1.0902  -0.9646  -0.8567  -0.7463  -0.7161  -0.6766  -0.6560
    -0.5094  -0.4861  -0.3834  -0.1049  -0.0339  -0.0059   0.0956   0.2243
     0.2837   0.3557   0.3904   0.4559   0.4607   0.5864   0.7495   0.8012
     0.8078   0.8612   0.8897   0.9390   0.9531   0.9596   1.0168   1.0221
     1.0567   1.1167   1.1817   1.1887   1.2015   1.2371   1.2913   1.3891
     1.5048   1.5419   1.5602   1.5672   1.6461   1.6670   1.7149   1.7362
     2.7618   2.7638   3.2185   3.2881   3.3592   3.4344   3.6077   5.1605
     5.2743   6.1597   6.1751   6.2658   6.6197   6.6352   7.2974   7.4024
     7.5316   7.8638   7.8809   7.9558   8.1859   8.5252   8.5595   8.6953
     8.8106   8.8564

          k = 0.3750 0.3844 0.0000 ( 38979 PWs)   bands (ev):

   -38.5962 -38.2319 -24.4489 -23.0617 -23.0323 -22.9803 -19.1086 -19.0832
   -18.7613 -18.7467 -18.7440 -18.3441 -15.0384 -14.9554 -14.9268 -14.9149
   -14.8386 -14.7269 -14.6754 -14.6632 -14.4932 -14.4759 -14.2501 -14.2042
   -14.1561 -14.1513 -13.9800 -10.2094  -9.8881  -9.7995  -9.0232  -8.9953
    -8.8844  -8.6595  -8.6327  -8.5255  -8.4645  -8.4457  -8.4269  -4.3397
    -4.1475  -3.7998  -3.5173  -3.3887  -3.0031  -2.9987  -2.7721  -2.7447
    -2.7234  -2.6588  -2.5276  -2.4070  -2.3550  -2.3496  -2.3464  -2.2436
    -1.8986  -1.8908  -1.6206  -1.4624  -1.4295  -1.3912  -1.2937  -1.2256
    -1.1897  -1.0674  -1.0100  -0.9570  -0.9028  -0.8846  -0.8126  -0.7168
    -0.6238  -0.4565  -0.4511  -0.0728   0.0111   0.0637   0.3478   0.3808
     0.4712   0.5336   0.6543   0.7301   0.7733   0.9403   0.9608   0.9773
     1.0055   1.0473   1.0508   1.1577   1.2091   1.2158   1.2437   1.2508
     1.2749   1.3523   1.3770   1.4295   1.4613   1.4808   1.5516   1.5592
     1.6235   1.6435   1.7318   1.8013   1.8094   1.8761   1.9995   2.0029
     2.6809   2.6840   3.7171   3.8364   3.9187   3.9316   4.1034   4.5489
     5.7724   5.7972   5.8086   6.2773   6.3053   6.4085   7.1648   7.6666
     7.9344   8.1027   8.2604   8.4540   8.5251   8.5285   8.8602   8.8741
     8.9393   9.0830

          k = 0.3750-0.5125 0.0000 ( 39018 PWs)   bands (ev):

   -38.5939 -38.2296 -24.4333 -23.0439 -23.0144 -22.9628 -19.1808 -19.0778
   -18.8321 -18.7401 -18.7075 -18.3047 -15.0427 -14.9401 -14.8481 -14.7873
   -14.7636 -14.7353 -14.6878 -14.5861 -14.5800 -14.4659 -14.2495 -14.1474
   -14.1397 -14.1392 -13.9472 -10.2899  -9.9634  -9.8499  -9.1022  -9.0741
    -8.9648  -8.8147  -8.7882  -8.6667  -8.4632  -8.4377  -8.4213  -4.5207
    -4.3290  -3.9691  -3.7601  -3.5578  -3.2416  -3.2369  -2.8856  -2.7882
    -2.7428  -2.6715  -2.6597  -2.4182  -2.3519  -2.3450  -2.3447  -2.2931
    -1.9517  -1.9180  -1.6421  -1.5305  -1.4730  -1.3545  -1.2800  -1.2791
    -1.2345  -1.0924  -1.0793  -0.9809  -0.9783  -0.9666  -0.7907  -0.7757
    -0.6531  -0.4239  -0.4231  -0.0652   0.0334   0.0946   0.3610   0.4569
     0.6339   0.6413   0.7222   0.8432   0.8870   0.9774   1.0215   1.0560
     1.0732   1.1014   1.1707   1.2294   1.2894   1.2991   1.3113   1.4007
     1.4371   1.4396   1.4550   1.4692   1.5216   1.5333   1.5765   1.6444
     1.7418   1.7452   1.8490   1.8644   2.0416   2.0444   2.1951   2.1994
     2.5089   2.5145   3.8625   4.0031   4.0914   4.0946   4.2604   4.3153
     5.5993   5.6105   6.1280   6.1548   6.2489   6.3263   6.9544   7.8124
     7.8518   8.2974   8.5045   8.5084   8.7190   8.7507   8.7774   8.9587
     9.0882   9.1222

          k =-0.5000 0.0000 0.0000 ( 38882 PWs)   bands (ev):

   -38.6077 -38.2434 -24.5224 -23.1431 -23.1137 -23.0607 -19.2003 -18.9139
   -18.8645 -18.5979 -18.5135 -18.2447 -15.5129 -15.3564 -15.2737 -15.1431
   -15.0981 -14.9173 -14.8646 -14.7285 -14.5827 -14.5209 -14.2985 -14.2334
   -14.2226 -14.1728 -14.0183  -9.9990  -9.2685  -9.2487  -8.5192  -8.4978
    -8.4807  -8.0779  -8.0518  -7.9910  -7.9876  -7.9622  -7.8844  -3.4234
    -3.3386  -3.2660  -2.8715  -2.4829  -2.4746  -2.3552  -2.1548  -2.1540
    -1.9867  -1.9557  -1.9036  -1.7076  -1.6963  -1.6849  -1.5759  -1.4931
    -1.4870  -1.3724  -1.3679  -1.3379  -1.3052  -1.1709  -1.1664  -1.1327
    -1.0366  -1.0221  -0.9349  -0.9235  -0.9152  -0.7416  -0.6265  -0.6158
    -0.5380  -0.4881  -0.4251  -0.3831  -0.1089  -0.0604  -0.0096  -0.0055
    -0.0028   0.0056   0.0513   0.2278   0.2486   0.2627   0.2654   0.3288
     0.3294   0.3365   0.4583   0.6887   0.7067   0.7514   0.7880   0.8453
     0.8721   0.9397   0.9583   1.0284   1.0337   1.0702   1.0794   1.1339
     1.3823   1.3887   1.4069   1.4333   1.4477   1.5486   1.7677   1.7754
     1.8299   1.8686   2.0111   2.1503   2.2050   2.4685   2.4717   5.4152
     5.5450   6.3299   6.8060   6.8393   6.9141   6.9180   7.0833   7.2813
     7.4323   7.5524   7.5857   7.8541   8.1903   8.2882   8.4041   8.4180
     8.6737   8.7382

          k =-0.5000 0.1281 0.0000 ( 38856 PWs)   bands (ev):

   -38.6054 -38.2411 -24.5079 -23.1270 -23.0976 -23.0448 -19.1926 -18.8816
   -18.8566 -18.6955 -18.4816 -18.3422 -15.4411 -15.3065 -15.2185 -15.0565
   -15.0271 -14.8844 -14.7759 -14.6914 -14.5876 -14.5491 -14.2676 -14.2151
   -14.2049 -14.1747 -14.0559  -9.9804  -9.4609  -9.3718  -8.5129  -8.4966
    -8.4770  -8.2131  -8.2023  -8.1870  -8.1735  -8.1131  -8.0882  -3.5769
    -3.4537  -3.3291  -2.9336  -2.5025  -2.4820  -2.4043  -2.3331  -2.2456
    -2.0727  -2.0591  -2.0302  -2.0130  -1.8955  -1.8811  -1.8605  -1.8052
    -1.6757  -1.4762  -1.4708  -1.4119  -1.3957  -1.2612  -1.2281  -1.0958
    -1.0895  -1.0664  -1.0083  -0.9333  -0.8722  -0.6342  -0.5530  -0.4294
    -0.3916  -0.3652  -0.3088  -0.2056  -0.1916  -0.0988  -0.0894  -0.0429
     0.0019   0.1516   0.1922   0.2948   0.2960   0.3660   0.3966   0.4908
     0.4980   0.5728   0.5770   0.6292   0.6910   0.7936   0.8244   0.8750
     0.9384   0.9710   0.9776   0.9899   1.0820   1.0940   1.1299   1.1386
     1.3390   1.3889   1.4155   1.4655   1.5357   1.6507   1.7439   1.8575
     2.4111   2.4547   2.4557   2.5311   2.5860   2.7807   2.8733   5.5182
     5.6399   5.8697   6.6354   6.6543   7.0422   7.0656   7.1795   7.2518
     7.2656   7.3619   7.7119   7.7732   8.2993   8.5677   8.5770   8.6926
     8.7020   8.8595

          k =-0.5000 0.2563 0.0000 ( 38902 PWs)   bands (ev):

   -38.5999 -38.2356 -24.4725 -23.0875 -23.0581 -23.0058 -19.1738 -18.9096
   -18.8375 -18.7999 -18.5605 -18.3962 -15.2461 -15.1770 -15.0720 -14.9471
   -14.8062 -14.7684 -14.7514 -14.6505 -14.6023 -14.4696 -14.1954 -14.1939
   -14.1749 -14.1641 -14.0820  -9.9443  -9.8760  -9.6637  -8.6790  -8.6504
    -8.5710  -8.5243  -8.4982  -8.4789  -8.4480  -8.4453  -8.4027  -4.0294
    -3.8471  -3.5723  -3.1665  -2.8467  -2.6892  -2.6265  -2.5613  -2.5013
    -2.4589  -2.4578  -2.3393  -2.3109  -2.3084  -2.2504  -2.2463  -2.1782
    -1.8293  -1.7834  -1.7170  -1.5144  -1.3058  -1.2755  -1.1483  -1.1199
    -1.0843  -1.0834  -1.0134  -0.8535  -0.7968  -0.7170  -0.7026  -0.6988
    -0.5152  -0.4968  -0.4144  -0.0621  -0.0330   0.0999   0.1743   0.2980
     0.3060   0.3456   0.4651   0.4946   0.4973   0.6787   0.7426   0.8392
     0.8517   0.8847   0.9080   0.9530   1.0478   1.0492   1.0603   1.0622
     1.0993   1.1237   1.1408   1.1600   1.1908   1.2786   1.4078   1.4739
     1.5043   1.5098   1.5333   1.5592   1.5845   1.6969   1.7104   1.8212
     2.7589   2.7594   3.2255   3.3964   3.4672   3.5298   3.6959   4.9804
     5.8401   5.8694   6.1198   6.1323   6.5328   6.5507   7.3833   7.6091
     7.9368   7.9774   8.0122   8.0207   8.3703   8.4752   8.7180   8.7225
     8.9327   8.9701

          k =-0.5000 0.3844 0.0000 ( 39038 PWs)   bands (ev):

   -38.5944 -38.2301 -24.4366 -23.0473 -23.0179 -22.9662 -19.1551 -19.1006
   -18.8184 -18.7515 -18.7123 -18.3086 -15.0637 -14.9554 -14.9213 -14.8917
   -14.8158 -14.7396 -14.6768 -14.5313 -14.5192 -14.4382 -14.2266 -14.1502
   -14.1456 -14.1018 -13.9836 -10.2713  -9.9506  -9.8837  -9.0726  -9.0442
    -8.9371  -8.8182  -8.7919  -8.6756  -8.4794  -8.4558  -8.4399  -4.5002
    -4.3033  -3.9394  -3.5294  -3.5052  -2.9923  -2.9870  -2.8881  -2.8053
    -2.7608  -2.6871  -2.6589  -2.4499  -2.3537  -2.3497  -2.3422  -2.2802
    -1.9368  -1.8917  -1.5461  -1.4507  -1.4465  -1.3587  -1.3464  -1.1846
    -1.1739  -1.1351  -0.9915  -0.9330  -0.9244  -0.9192  -0.8143  -0.7559
    -0.6645  -0.4049  -0.4037  -0.0729   0.0539   0.1704   0.3881   0.5121
     0.5942   0.7486   0.7736   0.8803   0.9083   0.9493   1.0030   1.0504
     1.0521   1.0944   1.1120   1.1912   1.2059   1.2921   1.3136   1.3403
     1.3854   1.3974   1.4325   1.4336   1.4938   1.4949   1.5107   1.5843
     1.7428   1.7624   1.7965   1.8108   1.8413   1.8459   1.9633   1.9650
     2.6770   2.6821   3.7156   4.0594   4.1365   4.1416   4.3044   4.3092
     5.5580   5.5701   6.0693   6.1523   6.1940   6.2464   7.1821   7.7962
     7.8895   8.2955   8.3142   8.4811   8.4944   8.7070   8.7712   8.9285
     9.0800   9.0912

          k =-0.5000-0.5125 0.0000 ( 39028 PWs)   bands (ev):

   -38.5922 -38.2278 -24.4215 -23.0305 -23.0010 -22.9495 -19.1744 -19.1473
   -18.8255 -18.8105 -18.6740 -18.2700 -15.0058 -14.9934 -14.7766 -14.7649
   -14.7488 -14.7437 -14.7190 -14.5212 -14.4905 -14.4384 -14.2189 -14.1443
   -14.1378 -14.0684 -13.9183 -10.4189 -10.0689  -9.8643  -9.2246  -9.1963
    -9.0848  -8.9356  -8.9092  -8.7840  -8.4809  -8.4486  -8.4364  -4.6895
    -4.4917  -4.1080  -3.7516  -3.6983  -3.2303  -3.2247  -3.0194  -2.8332
    -2.7908  -2.7873  -2.7106  -2.4727  -2.3431  -2.3381  -2.3379  -2.3155
    -1.9870  -1.9078  -1.5713  -1.5251  -1.4425  -1.4231  -1.3100  -1.2395
    -1.2177  -1.1641  -1.0814  -1.0070  -1.0026  -0.8893  -0.8237  -0.7687
    -0.7453  -0.3639  -0.3606  -0.0638   0.0961   0.1902   0.4052   0.5797
     0.7774   0.8906   0.9097   1.0081   1.0428   1.0693   1.0908   1.0973
     1.1078   1.1321   1.1931   1.2656   1.2660   1.3440   1.3508   1.5130
     1.5324   1.5433   1.5590   1.5616   1.5757   1.5990   1.6304   1.6382
     1.6509   1.8802   1.9748   2.0092   2.0597   2.0644   2.1678   2.1720
     2.5010   2.5094   3.8499   4.0532   4.2757   4.3633   4.3704   4.5174
     5.3086   5.3205   6.0193   6.1357   6.1606   6.3528   7.0545   7.7413
     7.9104   8.2257   8.4073   8.4944   8.6047   8.6404   8.6891   8.7349
     8.9958   9.0740

     the Fermi energy is     2.4705 ev

!    total energy              =   -1868.76770168 Ry
     Harris-Foulkes estimate   =   -1868.76770122 Ry
     estimated scf accuracy    <       0.00000072 Ry

     The total energy is the sum of the following terms:

     one-electron contribution =  -24045.97602945 Ry
     hartree contribution      =   12172.69338071 Ry
     xc contribution           =    -642.20321551 Ry
     ewald contribution        =   10646.72663524 Ry
     smearing contrib. (-TS)   =      -0.00847266 Ry

     convergence has been achieved in  38 iterations

     negative rho (up, down):  9.066E-02 0.000E+00

     Forces acting on atoms (cartesian axes, Ry/au):

     atom    1 type  3   force =     0.00000000    0.00000000   -0.00008732
     atom    2 type  2   force =     0.00000000    0.00000000   -0.00118419
     atom    3 type  3   force =     0.00000000    0.00000000   -0.00000137
     atom    4 type  1   force =     0.00000000    0.00000000   -0.00013933
     atom    5 type  2   force =     0.00000000    0.00000000    0.00002310
     atom    6 type  3   force =     0.00000000    0.00000000    0.00052660
     atom    7 type  3   force =     0.00000000    0.00000000    0.00002486
     atom    8 type  4   force =     0.00000000    0.00000000   -0.00089089
     atom    9 type  3   force =     0.00000000    0.00000000    0.00136699
     atom   10 type  3   force =     0.00000000    0.00000000    0.00169891
     atom   11 type  2   force =     0.00000000    0.00000000   -0.00198162
     atom   12 type  1   force =     0.00000000    0.00000000   -0.00556541
     atom   13 type  3   force =     0.00000000    0.00000000    0.00314496
     atom   14 type  3   force =     0.00000000    0.00000000    0.01756591
     atom   15 type  2   force =     0.00000000    0.00000000   -0.01563568
     atom   16 type  3   force =     0.00000000    0.00000000    0.04418184
     atom   17 type  1   force =     0.00000000    0.00000000   -0.04218348
     atom   18 type  2   force =     0.00000000    0.00000000    0.00003783
     atom   19 type  3   force =     0.00000000    0.00000000    0.01958077
     atom   20 type  3   force =     0.00000000    0.00000000    0.01077049
     atom   21 type  4   force =     0.00000000    0.00000000   -0.04290868
     atom   22 type  3   force =     0.00000000    0.00000000    0.00411102
     atom   23 type  3   force =     0.00000000    0.00000000    0.00698974
     atom   24 type  2   force =     0.00000000    0.00000000    0.00129535
     atom   25 type  1   force =     0.00000000    0.00000000   -0.00183817
     atom   26 type  3   force =     0.00000000    0.00000000    0.00133247
     atom   27 type  2   force =     0.00000000    0.00000000   -0.00065084
     atom   28 type  3   force =     0.00000000    0.00000000    0.00041614

     Total force =     0.082160     Total SCF correction =     0.002384


     Computing stress (Cartesian axis) and pressure


     negative rho (up, down):  9.066E-02 0.000E+00
          total   stress  (Ry/bohr**3)                   (kbar)     P=       -6.56
  -0.00007989   0.00000000   0.00000000          -11.75        0.00        0.00
   0.00000000  -0.00003699   0.00000000            0.00       -5.44        0.00
   0.00000000   0.00000000  -0.00001695            0.00        0.00       -2.49

 
     init_run     :      9.72s CPU     10.03s WALL (       1 calls)
     electrons    :    704.24s CPU    729.10s WALL (       1 calls)
     forces       :      4.18s CPU      4.37s WALL (       1 calls)
     stress       :     19.16s CPU     19.66s WALL (       1 calls)

     Called by init_run:
     wfcinit      :      6.61s CPU      6.74s WALL (       1 calls)
     potinit      :      0.69s CPU      0.71s WALL (       1 calls)
     hinit0       :      1.10s CPU      1.12s WALL (       1 calls)

     Called by electrons:
     c_bands      :    541.35s CPU    553.97s WALL (      38 calls)
     sum_band     :    107.27s CPU    113.81s WALL (      38 calls)
     v_of_rho     :      3.30s CPU      3.34s WALL (      39 calls)
     newd         :     34.45s CPU     40.01s WALL (      39 calls)
     mix_rho      :     18.55s CPU     18.72s WALL (      38 calls)

     Called by c_bands:
     init_us_2    :      4.07s CPU      4.09s WALL (    1975 calls)
     cegterg      :    509.92s CPU    521.96s WALL (     950 calls)

     Called by sum_band:
     sum_band:bec :      0.26s CPU      0.26s WALL (     950 calls)
     addusdens    :     27.69s CPU     33.43s WALL (      38 calls)

     Called by *egterg:
     h_psi        :    244.24s CPU    252.48s WALL (    4769 calls)
     s_psi        :     25.61s CPU     25.84s WALL (    4769 calls)
     g_psi        :      0.77s CPU      0.78s WALL (    3794 calls)
     cdiaghg      :    142.97s CPU    143.61s WALL (    4744 calls)

     Called by h_psi:
     h_psi:calbec :     30.09s CPU     31.45s WALL (    4769 calls)
     vloc_psi     :    186.21s CPU    189.19s WALL (    4769 calls)
     add_vuspsi   :     26.84s CPU     28.99s WALL (    4769 calls)

     General routines
     calbec       :     44.78s CPU     46.20s WALL (    5844 calls)
     fft          :      2.83s CPU      2.85s WALL (     530 calls)
     ffts         :      9.91s CPU     10.00s WALL (   16800 calls)
     fftw         :    214.11s CPU    217.44s WALL (  685376 calls)
     interpolate  :      0.20s CPU      0.20s WALL (      39 calls)
 
     Parallel routines
     fft_scatt_xy :     27.53s CPU     27.88s WALL (  702706 calls)
     fft_scatt_yz :    131.76s CPU    133.80s WALL (  702706 calls)
 
     PWSCF        :  12m18.23s CPU  12m44.14s WALL

 
   This run was terminated on:  18: 9:19   5May2021            

=------------------------------------------------------------------------------=
   JOB DONE.
=------------------------------------------------------------------------------=
[1620252559.322489] [holy7c04302:195043:0]          mpool.c:43   UCX  WARN  object 0x3a3a800 was not returned to mpool ucp_requests
[1620252559.322505] [holy7c04302:195043:0]          mpool.c:43   UCX  WARN  object 0x3a3b0c0 was not returned to mpool ucp_requests
[1620252559.325706] [holy7c04106:200610:0]          mpool.c:43   UCX  WARN  object 0x2835000 was not returned to mpool ucp_requests
[1620252559.325865] [holy7c04211:94079:0]          mpool.c:43   UCX  WARN  object 0x44e3600 was not returned to mpool ucp_requests
[1620252559.325879] [holy7c04211:94079:0]          mpool.c:43   UCX  WARN  object 0x44e4080 was not returned to mpool ucp_requests
[1620252559.332397] [holy7c02602:45322:0]          mpool.c:43   UCX  WARN  object 0x2fae8c0 was not returned to mpool ucp_requests
[1620252559.335622] [holy7c04206:271916:0]          mpool.c:43   UCX  WARN  object 0x3f25cc0 was not returned to mpool ucp_requests
[1620252559.334313] [holy7c04107:271761:0]          mpool.c:43   UCX  WARN  object 0x403ea80 was not returned to mpool ucp_requests
[1620252559.337871] [holy7c04212:197740:0]          mpool.c:43   UCX  WARN  object 0x309ac40 was not returned to mpool ucp_requests
[1620252559.374715] [holy7c04202:18788:0]          mpool.c:43   UCX  WARN  object 0x3bc98c0 was not returned to mpool ucp_requests
[1620252559.374741] [holy7c04202:18788:0]          mpool.c:43   UCX  WARN  object 0x3bc9a80 was not returned to mpool ucp_requests
