
     Program PWSCF v.6.5 starts on  5May2021 at 17:56:38 

     This program is part of the open-source Quantum ESPRESSO suite
     for quantum simulation of materials; please cite
         "P. Giannozzi et al., J. Phys.:Condens. Matter 21 395502 (2009);
         "P. Giannozzi et al., J. Phys.:Condens. Matter 29 465901 (2017);
          URL http://www.quantum-espresso.org", 
     in publications or presentations arising from this work. More details at
     http://www.quantum-espresso.org/quote

     Parallel version (MPI), running on    20 processors

     MPI processes distributed on    17 nodes
     R & G space division:  proc/nbgrp/npool/nimage =      20
     Reading input from YBCO_BaO_cleave_6.5_sep_scf.pwi
Warning: card &IONS ignored
Warning: card     ION_DYNAMICS = 'BFGS' ignored
Warning: card / ignored
Warning: card &CELL ignored
Warning: card     CELL_DYNAMICS = 'BFGS' ignored
Warning: card / ignored

     Current dimensions of program PWSCF are:
     Max number of different atomic species (ntypx) = 10
     Max number of k-points (npk) =  40000
     Max angular momentum in pseudopotentials (lmaxx) =  3

     Subspace diagonalization in iterative solution of the eigenvalue problem:
     one sub-group per band group will be used
     scalapack distributed-memory algorithm (size of sub-group:  4*  4 procs)

     Message from routine setup:
     using ibrav=0 with symmetry is DISCOURAGED, use correct ibrav instead
 
     Parallelization info
     --------------------
     sticks:   dense  smooth     PW     G-vecs:    dense   smooth      PW
     Min         150      50     14                81608    15700    2446
     Max         151      51     15                81651    15725    2499
     Sum        3015    1011    293              1632577   314191   49477
 


     bravais-lattice index     =            0
     lattice parameter (alat)  =       7.3477  a.u.
     unit-cell volume          =    5003.7270 (a.u.)^3
     number of atoms/cell      =           28
     number of atomic types    =            4
     number of electrons       =       229.00
     number of Kohn-Sham states=          138
     kinetic-energy cutoff     =      60.0000  Ry
     charge density cutoff     =     720.0000  Ry
     convergence threshold     =      1.0E-06
     mixing beta               =       0.2000
     number of iterations used =           10  local-TF  mixing
     Exchange-correlation= SLA PW PBE PBE
                           (   1   4   3   4   0   0   0)

     celldm(1)=   7.347715  celldm(2)=   0.000000  celldm(3)=   0.000000
     celldm(4)=   0.000000  celldm(5)=   0.000000  celldm(6)=   0.000000

     crystal axes: (cart. coord. in units of alat)
               a(1) = (   1.000000   0.000000   0.000000 )  
               a(2) = (   0.000000   0.975577   0.000000 )  
               a(3) = (   0.000000   0.000000  12.929299 )  

     reciprocal axes: (cart. coord. in units 2 pi/alat)
               b(1) = (  1.000000  0.000000  0.000000 )  
               b(2) = (  0.000000  1.025034  0.000000 )  
               b(3) = (  0.000000  0.000000  0.077344 )  


     PseudoPot. # 1 for Ba read from file:
     /n/holyscratch01/hoffman_lab/ruizhe/YBCO_Project/pseudo/Ba.pbe-nsp-van.UPF
     MD5 check sum: 2b9c31dd849566dd297d80989662b7a0
     Pseudo is Ultrasoft + core correction, Zval = 10.0
     Generated by new atomic code, or converted to UPF format
     Using radial grid of  907 points,  6 beta functions with: 
                l(1) =   0
                l(2) =   0
                l(3) =   1
                l(4) =   1
                l(5) =   2
                l(6) =   2
     Q(r) pseudized with  6 coefficients,  rinner =    1.200   1.200   1.200
                                                       1.200   1.200

     PseudoPot. # 2 for Cu read from file:
     /n/holyscratch01/hoffman_lab/ruizhe/YBCO_Project/pseudo/Cu.pbe-n-van_ak.UPF
     MD5 check sum: 34e3282627ffb533726feb647e090d62
     Pseudo is Ultrasoft + core correction, Zval = 11.0
     Generated by new atomic code, or converted to UPF format
     Using radial grid of  867 points,  6 beta functions with: 
                l(1) =   0
                l(2) =   0
                l(3) =   1
                l(4) =   1
                l(5) =   2
                l(6) =   2
     Q(r) pseudized with  8 coefficients,  rinner =    1.400   1.400   1.400
                                                       1.400   1.400

     PseudoPot. # 3 for O  read from file:
     /n/holyscratch01/hoffman_lab/ruizhe/YBCO_Project/pseudo/O.pbe-van_ak.UPF
     MD5 check sum: 783ce7fe4c79b6a4916957118fed0856
     Pseudo is Ultrasoft, Zval =  6.0
     Generated by new atomic code, or converted to UPF format
     Using radial grid of  737 points,  4 beta functions with: 
                l(1) =   0
                l(2) =   0
                l(3) =   1
                l(4) =   1
     Q(r) pseudized with  8 coefficients,  rinner =    0.800   0.800   0.800


     PseudoPot. # 4 for Y  read from file:
     /n/holyscratch01/hoffman_lab/ruizhe/YBCO_Project/pseudo/Y.pbe-nsp-van.UPF
     MD5 check sum: 4412fed3ab108fed87a1b7d6a69a4a38
     Pseudo is Ultrasoft + core correction, Zval = 11.0
     Generated by new atomic code, or converted to UPF format
     Using radial grid of  885 points,  6 beta functions with: 
                l(1) =   0
                l(2) =   0
                l(3) =   1
                l(4) =   1
                l(5) =   2
                l(6) =   2
     Q(r) pseudized with  6 coefficients,  rinner =    1.200   1.200   1.200
                                                       1.200   1.200

     atomic species   valence    mass     pseudopotential
        Ba            10.00   137.32700     Ba( 1.00)
        Cu            11.00    63.54600     Cu( 1.00)
        O              6.00    15.99900     O ( 1.00)
        Y             11.00    88.90584     Y ( 1.00)

      4 Sym. Ops. (no inversion) found



   Cartesian axes

     site n.     atom                  positions (alat units)
         1           O   tau(   1) = (   0.0000000   0.4877884  -0.0257983  )
         2           Cu  tau(   2) = (   0.0000000   0.0000000   0.0215779  )
         3           O   tau(   3) = (   0.0000000   0.0000000   0.5073114  )
         4           Ba  tau(   4) = (   0.4999996   0.4877884   0.5319677  )
         5           Cu  tau(   5) = (   0.0000000   0.0000000   1.0495845  )
         6           O   tau(   6) = (   0.4999996   0.0000000   1.1181579  )
         7           O   tau(   7) = (   0.0000000   0.4877884   1.1273137  )
         8           Y   tau(   8) = (   0.4999996   0.4877884   1.4938777  )
         9           O   tau(   9) = (   0.0000000   0.4877884   1.8497402  )
        10           O   tau(  10) = (   0.4999996   0.0000000   1.8692709  )
        11           Cu  tau(  11) = (   0.0000000   0.0000000   1.9417560  )
        12           Ba  tau(  12) = (   0.4999996   0.4877884   2.4526063  )
        13           O   tau(  13) = (   0.0000000   0.0000000   2.5103470  )
        14           O   tau(  14) = (   0.0000000   0.4877884   2.9968469  )
        15           Cu  tau(  15) = (   0.0000000   0.0000000   2.9968521  )
        16           O   tau(  16) = (   0.0000000   0.0000000   3.4833288  )
        17           Ba  tau(  17) = (   0.4999996   0.4877884   3.5410618  )
        18           Cu  tau(  18) = (   0.0000000   0.0000000   5.7236413  )
        19           O   tau(  19) = (   0.4999996   0.0000000   5.7961136  )
        20           O   tau(  20) = (   0.0000000   0.4877884   5.8156263  )
        21           Y   tau(  21) = (   0.4999996   0.4877884   6.1714913  )
        22           O   tau(  22) = (   0.0000000   0.4877884   6.5380553  )
        23           O   tau(  23) = (   0.4999996   0.0000000   6.5472240  )
        24           Cu  tau(  24) = (   0.0000000   0.0000000   6.6158025  )
        25           Ba  tau(  25) = (   0.4999996   0.4877884   7.1334039  )
        26           O   tau(  26) = (   0.0000000   0.0000000   7.1580602  )
        27           Cu  tau(  27) = (   0.0000000   0.0000000   7.6437654  )
        28           O   tau(  28) = (   0.0000000   0.4877884   7.6911467  )

     number of k points=    25  Gaussian smearing, width (Ry)=  0.0100
                       cart. coord. in units 2pi/alat
        k(    1) = (   0.0000000   0.0000000   0.0000000), wk =   0.0312500
        k(    2) = (   0.0000000   0.1281293   0.0000000), wk =   0.0625000
        k(    3) = (   0.0000000   0.2562585   0.0000000), wk =   0.0625000
        k(    4) = (   0.0000000   0.3843878   0.0000000), wk =   0.0625000
        k(    5) = (   0.0000000  -0.5125170   0.0000000), wk =   0.0312500
        k(    6) = (   0.1250000   0.0000000   0.0000000), wk =   0.0625000
        k(    7) = (   0.1250000   0.1281293   0.0000000), wk =   0.1250000
        k(    8) = (   0.1250000   0.2562585   0.0000000), wk =   0.1250000
        k(    9) = (   0.1250000   0.3843878   0.0000000), wk =   0.1250000
        k(   10) = (   0.1250000  -0.5125170   0.0000000), wk =   0.0625000
        k(   11) = (   0.2500000   0.0000000   0.0000000), wk =   0.0625000
        k(   12) = (   0.2500000   0.1281293   0.0000000), wk =   0.1250000
        k(   13) = (   0.2500000   0.2562585   0.0000000), wk =   0.1250000
        k(   14) = (   0.2500000   0.3843878   0.0000000), wk =   0.1250000
        k(   15) = (   0.2500000  -0.5125170   0.0000000), wk =   0.0625000
        k(   16) = (   0.3750000   0.0000000   0.0000000), wk =   0.0625000
        k(   17) = (   0.3750000   0.1281293   0.0000000), wk =   0.1250000
        k(   18) = (   0.3750000   0.2562585   0.0000000), wk =   0.1250000
        k(   19) = (   0.3750000   0.3843878   0.0000000), wk =   0.1250000
        k(   20) = (   0.3750000  -0.5125170   0.0000000), wk =   0.0625000
        k(   21) = (  -0.5000000   0.0000000   0.0000000), wk =   0.0312500
        k(   22) = (  -0.5000000   0.1281293   0.0000000), wk =   0.0625000
        k(   23) = (  -0.5000000   0.2562585   0.0000000), wk =   0.0625000
        k(   24) = (  -0.5000000   0.3843878   0.0000000), wk =   0.0625000
        k(   25) = (  -0.5000000  -0.5125170   0.0000000), wk =   0.0312500

     Dense  grid:  1632577 G-vectors     FFT dimensions: (  64,  64, 864)

     Smooth grid:   314191 G-vectors     FFT dimensions: (  40,  36, 480)

     Estimated max dynamical RAM per process >     520.97 MB

     Estimated total dynamical RAM >      10.18 GB

     Initial potential from superposition of free atoms

     starting charge  228.84827, renormalised to  229.00000

     negative rho (up, down):  8.950E-02 0.000E+00
     Starting wfcs are  201 randomized atomic wfcs

     total cpu time spent up to now is       11.0 secs

     Self-consistent Calculation

     iteration #  1     ecut=    60.00 Ry     beta= 0.20
     Davidson diagonalization with overlap
     ethr =  1.00E-02,  avg # of iterations =  2.0

     negative rho (up, down):  8.743E-02 0.000E+00

     total cpu time spent up to now is       28.7 secs

     total energy              =   -1869.57246602 Ry
     Harris-Foulkes estimate   =   -1871.20339022 Ry
     estimated scf accuracy    <      17.11710106 Ry

     iteration #  2     ecut=    60.00 Ry     beta= 0.20
     Davidson diagonalization with overlap
     ethr =  7.47E-03,  avg # of iterations =  1.0

     negative rho (up, down):  8.641E-02 0.000E+00

     total cpu time spent up to now is       44.7 secs

     total energy              =   -1869.22227417 Ry
     Harris-Foulkes estimate   =   -1869.95778965 Ry
     estimated scf accuracy    <       6.12387859 Ry

     iteration #  3     ecut=    60.00 Ry     beta= 0.20
     Davidson diagonalization with overlap
     ethr =  2.67E-03,  avg # of iterations =  1.0

     negative rho (up, down):  8.593E-02 0.000E+00

     total cpu time spent up to now is       60.5 secs

     total energy              =   -1868.70414214 Ry
     Harris-Foulkes estimate   =   -1869.38771563 Ry
     estimated scf accuracy    <       4.43755787 Ry

     iteration #  4     ecut=    60.00 Ry     beta= 0.20
     Davidson diagonalization with overlap
     ethr =  1.94E-03,  avg # of iterations =  1.4

     negative rho (up, down):  8.592E-02 0.000E+00

     total cpu time spent up to now is       77.1 secs

     total energy              =   -1868.97108446 Ry
     Harris-Foulkes estimate   =   -1868.99121343 Ry
     estimated scf accuracy    <       2.84945025 Ry

     iteration #  5     ecut=    60.00 Ry     beta= 0.20
     Davidson diagonalization with overlap
     ethr =  1.24E-03,  avg # of iterations =  1.0

     negative rho (up, down):  8.679E-02 0.000E+00

     total cpu time spent up to now is       93.2 secs

     total energy              =   -1868.86507430 Ry
     Harris-Foulkes estimate   =   -1868.99507965 Ry
     estimated scf accuracy    <       2.33668406 Ry

     iteration #  6     ecut=    60.00 Ry     beta= 0.20
     Davidson diagonalization with overlap
     ethr =  1.02E-03,  avg # of iterations =  1.0

     negative rho (up, down):  8.763E-02 0.000E+00

     total cpu time spent up to now is      109.1 secs

     total energy              =   -1868.84997287 Ry
     Harris-Foulkes estimate   =   -1868.90009997 Ry
     estimated scf accuracy    <       1.35085570 Ry

     iteration #  7     ecut=    60.00 Ry     beta= 0.20
     Davidson diagonalization with overlap
     ethr =  5.90E-04,  avg # of iterations =  1.3

     negative rho (up, down):  8.897E-02 0.000E+00

     total cpu time spent up to now is      125.4 secs

     total energy              =   -1868.81050960 Ry
     Harris-Foulkes estimate   =   -1868.87148586 Ry
     estimated scf accuracy    <       0.94884690 Ry

     iteration #  8     ecut=    60.00 Ry     beta= 0.20
     Davidson diagonalization with overlap
     ethr =  4.14E-04,  avg # of iterations =  4.0

     negative rho (up, down):  8.934E-02 0.000E+00

     total cpu time spent up to now is      145.3 secs

     total energy              =   -1868.81732689 Ry
     Harris-Foulkes estimate   =   -1868.83225697 Ry
     estimated scf accuracy    <       0.42337628 Ry

     iteration #  9     ecut=    60.00 Ry     beta= 0.20
     Davidson diagonalization with overlap
     ethr =  1.85E-04,  avg # of iterations =  4.5

     negative rho (up, down):  9.048E-02 0.000E+00

     total cpu time spent up to now is      165.8 secs

     total energy              =   -1868.80051143 Ry
     Harris-Foulkes estimate   =   -1868.82203700 Ry
     estimated scf accuracy    <       0.37734484 Ry

     iteration # 10     ecut=    60.00 Ry     beta= 0.20
     Davidson diagonalization with overlap
     ethr =  1.65E-04,  avg # of iterations =  3.5

     negative rho (up, down):  9.074E-02 0.000E+00

     total cpu time spent up to now is      184.7 secs

     total energy              =   -1868.79749104 Ry
     Harris-Foulkes estimate   =   -1868.80676803 Ry
     estimated scf accuracy    <       0.30905825 Ry

     iteration # 11     ecut=    60.00 Ry     beta= 0.20
     Davidson diagonalization with overlap
     ethr =  1.35E-04,  avg # of iterations =  4.3

     negative rho (up, down):  9.093E-02 0.000E+00

     total cpu time spent up to now is      204.5 secs

     total energy              =   -1868.77594772 Ry
     Harris-Foulkes estimate   =   -1868.79913836 Ry
     estimated scf accuracy    <       0.22624707 Ry

     iteration # 12     ecut=    60.00 Ry     beta= 0.20
     Davidson diagonalization with overlap
     ethr =  9.88E-05,  avg # of iterations =  6.1

     negative rho (up, down):  1.013E-01 0.000E+00

     total cpu time spent up to now is      227.8 secs

     total energy              =   -1868.76883980 Ry
     Harris-Foulkes estimate   =   -1868.78127316 Ry
     estimated scf accuracy    <       0.10177443 Ry

     iteration # 13     ecut=    60.00 Ry     beta= 0.20
     Davidson diagonalization with overlap
     ethr =  4.44E-05,  avg # of iterations =  7.4

     negative rho (up, down):  9.842E-02 0.000E+00

     total cpu time spent up to now is      252.7 secs

     total energy              =   -1868.76961118 Ry
     Harris-Foulkes estimate   =   -1868.77309039 Ry
     estimated scf accuracy    <       0.09421510 Ry

     iteration # 14     ecut=    60.00 Ry     beta= 0.20
     Davidson diagonalization with overlap
     ethr =  4.11E-05,  avg # of iterations =  1.0

     negative rho (up, down):  1.088E-01 0.000E+00

     total cpu time spent up to now is      268.5 secs

     total energy              =   -1868.76901378 Ry
     Harris-Foulkes estimate   =   -1868.77072363 Ry
     estimated scf accuracy    <       0.05626235 Ry

     iteration # 15     ecut=    60.00 Ry     beta= 0.20
     Davidson diagonalization with overlap
     ethr =  2.46E-05,  avg # of iterations =  5.6

     negative rho (up, down):  1.009E-01 0.000E+00

     total cpu time spent up to now is      290.4 secs

     total energy              =   -1868.76989438 Ry
     Harris-Foulkes estimate   =   -1868.77048913 Ry
     estimated scf accuracy    <       0.01748741 Ry

     iteration # 16     ecut=    60.00 Ry     beta= 0.20
     Davidson diagonalization with overlap
     ethr =  7.64E-06,  avg # of iterations =  4.0

     negative rho (up, down):  1.020E-01 0.000E+00

     total cpu time spent up to now is      310.1 secs

     total energy              =   -1868.76907866 Ry
     Harris-Foulkes estimate   =   -1868.77010139 Ry
     estimated scf accuracy    <       0.01294070 Ry

     iteration # 17     ecut=    60.00 Ry     beta= 0.20
     Davidson diagonalization with overlap
     c_bands:  1 eigenvalues not converged
     ethr =  5.65E-06,  avg # of iterations =  9.4

     negative rho (up, down):  1.020E-01 0.000E+00

     total cpu time spent up to now is      337.7 secs

     total energy              =   -1868.76926248 Ry
     Harris-Foulkes estimate   =   -1868.76951431 Ry
     estimated scf accuracy    <       0.00717086 Ry

     iteration # 18     ecut=    60.00 Ry     beta= 0.20
     Davidson diagonalization with overlap
     c_bands:  1 eigenvalues not converged
     ethr =  3.13E-06,  avg # of iterations =  4.1

     negative rho (up, down):  1.032E-01 0.000E+00

     total cpu time spent up to now is      357.5 secs

     total energy              =   -1868.76916226 Ry
     Harris-Foulkes estimate   =   -1868.76932527 Ry
     estimated scf accuracy    <       0.00563295 Ry

     iteration # 19     ecut=    60.00 Ry     beta= 0.20
     Davidson diagonalization with overlap
     c_bands:  1 eigenvalues not converged
     c_bands:  1 eigenvalues not converged
     ethr =  2.46E-06,  avg # of iterations =  9.1

     negative rho (up, down):  1.039E-01 0.000E+00

     total cpu time spent up to now is      384.0 secs

     total energy              =   -1868.76883505 Ry
     Harris-Foulkes estimate   =   -1868.76919057 Ry
     estimated scf accuracy    <       0.00528836 Ry

     iteration # 20     ecut=    60.00 Ry     beta= 0.20
     Davidson diagonalization with overlap
     c_bands:  1 eigenvalues not converged
     ethr =  2.31E-06,  avg # of iterations =  5.3

     negative rho (up, down):  9.590E-02 0.000E+00

     total cpu time spent up to now is      405.1 secs

     total energy              =   -1868.76841643 Ry
     Harris-Foulkes estimate   =   -1868.76888185 Ry
     estimated scf accuracy    <       0.00623326 Ry

     iteration # 21     ecut=    60.00 Ry     beta= 0.20
     Davidson diagonalization with overlap
     ethr =  2.31E-06,  avg # of iterations =  5.7

     negative rho (up, down):  9.036E-02 0.000E+00

     total cpu time spent up to now is      427.5 secs

     total energy              =   -1868.76803770 Ry
     Harris-Foulkes estimate   =   -1868.76845951 Ry
     estimated scf accuracy    <       0.00553183 Ry

     iteration # 22     ecut=    60.00 Ry     beta= 0.20
     Davidson diagonalization with overlap
     c_bands:  1 eigenvalues not converged
     ethr =  2.31E-06,  avg # of iterations =  9.3

     negative rho (up, down):  8.972E-02 0.000E+00

     total cpu time spent up to now is      455.3 secs

     total energy              =   -1868.76753221 Ry
     Harris-Foulkes estimate   =   -1868.76808981 Ry
     estimated scf accuracy    <       0.00369777 Ry

     iteration # 23     ecut=    60.00 Ry     beta= 0.20
     Davidson diagonalization with overlap
     c_bands:  1 eigenvalues not converged
     ethr =  1.61E-06,  avg # of iterations =  9.7

     negative rho (up, down):  8.969E-02 0.000E+00

     total cpu time spent up to now is      483.8 secs

     total energy              =   -1868.76763155 Ry
     Harris-Foulkes estimate   =   -1868.76757226 Ry
     estimated scf accuracy    <       0.00354572 Ry

     iteration # 24     ecut=    60.00 Ry     beta= 0.20
     Davidson diagonalization with overlap
     ethr =  1.55E-06,  avg # of iterations =  1.2

     negative rho (up, down):  8.971E-02 0.000E+00

     total cpu time spent up to now is      500.2 secs

     total energy              =   -1868.76763435 Ry
     Harris-Foulkes estimate   =   -1868.76763874 Ry
     estimated scf accuracy    <       0.00338781 Ry

     iteration # 25     ecut=    60.00 Ry     beta= 0.20
     Davidson diagonalization with overlap
     ethr =  1.48E-06,  avg # of iterations =  1.0

     negative rho (up, down):  8.955E-02 0.000E+00

     total cpu time spent up to now is      516.2 secs

     total energy              =   -1868.76730608 Ry
     Harris-Foulkes estimate   =   -1868.76763582 Ry
     estimated scf accuracy    <       0.00345423 Ry

     iteration # 26     ecut=    60.00 Ry     beta= 0.20
     Davidson diagonalization with overlap
     c_bands:  1 eigenvalues not converged
     ethr =  1.48E-06,  avg # of iterations =  3.8

     negative rho (up, down):  9.157E-02 0.000E+00

     total cpu time spent up to now is      535.9 secs

     total energy              =   -1868.76688325 Ry
     Harris-Foulkes estimate   =   -1868.76732730 Ry
     estimated scf accuracy    <       0.00279340 Ry

     iteration # 27     ecut=    60.00 Ry     beta= 0.20
     Davidson diagonalization with overlap
     ethr =  1.22E-06,  avg # of iterations =  9.2

     negative rho (up, down):  9.224E-02 0.000E+00

     total cpu time spent up to now is      563.7 secs

     total energy              =   -1868.76681002 Ry
     Harris-Foulkes estimate   =   -1868.76693840 Ry
     estimated scf accuracy    <       0.00164039 Ry

     iteration # 28     ecut=    60.00 Ry     beta= 0.20
     Davidson diagonalization with overlap
     ethr =  7.16E-07,  avg # of iterations =  3.6

     negative rho (up, down):  9.052E-02 0.000E+00

     total cpu time spent up to now is      583.2 secs

     total energy              =   -1868.76679761 Ry
     Harris-Foulkes estimate   =   -1868.76682576 Ry
     estimated scf accuracy    <       0.00148217 Ry

     iteration # 29     ecut=    60.00 Ry     beta= 0.20
     Davidson diagonalization with overlap
     c_bands:  1 eigenvalues not converged
     ethr =  6.47E-07,  avg # of iterations =  6.6

     negative rho (up, down):  9.251E-02 0.000E+00

     total cpu time spent up to now is      606.7 secs

     total energy              =   -1868.76684157 Ry
     Harris-Foulkes estimate   =   -1868.76681273 Ry
     estimated scf accuracy    <       0.00102469 Ry

     iteration # 30     ecut=    60.00 Ry     beta= 0.20
     Davidson diagonalization with overlap
     ethr =  4.47E-07,  avg # of iterations =  8.1

     negative rho (up, down):  9.249E-02 0.000E+00

     total cpu time spent up to now is      633.5 secs

     total energy              =   -1868.76676149 Ry
     Harris-Foulkes estimate   =   -1868.76687374 Ry
     estimated scf accuracy    <       0.00040870 Ry

     iteration # 31     ecut=    60.00 Ry     beta= 0.20
     Davidson diagonalization with overlap
     ethr =  1.78E-07,  avg # of iterations =  3.7

     negative rho (up, down):  9.209E-02 0.000E+00

     total cpu time spent up to now is      655.3 secs

     total energy              =   -1868.76678207 Ry
     Harris-Foulkes estimate   =   -1868.76681637 Ry
     estimated scf accuracy    <       0.00023743 Ry

     iteration # 32     ecut=    60.00 Ry     beta= 0.20
     Davidson diagonalization with overlap
     ethr =  1.04E-07,  avg # of iterations =  2.5

     negative rho (up, down):  9.028E-02 0.000E+00

     total cpu time spent up to now is      673.4 secs

     total energy              =   -1868.76680450 Ry
     Harris-Foulkes estimate   =   -1868.76679435 Ry
     estimated scf accuracy    <       0.00008050 Ry

     iteration # 33     ecut=    60.00 Ry     beta= 0.20
     Davidson diagonalization with overlap
     ethr =  3.52E-08,  avg # of iterations =  6.5

     negative rho (up, down):  9.008E-02 0.000E+00

     total cpu time spent up to now is      697.6 secs

     total energy              =   -1868.76682386 Ry
     Harris-Foulkes estimate   =   -1868.76681127 Ry
     estimated scf accuracy    <       0.00004492 Ry

     iteration # 34     ecut=    60.00 Ry     beta= 0.20
     Davidson diagonalization with overlap
     ethr =  1.96E-08,  avg # of iterations =  2.9

     negative rho (up, down):  9.030E-02 0.000E+00

     total cpu time spent up to now is      716.1 secs

     total energy              =   -1868.76683151 Ry
     Harris-Foulkes estimate   =   -1868.76682494 Ry
     estimated scf accuracy    <       0.00003015 Ry

     iteration # 35     ecut=    60.00 Ry     beta= 0.20
     Davidson diagonalization with overlap
     ethr =  1.32E-08,  avg # of iterations =  2.2

     negative rho (up, down):  9.049E-02 0.000E+00

     total cpu time spent up to now is      733.6 secs

     total energy              =   -1868.76683161 Ry
     Harris-Foulkes estimate   =   -1868.76683204 Ry
     estimated scf accuracy    <       0.00001609 Ry

     iteration # 36     ecut=    60.00 Ry     beta= 0.20
     Davidson diagonalization with overlap
     ethr =  7.02E-09,  avg # of iterations =  1.0

     negative rho (up, down):  9.051E-02 0.000E+00

     total cpu time spent up to now is      749.7 secs

     total energy              =   -1868.76683147 Ry
     Harris-Foulkes estimate   =   -1868.76683189 Ry
     estimated scf accuracy    <       0.00000809 Ry

     iteration # 37     ecut=    60.00 Ry     beta= 0.20
     Davidson diagonalization with overlap
     ethr =  3.53E-09,  avg # of iterations =  2.2

     negative rho (up, down):  9.047E-02 0.000E+00

     total cpu time spent up to now is      767.5 secs

     total energy              =   -1868.76683099 Ry
     Harris-Foulkes estimate   =   -1868.76683184 Ry
     estimated scf accuracy    <       0.00000394 Ry

     iteration # 38     ecut=    60.00 Ry     beta= 0.20
     Davidson diagonalization with overlap
     ethr =  1.72E-09,  avg # of iterations =  2.2

     negative rho (up, down):  9.052E-02 0.000E+00

     total cpu time spent up to now is      784.9 secs

     total energy              =   -1868.76683221 Ry
     Harris-Foulkes estimate   =   -1868.76683119 Ry
     estimated scf accuracy    <       0.00000195 Ry

     iteration # 39     ecut=    60.00 Ry     beta= 0.20
     Davidson diagonalization with overlap
     ethr =  8.52E-10,  avg # of iterations =  2.7

     negative rho (up, down):  9.057E-02 0.000E+00

     total cpu time spent up to now is      803.4 secs

     End of self-consistent calculation

          k = 0.0000 0.0000 0.0000 ( 39193 PWs)   bands (ev):

   -38.6794 -38.3119 -24.7078 -23.3304 -23.3013 -23.2459 -19.2140 -18.8176
   -18.6836 -18.6744 -18.3354 -18.3180 -16.0079 -15.7126 -15.3373 -15.0490
   -14.8273 -14.8147 -14.7931 -14.6117 -14.6029 -14.5319 -14.3206 -14.3129
   -14.3076 -14.0688 -14.0272 -10.0287  -9.5370  -9.5130  -8.5570  -8.5194
    -8.5160  -8.3226  -8.2959  -8.2958  -8.2680  -8.1993  -8.1760  -2.6366
    -2.6022  -2.4729  -2.4171  -2.4159  -2.4147  -2.4070  -2.3933  -2.3462
    -2.2717  -2.2233  -2.0024  -1.8707  -1.5356  -1.4387  -1.1340  -1.1180
    -1.1080  -1.0208  -1.0128  -1.0004  -0.6668  -0.6235  -0.6216  -0.5869
    -0.5846  -0.4953  -0.4420  -0.4286  -0.4212  -0.4071  -0.3232  -0.2705
    -0.2650  -0.2463  -0.2371  -0.1788  -0.1721  -0.1577  -0.1466  -0.1126
    -0.0433  -0.0217  -0.0180  -0.0093   0.0009   0.1069   0.1076   0.2808
     0.3294   0.3614   0.5117   0.5488   0.6743   0.6823   0.6920   0.7983
     0.8084   0.8155   0.8483   0.8524   0.9181   0.9489   0.9557   1.0120
     1.1634   1.1704   1.3834   1.3991   1.4314   1.4899   1.5346   1.6300
     1.6387   1.6584   1.7862   1.7949   1.8265   2.1147   2.1153   3.4359
     4.6208   4.7279   4.7337   5.2171   5.2775   5.7472   6.1057   6.1441
     6.2278   6.6137   6.9318   7.0728   7.3420   7.6097   7.6200   7.7781
     7.9577   7.9723

          k = 0.0000 0.1281 0.0000 ( 39189 PWs)   bands (ev):

   -38.6771 -38.3095 -24.6898 -23.3088 -23.2797 -23.2251 -19.1781 -18.7815
   -18.7787 -18.6804 -18.4227 -18.3322 -15.8990 -15.6137 -15.2923 -15.0575
   -14.8421 -14.8241 -14.7625 -14.6219 -14.5778 -14.5671 -14.3897 -14.3183
   -14.3140 -14.1332 -14.0535 -10.0144  -9.5486  -9.4803  -8.5390  -8.5089
    -8.4996  -8.3155  -8.2877  -8.2814  -8.2545  -8.1959  -8.1607  -2.7378
    -2.7134  -2.6597  -2.5872  -2.4194  -2.4112  -2.3946  -2.3766  -2.2983
    -2.2767  -2.2561  -2.0425  -2.0215  -1.8557  -1.5379  -1.5325  -1.4578
    -1.3850  -1.0700  -1.0579  -1.0086  -0.9882  -0.9308  -0.8507  -0.7367
    -0.6750  -0.6720  -0.6557  -0.6238  -0.5665  -0.5489  -0.4805  -0.4022
    -0.3059  -0.2669  -0.2599  -0.1145  -0.1130  -0.0285  -0.0118  -0.0117
    -0.0093   0.0112   0.0219   0.0693   0.1859   0.1916   0.2923   0.2935
     0.3626   0.3653   0.4804   0.5361   0.5616   0.5865   0.6548   0.7398
     0.7866   0.8680   0.9174   0.9424   0.9768   1.0788   1.0955   1.1169
     1.1632   1.2634   1.2678   1.3884   1.4073   1.4276   1.5004   1.5514
     1.6144   1.6441   1.8840   2.0491   2.3111   2.4365   2.4450   3.6113
     4.9216   5.0998   5.1023   5.4775   5.5469   5.9104   6.3495   6.4478
     6.5013   6.8394   7.1305   7.3155   7.4863   7.5596   7.6491   7.7857
     7.8750   7.9517

          k = 0.0000 0.2563 0.0000 ( 39220 PWs)   bands (ev):

   -38.6715 -38.3039 -24.6457 -23.2557 -23.2266 -23.1741 -19.0870 -19.0037
   -18.6961 -18.6726 -18.6423 -18.3243 -15.6507 -15.3992 -15.1754 -15.1330
   -14.9263 -14.8821 -14.6973 -14.6840 -14.6436 -14.5586 -14.4546 -14.2980
   -14.2956 -14.2850 -14.0903  -9.9740  -9.5762  -9.3992  -8.4975  -8.4800
    -8.4597  -8.3565  -8.3289  -8.2392  -8.1782  -8.1511  -8.0641  -3.1698
    -3.0770  -3.0640  -2.9459  -2.6366  -2.5641  -2.5564  -2.4454  -2.3892
    -2.2973  -2.2937  -2.2601  -2.2197  -2.2033  -1.9744  -1.8981  -1.8077
    -1.4343  -1.3351  -1.3342  -1.2610  -1.2010  -1.0565  -1.0387  -0.9945
    -0.9815  -0.9553  -0.9033  -0.8982  -0.8510  -0.7015  -0.6355  -0.6091
    -0.6037  -0.4943  -0.4259  -0.2967  -0.2334  -0.1741  -0.1660  -0.0448
     0.0257   0.0299   0.0448   0.0548   0.1399   0.2061   0.3493   0.4140
     0.4901   0.5499   0.6320   0.6356   0.7643   0.7820   0.8070   0.9032
     0.9442   0.9540   0.9557   0.9887   1.0572   1.1603   1.1731   1.1735
     1.2564   1.2619   1.2653   1.3937   1.4911   1.5843   1.6983   1.7005
     1.7049   1.7087   2.0572   2.1933   2.7286   2.7421   3.1363   4.0904
     5.6966   5.9914   5.9925   6.0825   6.1773   6.2400   6.7532   7.2166
     7.2985   7.3344   7.4295   7.5031   7.7419   7.8096   7.8427   8.0888
     8.2035   8.2810

          k = 0.0000 0.3844 0.0000 ( 39126 PWs)   bands (ev):

   -38.6659 -38.2983 -24.6007 -23.2012 -23.1720 -23.1218 -19.2015 -18.9887
   -18.8500 -18.6648 -18.5876 -18.3165 -15.4005 -15.2759 -15.2303 -15.0403
   -15.0281 -14.9811 -14.7797 -14.7392 -14.6736 -14.6407 -14.4223 -14.3203
   -14.2434 -14.2366 -14.1175  -9.9223  -9.6077  -9.3150  -8.4602  -8.4435
    -8.4194  -8.3895  -8.3622  -8.2788  -8.0692  -8.0418  -7.9626  -3.7031
    -3.5227  -3.4522  -3.2981  -3.1229  -3.1204  -2.9668  -2.4721  -2.4679
    -2.4404  -2.3821  -2.2386  -2.1527  -2.1088  -2.0958  -2.0817  -1.7578
    -1.6112  -1.5139  -1.4776  -1.3999  -1.3816  -1.3091  -1.3029  -1.2708
    -1.1446  -1.1372  -1.0398  -1.0119  -1.0110  -0.9829  -0.8525  -0.8474
    -0.7738  -0.6547  -0.6036  -0.4809  -0.4603  -0.4437  -0.2173  -0.1265
     0.0033   0.0186   0.0266   0.0687   0.0777   0.3326   0.3578   0.4864
     0.5690   0.5935   0.6757   0.7169   0.8330   0.8376   0.8870   0.9057
     0.9740   0.9885   1.0270   1.1206   1.1430   1.1808   1.3506   1.4219
     1.4344   1.5624   1.5866   1.6203   1.6704   1.6869   1.7195   1.7342
     2.0397   2.1113   2.1162   2.1318   2.7014   2.7112   3.6726   4.7401
     5.8170   6.6162   6.8593   6.8735   6.9431   7.0789   7.3170   7.4144
     7.4922   7.6268   7.7820   8.0768   8.1476   8.2783   8.3834   8.4798
     8.5048   8.5407

          k = 0.0000-0.5125 0.0000 ( 39274 PWs)   bands (ev):

   -38.6636 -38.2959 -24.5817 -23.1782 -23.1489 -23.0997 -19.2774 -18.9456
   -18.9259 -18.6616 -18.5444 -18.3132 -15.3560 -15.2687 -15.2166 -15.0597
   -15.0208 -14.9434 -14.8312 -14.8291 -14.6967 -14.6277 -14.4650 -14.2390
   -14.2054 -14.2025 -14.1603  -9.8959  -9.6242  -9.2792  -8.4459  -8.4249
    -8.4027  -8.4011  -8.3739  -8.2958  -8.0221  -7.9946  -7.9189  -3.9453
    -3.6698  -3.6040  -3.4316  -3.3588  -3.3522  -3.0999  -2.5068  -2.5021
    -2.4935  -2.4602  -2.2376  -2.1826  -2.0920  -2.0382  -1.8851  -1.8570
    -1.6775  -1.6132  -1.5865  -1.5210  -1.4889  -1.4472  -1.2937  -1.2489
    -1.2336  -1.2266  -1.1664  -1.0857  -1.0118  -0.9609  -0.9397  -0.9344
    -0.8761  -0.8644  -0.6534  -0.5659  -0.5346  -0.4675  -0.2857  -0.1066
    -0.0541  -0.0090  -0.0067   0.0746   0.0833   0.3198   0.4591   0.5433
     0.5831   0.5942   0.6707   0.8000   0.8050   0.8961   0.9522   0.9695
     0.9800   0.9833   0.9911   1.1075   1.1414   1.1798   1.4795   1.5012
     1.5774   1.5852   1.5867   1.7312   1.8107   1.8401   1.9140   1.9751
     1.9803   1.9878   2.2734   2.2786   2.5653   2.5739   3.8619   5.3280
     5.3898   6.9398   7.1430   7.2744   7.3721   7.3816   7.4267   7.5085
     7.5833   7.7715   8.0429   8.2418   8.3894   8.4819   8.6075   8.6523
     8.6799   8.7150

          k = 0.1250 0.0000 0.0000 ( 39196 PWs)   bands (ev):

   -38.6776 -38.3100 -24.6929 -23.3120 -23.2828 -23.2282 -19.1816 -18.7843
   -18.7835 -18.6719 -18.4373 -18.3154 -15.8926 -15.6043 -15.3633 -15.0748
   -14.8822 -14.8626 -14.7712 -14.6483 -14.5680 -14.5617 -14.3742 -14.3135
   -14.3105 -14.1057 -14.0359 -10.0495  -9.5106  -9.4717  -8.5676  -8.5381
    -8.5265  -8.2876  -8.2617  -8.2608  -8.2337  -8.1621  -8.1438  -2.7264
    -2.6417  -2.6179  -2.5528  -2.4079  -2.3797  -2.3777  -2.3679  -2.3354
    -2.2935  -2.2062  -2.0054  -1.9897  -1.5615  -1.4273  -1.1845  -1.1576
    -1.1196  -1.0597  -1.0153  -1.0073  -0.8679  -0.7151  -0.7082  -0.7024
    -0.6964  -0.6525  -0.6130  -0.6037  -0.4846  -0.4748  -0.4386  -0.4127
    -0.3761  -0.2188  -0.1552  -0.1478  -0.1422  -0.0807  -0.0421  -0.0348
    -0.0322  -0.0157  -0.0092   0.0038   0.1017   0.1079   0.1228   0.1542
     0.4007   0.4311   0.4380   0.4577   0.5542   0.6145   0.6671   0.6901
     0.6922   0.7025   0.8554   0.8852   0.9489   0.9546   1.0565   1.0891
     1.1636   1.2059   1.2178   1.3935   1.5297   1.5341   1.5506   1.5767
     1.6256   1.7110   1.7814   1.8745   2.0717   2.1584   2.1584   3.5982
     4.8281   4.9200   4.9248   5.4453   5.5050   5.8782   6.3138   6.3740
     6.4306   6.8062   7.1903   7.2783   7.5411   7.6007   7.7685   7.8894
     7.9155   7.9884

          k = 0.1250 0.1281 0.0000 ( 39204 PWs)   bands (ev):

   -38.6753 -38.3077 -24.6753 -23.2911 -23.2620 -23.2081 -19.1461 -18.7876
   -18.7666 -18.7488 -18.4382 -18.4136 -15.7846 -15.5091 -15.3157 -15.0728
   -14.8820 -14.8592 -14.7434 -14.6148 -14.6058 -14.5870 -14.4241 -14.3129
   -14.3103 -14.1581 -14.0610 -10.0288  -9.6588  -9.3565  -8.5517  -8.5267
    -8.5149  -8.4354  -8.4075  -8.3148  -8.1378  -8.1105  -8.0240  -2.8329
    -2.7779  -2.7472  -2.5849  -2.4517  -2.4362  -2.4113  -2.3756  -2.3716
    -2.3008  -2.2166  -2.0571  -2.0570  -1.9492  -1.5335  -1.5268  -1.5112
    -1.3379  -1.1955  -1.1443  -1.0924  -1.0007  -1.0002  -0.9765  -0.9457
    -0.8855  -0.8704  -0.6822  -0.6697  -0.6389  -0.4897  -0.4221  -0.3888
    -0.3308  -0.2759  -0.2437  -0.1480  -0.1109  -0.0949  -0.0409  -0.0384
     0.0099   0.0395   0.0431   0.0547   0.1606   0.1879   0.2264   0.2933
     0.2935   0.4323   0.4970   0.5876   0.6422   0.6569   0.6735   0.7037
     0.7351   0.7871   0.9044   0.9293   0.9520   0.9840   1.0258   1.1716
     1.2205   1.2245   1.2889   1.3175   1.3462   1.3749   1.5041   1.5979
     1.9251   1.9800   2.1345   2.3274   2.3559   2.4553   2.4567   3.7582
     5.1025   5.2437   5.2460   5.6695   5.7320   6.0063   6.4789   6.6749
     6.7172   7.0207   7.2153   7.4185   7.4978   7.5770   7.7369   7.8272
     7.9352   8.0301

          k = 0.1250 0.2563 0.0000 ( 39258 PWs)   bands (ev):

   -38.6697 -38.3021 -24.6325 -23.2400 -23.2108 -23.1588 -19.0562 -18.9992
   -18.7679 -18.6707 -18.6314 -18.4214 -15.5387 -15.3081 -15.1897 -15.1178
   -14.9144 -14.8830 -14.6996 -14.6804 -14.6615 -14.5534 -14.4907 -14.2891
   -14.2877 -14.2845 -14.0916  -9.9798  -9.7643  -9.3220  -8.5593  -8.5313
    -8.4986  -8.4883  -8.4606  -8.4253  -8.0937  -8.0664  -7.9875  -3.2689
    -3.1521  -3.0780  -2.9566  -2.6588  -2.5838  -2.5620  -2.4934  -2.4243
    -2.3823  -2.3611  -2.2876  -2.2854  -2.1589  -2.0199  -1.9133  -1.9033
    -1.5158  -1.3981  -1.3741  -1.3542  -1.2972  -1.2908  -1.2510  -1.1789
    -1.0364  -0.9974  -0.9844  -0.8413  -0.8212  -0.7523  -0.6539  -0.6016
    -0.4465  -0.4268  -0.3794  -0.2371  -0.1673  -0.1468  -0.0920  -0.0864
    -0.0248   0.0433   0.0765   0.0767   0.1790   0.2241   0.2411   0.4285
     0.6353   0.6634   0.6751   0.6955   0.7438   0.8374   0.8472   0.8836
     0.8908   0.9591   0.9796   1.0301   1.0647   1.0801   1.1632   1.1642
     1.2070   1.2977   1.3572   1.4273   1.4932   1.6447   1.6773   1.6799
     2.1669   2.2369   2.4073   2.5812   2.7333   2.7627   3.1407   4.2193
     5.7630   6.0449   6.0478   6.0749   6.2776   6.3412   6.8186   7.2602
     7.2778   7.4807   7.5082   7.5266   7.6043   7.8536   7.9849   8.0694
     8.2516   8.2553

          k = 0.1250 0.3844 0.0000 ( 39259 PWs)   bands (ev):

   -38.6642 -38.2965 -24.5887 -23.1874 -23.1582 -23.1082 -19.1955 -18.9594
   -18.8439 -18.7580 -18.5576 -18.4115 -15.2985 -15.2315 -15.1737 -15.0310
   -14.9547 -14.9506 -14.7605 -14.7172 -14.6973 -14.6507 -14.4036 -14.3518
   -14.2389 -14.2327 -14.1081  -9.9289  -9.7735  -9.3761  -8.5639  -8.5364
    -8.4675  -8.4560  -8.4420  -8.4296  -8.1417  -8.1144  -8.0348  -3.7037
    -3.6211  -3.5404  -3.3508  -3.1161  -3.1103  -3.0077  -2.5043  -2.4868
    -2.4628  -2.3411  -2.3226  -2.2501  -2.2462  -2.0724  -2.0031  -1.9316
    -1.8185  -1.7303  -1.6785  -1.5888  -1.4785  -1.4308  -1.3576  -1.3071
    -1.2086  -1.0559  -1.0346  -0.9938  -0.9644  -0.9354  -0.8808  -0.8474
    -0.7065  -0.5168  -0.4293  -0.3358  -0.3003  -0.1667  -0.1327  -0.0668
     0.0242   0.0374   0.0716   0.0981   0.1634   0.1911   0.3446   0.5157
     0.5695   0.6982   0.7144   0.7438   0.8951   0.9119   0.9594   0.9621
     1.0003   1.0347   1.0353   1.1006   1.1512   1.2571   1.3371   1.3723
     1.4634   1.6021   1.6360   1.6891   1.7064   1.7297   2.0862   2.0902
     2.1954   2.2752   2.4285   2.5475   2.7256   2.7682   3.6747   4.8428
     5.6758   6.5647   6.7604   6.7984   6.8866   6.9729   7.1946   7.2357
     7.2813   7.6754   7.9914   8.0505   8.0895   8.3098   8.4034   8.5579
     8.6214   8.6546

          k = 0.1250-0.5125 0.0000 ( 39204 PWs)   bands (ev):

   -38.6618 -38.2942 -24.5703 -23.1653 -23.1360 -23.0868 -19.2710 -18.9193
   -18.9169 -18.7539 -18.5149 -18.4073 -15.3153 -15.1715 -15.1514 -15.0240
   -14.9231 -14.8981 -14.8277 -14.8110 -14.6890 -14.6677 -14.4400 -14.2717
   -14.2079 -14.2041 -14.1337  -9.9040  -9.7532  -9.4240  -8.5386  -8.5113
    -8.4558  -8.4383  -8.4260  -8.4154  -8.1897  -8.1625  -8.0779  -3.9347
    -3.7842  -3.6951  -3.4907  -3.3548  -3.3465  -3.1499  -2.5220  -2.5106
    -2.4738  -2.3692  -2.2754  -2.2000  -2.1366  -2.0876  -2.0760  -1.9717
    -1.9645  -1.9459  -1.6802  -1.6640  -1.5629  -1.5347  -1.4664  -1.3729
    -1.1692  -1.1256  -1.1038  -1.0465  -0.9806  -0.9618  -0.9378  -0.8605
    -0.8256  -0.5526  -0.4342  -0.4339  -0.3350  -0.1771  -0.1649  -0.0495
     0.0214   0.0581   0.0586   0.0826   0.1480   0.1958   0.2287   0.6335
     0.6409   0.7006   0.7602   0.7832   0.8739   0.8775   0.9743   1.0000
     1.0158   1.0533   1.0688   1.0959   1.1424   1.2971   1.4369   1.5507
     1.5901   1.7034   1.7850   1.8269   1.9672   1.9734   2.1604   2.2401
     2.2528   2.2576   2.3461   2.4295   2.6222   2.6828   3.8614   5.2550
     5.5092   6.5772   6.9412   6.9942   7.0448   7.0706   7.1057   7.4188
     7.7497   7.8617   8.1642   8.2565   8.5604   8.6004   8.7049   8.7397
     8.8754   8.8759

          k = 0.2500 0.0000 0.0000 ( 39282 PWs)   bands (ev):

   -38.6733 -38.3056 -24.6564 -23.2668 -23.2376 -23.1848 -19.0999 -18.9982
   -18.7016 -18.6658 -18.6543 -18.3093 -15.6287 -15.4394 -15.3781 -15.1819
   -15.0131 -14.9737 -14.7540 -14.7344 -14.5978 -14.5022 -14.4781 -14.3107
   -14.3078 -14.1762 -14.0457 -10.0769  -9.4453  -9.3963  -8.5785  -8.5599
    -8.5379  -8.2176  -8.1910  -8.1764  -8.1481  -8.0992  -8.0640  -3.0341
    -2.9559  -2.9452  -2.4822  -2.4458  -2.4298  -2.4106  -2.4083  -2.3001
    -2.2595  -2.2097  -1.9670  -1.9442  -1.6361  -1.5217  -1.3585  -1.2744
    -1.2636  -1.2500  -1.1039  -1.0931  -1.0192  -0.9954  -0.9941  -0.9705
    -0.9090  -0.9087  -0.8565  -0.7169  -0.7009  -0.5399  -0.5192  -0.4608
    -0.4238  -0.3006  -0.2770  -0.2656  -0.1937  -0.1627  -0.0997  -0.0934
    -0.0414  -0.0331   0.0599   0.1176   0.1335   0.1344   0.1428   0.2307
     0.2308   0.3006   0.4924   0.5368   0.5737   0.5885   0.6009   0.7250
     0.7353   0.8446   0.8661   0.9370   0.9847   1.0102   1.0373   1.0401
     1.1230   1.1650   1.2701   1.3302   1.4564   1.4676   1.5577   1.6366
     1.6628   1.7332   1.9220   2.0667   2.2093   2.2951   2.3429   4.0282
     5.3501   5.3705   5.3734   6.0265   6.0993   6.2394   6.7406   7.0016
     7.0354   7.1060   7.4275   7.5552   7.6730   7.8654   7.9392   8.0406
     8.2262   8.2441

          k = 0.2500 0.1281 0.0000 ( 39270 PWs)   bands (ev):

   -38.6710 -38.3033 -24.6401 -23.2478 -23.2186 -23.1664 -19.0658 -18.9925
   -18.7658 -18.6699 -18.6459 -18.4097 -15.5235 -15.3832 -15.2996 -15.1547
   -14.9741 -14.9489 -14.7129 -14.7045 -14.6631 -14.5111 -14.4914 -14.2996
   -14.2975 -14.2042 -14.0680 -10.0571  -9.6970  -9.2931  -8.5798  -8.5621
    -8.5472  -8.4628  -8.4339  -8.3467  -8.0637  -8.0363  -7.9603  -3.1731
    -3.0543  -2.9904  -2.5384  -2.5283  -2.4933  -2.4595  -2.4197  -2.4023
    -2.3835  -2.1400  -2.1398  -2.0820  -1.8851  -1.6297  -1.5404  -1.5289
    -1.5226  -1.3969  -1.3833  -1.3541  -1.2930  -1.2205  -1.2017  -1.0576
    -1.0043  -0.9991  -0.9366  -0.7991  -0.6961  -0.5617  -0.4173  -0.3779
    -0.3283  -0.3061  -0.2950  -0.2225  -0.1685  -0.1590  -0.1069  -0.0864
    -0.0564  -0.0030   0.1605   0.1644   0.1700   0.1913   0.2871   0.3016
     0.3061   0.3812   0.4882   0.6771   0.6818   0.7145   0.7560   0.7750
     0.8379   0.8392   0.8764   0.8802   0.9717   0.9956   1.0020   1.1015
     1.1903   1.1919   1.2750   1.3992   1.4479   1.4572   1.4864   1.6255
     2.2203   2.2938   2.3690   2.4514   2.4946   2.5451   2.7047   4.1695
     5.5373   5.6119   5.6128   6.0997   6.2365   6.2729   6.7897   7.1193
     7.2487   7.2954   7.3364   7.4908   7.6129   7.7620   7.9609   8.1323
     8.2803   8.3164

          k = 0.2500 0.2563 0.0000 ( 39293 PWs)   bands (ev):

   -38.6654 -38.2978 -24.6002 -23.2013 -23.1721 -23.1212 -18.9994 -18.9797
   -18.9627 -18.6539 -18.6179 -18.5713 -15.2909 -15.2300 -15.1525 -15.1035
   -14.8990 -14.8859 -14.8053 -14.6433 -14.6382 -14.5459 -14.5158 -14.2812
   -14.2675 -14.2649 -14.0821 -10.0181  -9.9444  -9.3821  -8.7654  -8.7379
    -8.6409  -8.5122  -8.4977  -8.4789  -8.1609  -8.1336  -8.0569  -3.5935
    -3.4267  -3.2171  -2.9509  -2.7860  -2.6681  -2.6151  -2.5989  -2.5166
    -2.5049  -2.3949  -2.2984  -2.2961  -2.2835  -2.0356  -1.9755  -1.9314
    -1.8689  -1.8010  -1.7939  -1.4417  -1.4069  -1.2916  -1.2881  -1.2794
    -1.1719  -1.0722  -0.9623  -0.8774  -0.7658  -0.7213  -0.6967  -0.6228
    -0.5777  -0.4229  -0.3280  -0.2756  -0.2474  -0.0884  -0.0146   0.0279
     0.1325   0.1582   0.1597   0.2052   0.2571   0.2985   0.5240   0.6899
     0.6989   0.7423   0.7928   0.8361   0.8405   0.8443   0.8554   0.9320
     0.9585   0.9705   1.0037   1.0239   1.0661   1.1548   1.2268   1.2602
     1.3352   1.4043   1.4516   1.4865   1.5829   1.6051   1.6164   1.7166
     2.7031   2.7079   2.8337   2.9156   3.0227   3.1526   3.2165   4.5869
     5.5276   6.1237   6.1351   6.1997   6.5903   6.6171   6.8849   7.0731
     7.3255   7.4910   7.7457   7.7826   7.8061   8.0888   8.2438   8.3255
     8.3829   8.4858

          k = 0.2500 0.3844 0.0000 ( 39293 PWs)   bands (ev):

   -38.6599 -38.2922 -24.5596 -23.1538 -23.1244 -23.0750 -19.1810 -18.9627
   -18.8844 -18.8291 -18.6190 -18.4810 -15.1675 -15.0648 -15.0451 -15.0128
   -14.8779 -14.8553 -14.8108 -14.7195 -14.6343 -14.5951 -14.3862 -14.3583
   -14.2269 -14.2215 -14.0680 -10.0742  -9.9471  -9.5998  -8.8721  -8.8446
    -8.7392  -8.4929  -8.4836  -8.4572  -8.3977  -8.3706  -8.2803  -4.0078
    -3.8393  -3.6497  -3.5261  -3.1739  -3.0839  -3.0826  -2.6940  -2.6372
    -2.5984  -2.4141  -2.4025  -2.3954  -2.3952  -2.2658  -2.2224  -2.1851
    -2.0162  -1.8732  -1.8137  -1.6594  -1.5549  -1.4104  -1.3745  -1.2724
    -1.1804  -1.1122  -1.0683  -0.9333  -0.9293  -0.8802  -0.8601  -0.7970
    -0.6453  -0.6240  -0.3975  -0.2551  -0.1539  -0.1112   0.0527   0.1157
     0.1731   0.2204   0.3002   0.3521   0.4006   0.5063   0.7261   0.7624
     0.7765   0.7855   0.8126   1.0142   1.0237   1.0440   1.0588   1.1223
     1.1566   1.1794   1.1987   1.2127   1.2687   1.2791   1.3447   1.4222
     1.5278   1.5670   1.6082   1.7060   1.7356   1.7418   2.0202   2.0241
     2.6330   2.6346   3.1114   3.2086   3.2903   3.4612   3.6722   4.9602
     5.3357   6.2857   6.3073   6.4306   6.5714   6.6055   7.0819   7.3625
     7.4473   7.9025   8.1411   8.1808   8.1960   8.3976   8.6399   8.7166
     8.8803   8.9244

          k = 0.2500-0.5125 0.0000 ( 39330 PWs)   bands (ev):

   -38.6576 -38.2899 -24.5426 -23.1337 -23.1044 -23.0555 -19.2555 -18.9569
   -18.9036 -18.8437 -18.6133 -18.4400 -15.2121 -15.0524 -14.9358 -14.8901
   -14.8413 -14.8225 -14.7819 -14.7731 -14.7674 -14.5962 -14.3773 -14.3038
   -14.2056 -14.2006 -14.0681 -10.0619  -9.9286  -9.7387  -8.8567  -8.8291
    -8.7307  -8.5570  -8.5298  -8.4859  -8.4712  -8.4431  -8.4174  -4.1716
    -4.0057  -3.8869  -3.6894  -3.3549  -3.3228  -3.3033  -2.6873  -2.6291
    -2.5697  -2.5646  -2.4189  -2.3973  -2.3817  -2.3762  -2.3015  -2.2184
    -2.0451  -1.8938  -1.8891  -1.6920  -1.6245  -1.4301  -1.4139  -1.2479
    -1.2130  -1.1472  -1.1154  -1.0091  -0.9635  -0.9372  -0.8646  -0.8263
    -0.7020  -0.6391  -0.4115  -0.2525  -0.1060  -0.0853   0.1267   0.1496
     0.1837   0.2313   0.3465   0.3609   0.4700   0.5314   0.6392   0.8433
     0.8514   0.8901   0.9017   1.0456   1.0649   1.1182   1.1218   1.1219
     1.1590   1.2267   1.2378   1.2537   1.3286   1.3477   1.4122   1.5223
     1.5584   1.6668   1.7328   1.7786   1.9634   1.9682   2.1982   2.2027
     2.4754   2.4763   3.1689   3.2709   3.3446   3.5071   3.8497   4.8324
     5.7922   6.2212   6.2443   6.2534   6.4960   6.5213   6.8999   7.5719
     7.8779   8.0574   8.2398   8.5524   8.7513   8.7670   8.8083   8.9609
     9.0591   9.1195

          k = 0.3750 0.0000 0.0000 ( 39308 PWs)   bands (ev):

   -38.6689 -38.3012 -24.6192 -23.2205 -23.1912 -23.1404 -19.1873 -19.0113
   -18.8473 -18.6597 -18.6087 -18.3031 -15.5339 -15.3864 -15.3023 -15.2911
   -15.0904 -15.0308 -14.8751 -14.7488 -14.6160 -14.5893 -14.3849 -14.2987
   -14.2963 -14.2222 -14.0576 -10.0832  -9.3779  -9.3445  -8.5790  -8.5619
    -8.5394  -8.1583  -8.1321  -8.0870  -8.0598  -8.0585  -7.9807  -3.3576
    -3.2707  -3.2092  -2.7962  -2.5136  -2.5044  -2.4216  -2.2454  -2.1830
    -2.1804  -2.1183  -1.9642  -1.8502  -1.7285  -1.5800  -1.5112  -1.4810
    -1.4299  -1.3816  -1.3474  -1.3098  -1.2963  -1.2701  -1.1324  -1.1297
    -1.0015  -0.9870  -0.9785  -0.9625  -0.7830  -0.7565  -0.6582  -0.5674
    -0.5245  -0.4888  -0.4782  -0.3669  -0.1836  -0.1463  -0.0809  -0.0749
    -0.0550  -0.0466   0.0185   0.1564   0.1769   0.1903   0.1984   0.2243
     0.2504   0.3575   0.3878   0.5373   0.6487   0.6909   0.6951   0.7380
     0.7929   0.8407   0.9275   0.9407   0.9770   0.9954   1.0252   1.0670
     1.2619   1.3086   1.3664   1.3678   1.3751   1.4345   1.6305   1.6929
     1.7263   1.7929   1.9486   2.1047   2.1916   2.4009   2.4203   4.6465
     5.7818   6.0068   6.0083   6.2867   6.7062   6.8766   6.9684   7.2529
     7.5072   7.5114   7.5203   7.8177   7.9511   8.1500   8.1732   8.1790
     8.3966   8.5319

          k = 0.3750 0.1281 0.0000 ( 39268 PWs)   bands (ev):

   -38.6666 -38.2989 -24.6042 -23.2035 -23.1742 -23.1237 -19.1800 -18.9784
   -18.8399 -18.7581 -18.5761 -18.4015 -15.4669 -15.3218 -15.2406 -15.2191
   -15.0466 -14.9617 -14.8216 -14.7131 -14.6580 -14.5911 -14.3743 -14.2838
   -14.2799 -14.2308 -14.0837 -10.0653  -9.6368  -9.3506  -8.5758  -8.5647
    -8.5412  -8.4052  -8.3773  -8.2897  -8.1196  -8.0922  -8.0216  -3.5058
    -3.3796  -3.2642  -2.8519  -2.5459  -2.5176  -2.4678  -2.4029  -2.3387
    -2.3185  -2.1326  -2.0680  -2.0545  -1.8639  -1.8423  -1.7821  -1.7304
    -1.7019  -1.5268  -1.5263  -1.4304  -1.3433  -1.3343  -1.2917  -1.1879
    -1.1101  -1.0888  -1.0723  -0.9033  -0.8572  -0.6432  -0.5520  -0.4705
    -0.3955  -0.3768  -0.3141  -0.2500  -0.2176  -0.1708  -0.1303  -0.1121
    -0.0383   0.0516   0.1219   0.2446   0.2450   0.3104   0.3281   0.3506
     0.3569   0.4559   0.5574   0.6074   0.6328   0.7020   0.7555   0.7856
     0.8473   0.8787   0.9147   0.9452   1.0002   1.0587   1.0756   1.0905
     1.2406   1.2853   1.3594   1.3926   1.4123   1.6124   1.6165   1.6647
     2.3279   2.3855   2.3977   2.4796   2.5346   2.6998   2.8187   4.7751
     5.7565   6.0637   6.1298   6.1350   6.7953   6.8859   7.0802   7.1657
     7.1712   7.5489   7.5821   7.6557   7.9674   8.2705   8.3797   8.4005
     8.4767   8.5815

          k = 0.3750 0.2563 0.0000 ( 39277 PWs)   bands (ev):

   -38.6611 -38.2934 -24.5675 -23.1619 -23.1326 -23.0828 -19.1626 -18.9732
   -18.8951 -18.8221 -18.6212 -18.4887 -15.2824 -15.1983 -15.1144 -15.0314
   -14.9089 -14.8502 -14.8231 -14.7125 -14.6270 -14.5421 -14.3567 -14.2662
   -14.2458 -14.2422 -14.0886 -10.0558  -9.9745  -9.5862  -8.8145  -8.7869
    -8.6943  -8.5308  -8.5125  -8.4971  -8.3883  -8.3614  -8.2781  -3.9455
    -3.7625  -3.4946  -3.0755  -2.9214  -2.7318  -2.6725  -2.6283  -2.5213
    -2.5162  -2.4072  -2.4012  -2.3675  -2.3075  -2.3024  -2.2248  -2.1530
    -1.8953  -1.7985  -1.7760  -1.5811  -1.3785  -1.3396  -1.2490  -1.1947
    -1.1701  -1.1512  -1.0239  -0.9220  -0.8006  -0.7738  -0.7341  -0.7136
    -0.5672  -0.5421  -0.4379  -0.1654  -0.0883  -0.0670   0.0324   0.1663
     0.2277   0.2971   0.3343   0.3990   0.4028   0.5287   0.6862   0.7427
     0.7504   0.8020   0.8330   0.8750   0.8971   0.9014   0.9600   0.9621
     0.9951   1.0642   1.1239   1.1338   1.1432   1.1801   1.2318   1.3305
     1.4457   1.4847   1.5026   1.5105   1.5925   1.6057   1.6612   1.6764
     2.7043   2.7064   3.1566   3.2302   3.3023   3.3767   3.5529   5.0714
     5.1657   6.1013   6.1178   6.1675   6.5701   6.5760   7.2316   7.3279
     7.4561   7.8016   7.8234   7.8880   8.1093   8.4376   8.4667   8.6250
     8.7049   8.7978

          k = 0.3750 0.3844 0.0000 ( 39371 PWs)   bands (ev):

   -38.6556 -38.2879 -24.5301 -23.1195 -23.0902 -23.0412 -19.1677 -19.1422
   -18.8170 -18.8058 -18.7997 -18.3998 -15.0962 -15.0201 -14.9845 -14.9719
   -14.8962 -14.7833 -14.7315 -14.7209 -14.5539 -14.5450 -14.3097 -14.2571
   -14.2135 -14.2086 -14.0327 -10.2900  -9.9702  -9.8796  -9.0809  -9.0531
    -8.9450  -8.7171  -8.6905  -8.5862  -8.5232  -8.5059  -8.4847  -4.3975
    -4.2038  -3.8576  -3.5780  -3.4422  -3.0606  -3.0562  -2.8297  -2.8024
    -2.7806  -2.7165  -2.5838  -2.4615  -2.4135  -2.4078  -2.4071  -2.3015
    -1.9607  -1.9445  -1.6794  -1.5225  -1.4857  -1.4489  -1.3508  -1.2831
    -1.2468  -1.1255  -1.0710  -1.0167  -0.9602  -0.9425  -0.8784  -0.7697
    -0.6761  -0.5142  -0.5085  -0.1279  -0.0490   0.0046   0.2912   0.3173
     0.4096   0.4750   0.5980   0.6741   0.7147   0.8823   0.9027   0.9200
     0.9393   0.9878   0.9939   1.1000   1.1526   1.1570   1.1860   1.1903
     1.2185   1.2980   1.3149   1.3703   1.4048   1.4234   1.4971   1.4990
     1.5626   1.5892   1.6793   1.7435   1.7526   1.8144   1.9419   1.9454
     2.6235   2.6264   3.6545   3.7785   3.8617   3.8740   4.0486   4.4735
     5.6570   5.7392   5.7512   6.2266   6.2308   6.3298   7.0686   7.6070
     7.8714   8.0281   8.1988   8.3957   8.4665   8.4701   8.7830   8.8169
     8.8616   9.0282

          k = 0.3750-0.5125 0.0000 ( 39430 PWs)   bands (ev):

   -38.6533 -38.2856 -24.5145 -23.1017 -23.0724 -23.0238 -19.2399 -19.1368
   -18.8878 -18.7958 -18.7667 -18.3604 -15.1004 -14.9974 -14.9050 -14.8446
   -14.8264 -14.7914 -14.7442 -14.6532 -14.6437 -14.5244 -14.3099 -14.2037
   -14.1970 -14.1933 -14.0000 -10.3705 -10.0435  -9.9319  -9.1599  -9.1319
    -9.0253  -8.8723  -8.8458  -8.7275  -8.5222  -8.4976  -8.4791  -4.5785
    -4.3853  -4.0271  -3.8206  -3.6114  -3.2990  -3.2943  -2.9434  -2.8457
    -2.8000  -2.7293  -2.7157  -2.4728  -2.4120  -2.4049  -2.4022  -2.3510
    -2.0055  -1.9795  -1.7015  -1.5900  -1.5295  -1.4122  -1.3375  -1.3367
    -1.2913  -1.1501  -1.1381  -1.0414  -1.0385  -1.0242  -0.8561  -0.8282
    -0.7052  -0.4815  -0.4808  -0.1203  -0.0273   0.0362   0.3042   0.3984
     0.5745   0.5761   0.6659   0.7871   0.8277   0.9148   0.9631   0.9906
     1.0161   1.0448   1.1128   1.1717   1.2313   1.2398   1.2545   1.3432
     1.3806   1.3832   1.3973   1.4141   1.4634   1.4801   1.5153   1.5840
     1.6800   1.6911   1.7961   1.8020   1.9842   1.9870   2.1374   2.1418
     2.4516   2.4570   3.8004   3.9448   4.0345   4.0369   4.2056   4.2407
     5.5419   5.5530   6.0171   6.1058   6.1889   6.2344   6.8507   7.7523
     7.7596   8.2420   8.4458   8.4754   8.6623   8.6798   8.7179   8.9007
     9.0284   9.0533

          k =-0.5000 0.0000 0.0000 ( 39274 PWs)   bands (ev):

   -38.6671 -38.2994 -24.6036 -23.2010 -23.1716 -23.1216 -19.2593 -18.9730
   -18.9202 -18.6572 -18.5691 -18.3006 -15.5783 -15.4141 -15.3308 -15.2009
   -15.1557 -14.9734 -14.9203 -14.7889 -14.6490 -14.5788 -14.3527 -14.2907
   -14.2793 -14.2348 -14.0711 -10.0813  -9.3493  -9.3286  -8.5780  -8.5580
    -8.5385  -8.1356  -8.1095  -8.0487  -8.0482  -8.0200  -7.9451  -3.4811
    -3.3956  -3.3239  -2.9252  -2.5404  -2.5321  -2.4173  -2.2127  -2.2115
    -2.0427  -2.0120  -1.9613  -1.7720  -1.7540  -1.7413  -1.6362  -1.5532
    -1.5478  -1.4343  -1.4329  -1.3957  -1.3648  -1.2282  -1.2239  -1.1882
    -1.0905  -1.0768  -0.9929  -0.9810  -0.9727  -0.8011  -0.6841  -0.6714
    -0.5937  -0.5482  -0.4837  -0.4372  -0.1703  -0.1195  -0.0671  -0.0629
    -0.0606  -0.0521  -0.0117   0.1718   0.1909   0.2052   0.2063   0.2713
     0.2716   0.2786   0.4039   0.6290   0.6377   0.7011   0.7296   0.7922
     0.8151   0.8821   0.8998   0.9687   0.9770   1.0136   1.0217   1.0776
     1.3249   1.3312   1.3483   1.3756   1.3816   1.4909   1.7101   1.7211
     1.7730   1.8151   1.9527   2.0924   2.1490   2.4118   2.4140   5.3003
     5.4256   6.2436   6.7482   6.7820   6.8570   6.8608   7.0241   7.1961
     7.3962   7.4937   7.5303   7.7986   8.1318   8.2052   8.3077   8.3447
     8.5931   8.6103

          k =-0.5000 0.1281 0.0000 ( 39244 PWs)   bands (ev):

   -38.6648 -38.2971 -24.5891 -23.1848 -23.1555 -23.1057 -19.2516 -18.9407
   -18.9123 -18.7548 -18.5373 -18.3980 -15.5064 -15.3643 -15.2756 -15.1140
   -15.0849 -14.9405 -14.8319 -14.7514 -14.6455 -14.6160 -14.3219 -14.2725
   -14.2614 -14.2364 -14.1085 -10.0627  -9.5417  -9.4518  -8.5715  -8.5570
    -8.5348  -8.2707  -8.2601  -8.2447  -8.2314  -8.1736  -8.1489  -3.6347
    -3.5106  -3.3869  -2.9873  -2.5600  -2.5394  -2.4634  -2.3936  -2.3020
    -2.1335  -2.1187  -2.0879  -2.0709  -1.9523  -1.9390  -1.9151  -1.8613
    -1.7400  -1.5337  -1.5282  -1.4654  -1.4563  -1.3257  -1.2858  -1.1533
    -1.1472  -1.1311  -1.0639  -0.9872  -0.9325  -0.6922  -0.6092  -0.4870
    -0.4492  -0.4227  -0.3670  -0.2689  -0.2468  -0.1548  -0.1496  -0.1008
    -0.0545   0.0932   0.1335   0.2372   0.2384   0.3028   0.3438   0.4331
     0.4404   0.5064   0.5214   0.5716   0.6359   0.7310   0.7715   0.8168
     0.8804   0.9133   0.9209   0.9348   1.0253   1.0360   1.0693   1.0815
     1.2799   1.3312   1.3560   1.4084   1.4780   1.5886   1.6899   1.8040
     2.3532   2.3956   2.3974   2.4735   2.5292   2.7229   2.8180   5.4086
     5.5221   5.7825   6.5780   6.5969   6.9840   7.0173   7.1195   7.1988
     7.2082   7.2719   7.6566   7.7253   8.2144   8.4738   8.4838   8.5983
     8.6285   8.8029

          k =-0.5000 0.2563 0.0000 ( 39302 PWs)   bands (ev):

   -38.6593 -38.2916 -24.5537 -23.1454 -23.1160 -23.0667 -19.2329 -18.9688
   -18.8932 -18.8590 -18.6163 -18.4518 -15.3102 -15.2358 -15.1289 -15.0046
   -14.8624 -14.8262 -14.8093 -14.7069 -14.6612 -14.5387 -14.2562 -14.2494
   -14.2322 -14.2193 -14.1341 -10.0262  -9.9571  -9.7436  -8.7367  -8.7082
    -8.6318  -8.5819  -8.5559  -8.5368  -8.5090  -8.5032  -8.4633  -4.0872
    -3.9035  -3.6301  -3.2200  -2.9078  -2.7467  -2.6836  -2.6190  -2.5591
    -2.5163  -2.5153  -2.4016  -2.3655  -2.3649  -2.3078  -2.3038  -2.2360
    -1.8928  -1.8372  -1.7751  -1.5702  -1.3668  -1.3332  -1.2085  -1.1762
    -1.1418  -1.1409  -1.0748  -0.9186  -0.8498  -0.7750  -0.7602  -0.7564
    -0.5729  -0.5540  -0.4684  -0.1208  -0.0873   0.0399   0.1100   0.2375
     0.2502   0.2877   0.4090   0.4376   0.4394   0.6111   0.6849   0.7804
     0.7947   0.8218   0.8501   0.8958   0.9884   0.9917   0.9999   1.0041
     1.0416   1.0679   1.0886   1.1037   1.1355   1.2205   1.3470   1.4151
     1.4468   1.4522   1.4752   1.4983   1.5276   1.6373   1.6571   1.7676
     2.7013   2.7020   3.1635   3.3388   3.4102   3.4722   3.6412   4.9065
     5.7228   5.7571   6.0623   6.0748   6.4832   6.4922   7.3067   7.5327
     7.8907   7.9201   7.9570   7.9690   8.2710   8.4038   8.6308   8.6568
     8.8727   8.9133

          k =-0.5000 0.3844 0.0000 ( 39430 PWs)   bands (ev):

   -38.6538 -38.2861 -24.5178 -23.1052 -23.0758 -23.0271 -19.2141 -19.1597
   -18.8741 -18.8072 -18.7714 -18.3643 -15.1213 -15.0201 -14.9791 -14.9484
   -14.8732 -14.7962 -14.7329 -14.5892 -14.5771 -14.5101 -14.2862 -14.2077
   -14.2029 -14.1551 -14.0361 -10.3519 -10.0304  -9.9660  -9.1303  -9.1020
    -8.9976  -8.8757  -8.8495  -8.7363  -8.5381  -8.5159  -8.4977  -4.5579
    -4.3595  -3.9972  -3.5829  -3.5659  -3.0497  -3.0444  -2.9458  -2.8629
    -2.8181  -2.7448  -2.7149  -2.5045  -2.4116  -2.4072  -2.4042  -2.3380
    -1.9906  -1.9538  -1.6060  -1.5099  -1.5042  -1.4153  -1.4031  -1.2422
    -1.2314  -1.1930  -1.0492  -0.9952  -0.9820  -0.9769  -0.8807  -0.8080
    -0.7169  -0.4626  -0.4613  -0.1279  -0.0051   0.1106   0.3316   0.4541
     0.5287   0.6879   0.7171   0.8213   0.8521   0.8877   0.9453   0.9874
     0.9936   1.0375   1.0545   1.1330   1.1493   1.2343   1.2531   1.2798
     1.3293   1.3376   1.3753   1.3756   1.4360   1.4403   1.4559   1.5225
     1.6893   1.7007   1.7374   1.7536   1.7819   1.7932   1.9057   1.9074
     2.6196   2.6246   3.6531   4.0018   4.0789   4.0845   4.2354   4.2497
     5.5006   5.5126   5.9681   6.0895   6.1005   6.1855   7.0822   7.7370
     7.7978   8.2404   8.2550   8.4355   8.4512   8.6462   8.7055   8.8693
     9.0093   9.0342

          k =-0.5000-0.5125 0.0000 ( 39388 PWs)   bands (ev):

   -38.6516 -38.2838 -24.5027 -23.0883 -23.0589 -23.0105 -19.2335 -19.2063
   -18.8813 -18.8662 -18.7331 -18.3257 -15.0631 -15.0511 -14.8324 -14.8277
   -14.8061 -14.8012 -14.7748 -14.5945 -14.5481 -14.4964 -14.2796 -14.2017
   -14.1952 -14.1218 -13.9711 -10.4996 -10.1487  -9.9466  -9.2823  -9.2541
    -9.1453  -8.9932  -8.9669  -8.8447  -8.5399  -8.5086  -8.4942  -4.7473
    -4.5479  -4.1658  -3.8122  -3.7518  -3.2877  -3.2821  -3.0772  -2.8907
    -2.8481  -2.8431  -2.7683  -2.5273  -2.4036  -2.3976  -2.3954  -2.3734
    -2.0408  -1.9693  -1.6326  -1.5828  -1.4993  -1.4809  -1.3668  -1.2970
    -1.2751  -1.2221  -1.1391  -1.0647  -1.0602  -0.9511  -0.8906  -0.8209
    -0.7972  -0.4216  -0.4182  -0.1188   0.0368   0.1306   0.3487   0.5215
     0.7096   0.8340   0.8520   0.9491   0.9846   1.0118   1.0341   1.0403
     1.0494   1.0755   1.1258   1.2060   1.2096   1.2861   1.2900   1.4565
     1.4746   1.4858   1.5021   1.5041   1.5149   1.5440   1.5688   1.5837
     1.5977   1.8179   1.9131   1.9563   2.0022   2.0070   2.1101   2.1145
     2.4437   2.4518   3.7875   3.9796   4.2180   4.3058   4.3134   4.4626
     5.2512   5.2630   5.9694   6.0584   6.0773   6.2630   6.9402   7.6455
     7.8513   8.1667   8.3523   8.4377   8.5662   8.5708   8.6307   8.6740
     8.9371   9.0377

     the Fermi energy is     2.4130 ev

!    total energy              =   -1868.76683202 Ry
     Harris-Foulkes estimate   =   -1868.76683240 Ry
     estimated scf accuracy    <       0.00000073 Ry

     The total energy is the sum of the following terms:

     one-electron contribution =  -23682.63503933 Ry
     hartree contribution      =   11990.56837043 Ry
     xc contribution           =    -642.20247926 Ry
     ewald contribution        =   10465.51077629 Ry
     smearing contrib. (-TS)   =      -0.00846015 Ry

     convergence has been achieved in  39 iterations

     negative rho (up, down):  9.057E-02 0.000E+00

     Forces acting on atoms (cartesian axes, Ry/au):

     atom    1 type  3   force =     0.00000000    0.00000000    0.00000218
     atom    2 type  2   force =     0.00000000    0.00000000   -0.00129022
     atom    3 type  3   force =     0.00000000    0.00000000   -0.00003917
     atom    4 type  1   force =     0.00000000    0.00000000   -0.00007345
     atom    5 type  2   force =     0.00000000    0.00000000   -0.00099723
     atom    6 type  3   force =     0.00000000    0.00000000    0.00048858
     atom    7 type  3   force =     0.00000000    0.00000000   -0.00002913
     atom    8 type  4   force =     0.00000000    0.00000000   -0.00073149
     atom    9 type  3   force =     0.00000000    0.00000000    0.00141405
     atom   10 type  3   force =     0.00000000    0.00000000    0.00174203
     atom   11 type  2   force =     0.00000000    0.00000000   -0.00231952
     atom   12 type  1   force =     0.00000000    0.00000000   -0.00559479
     atom   13 type  3   force =     0.00000000    0.00000000    0.00311973
     atom   14 type  3   force =     0.00000000    0.00000000    0.01780033
     atom   15 type  2   force =     0.00000000    0.00000000   -0.01714831
     atom   16 type  3   force =     0.00000000    0.00000000    0.04545980
     atom   17 type  1   force =     0.00000000    0.00000000   -0.04317808
     atom   18 type  2   force =     0.00000000    0.00000000   -0.00038949
     atom   19 type  3   force =     0.00000000    0.00000000    0.02005403
     atom   20 type  3   force =     0.00000000    0.00000000    0.01119323
     atom   21 type  4   force =     0.00000000    0.00000000   -0.04319459
     atom   22 type  3   force =     0.00000000    0.00000000    0.00429378
     atom   23 type  3   force =     0.00000000    0.00000000    0.00722751
     atom   24 type  2   force =     0.00000000    0.00000000    0.00209764
     atom   25 type  1   force =     0.00000000    0.00000000   -0.00178920
     atom   26 type  3   force =     0.00000000    0.00000000    0.00142555
     atom   27 type  2   force =     0.00000000    0.00000000   -0.00004675
     atom   28 type  3   force =     0.00000000    0.00000000    0.00050300

     Total force =     0.084087     Total SCF correction =     0.003235


     Computing stress (Cartesian axis) and pressure


     negative rho (up, down):  9.057E-02 0.000E+00
          total   stress  (Ry/bohr**3)                   (kbar)     P=       -5.67
  -0.00007411   0.00000000   0.00000000          -10.90        0.00        0.00
   0.00000000  -0.00003110   0.00000000            0.00       -4.58        0.00
   0.00000000   0.00000000  -0.00001050            0.00        0.00       -1.54

 
     init_run     :      9.88s CPU     10.21s WALL (       1 calls)
     electrons    :    775.16s CPU    792.42s WALL (       1 calls)
     forces       :      4.32s CPU      4.49s WALL (       1 calls)
     stress       :     24.06s CPU     24.58s WALL (       1 calls)

     Called by init_run:
     wfcinit      :      6.96s CPU      7.09s WALL (       1 calls)
     potinit      :      0.69s CPU      0.70s WALL (       1 calls)
     hinit0       :      1.04s CPU      1.05s WALL (       1 calls)

     Called by electrons:
     c_bands      :    613.80s CPU    618.41s WALL (      39 calls)
     sum_band     :    106.98s CPU    113.73s WALL (      39 calls)
     v_of_rho     :      3.56s CPU      3.60s WALL (      40 calls)
     newd         :     31.09s CPU     36.88s WALL (      40 calls)
     mix_rho      :     20.23s CPU     20.41s WALL (      39 calls)

     Called by c_bands:
     init_us_2    :      4.28s CPU      4.31s WALL (    2025 calls)
     cegterg      :    578.35s CPU    582.52s WALL (     975 calls)

     Called by sum_band:
     sum_band:bec :      0.28s CPU      0.28s WALL (     975 calls)
     addusdens    :     28.65s CPU     34.54s WALL (      39 calls)

     Called by *egterg:
     h_psi        :    263.30s CPU    266.33s WALL (    5025 calls)
     s_psi        :     27.13s CPU     27.22s WALL (    5025 calls)
     g_psi        :      0.81s CPU      0.82s WALL (    4025 calls)
     cdiaghg      :    156.48s CPU    157.08s WALL (    5000 calls)

     Called by h_psi:
     h_psi:calbec :     33.90s CPU     34.04s WALL (    5025 calls)
     vloc_psi     :    199.90s CPU    202.64s WALL (    5025 calls)
     add_vuspsi   :     28.23s CPU     28.38s WALL (    5025 calls)

     General routines
     calbec       :     53.87s CPU     54.09s WALL (    6125 calls)
     fft          :      2.96s CPU      2.98s WALL (     543 calls)
     ffts         :     10.11s CPU     10.20s WALL (   16551 calls)
     fftw         :    229.11s CPU    232.29s WALL (  706002 calls)
     interpolate  :      0.21s CPU      0.21s WALL (      40 calls)
 
     Parallel routines
     fft_scatt_xy :     29.00s CPU     29.36s WALL (  723096 calls)
     fft_scatt_yz :    145.82s CPU    147.83s WALL (  723096 calls)
 
     PWSCF        :  13m34.15s CPU  13m52.49s WALL

 
   This run was terminated on:  18:10:30   5May2021            

=------------------------------------------------------------------------------=
   JOB DONE.
=------------------------------------------------------------------------------=
[1620252631.019800] [holy7c06101:71812:0]          mpool.c:43   UCX  WARN  object 0x28e5e40 was not returned to mpool ucp_requests
[1620252631.019816] [holy7c06101:71812:0]          mpool.c:43   UCX  WARN  object 0x28e68c0 was not returned to mpool ucp_requests
[1620252631.018324] [holy7c04409:155882:0]          mpool.c:43   UCX  WARN  object 0x45d2e40 was not returned to mpool ucp_requests
[1620252631.020861] [holy7c06201:82408:0]          mpool.c:43   UCX  WARN  object 0x3398f00 was not returned to mpool ucp_requests
[1620252631.023858] [holy7c06202:67864:0]          mpool.c:43   UCX  WARN  object 0x39a3c00 was not returned to mpool ucp_requests
[1620252631.023878] [holy7c06202:67864:0]          mpool.c:43   UCX  WARN  object 0x39a3dc0 was not returned to mpool ucp_requests
[1620252631.032502] [holy7c04408:104920:0]          mpool.c:43   UCX  WARN  object 0x2e7ea00 was not returned to mpool ucp_requests
[1620252631.032522] [holy7c04408:104920:0]          mpool.c:43   UCX  WARN  object 0x2e7ebc0 was not returned to mpool ucp_requests
[1620252631.025590] [holy7c06108:87766:0]          mpool.c:43   UCX  WARN  object 0x4279c80 was not returned to mpool ucp_requests
[1620252631.027497] [holy7c06201:82407:0]          mpool.c:43   UCX  WARN  object 0x34fb6c0 was not returned to mpool ucp_requests
[1620252631.027516] [holy7c06201:82407:0]          mpool.c:43   UCX  WARN  object 0x34fb880 was not returned to mpool ucp_requests
