
     Program PWSCF v.6.5 starts on  5May2021 at 18: 6:31 

     This program is part of the open-source Quantum ESPRESSO suite
     for quantum simulation of materials; please cite
         "P. Giannozzi et al., J. Phys.:Condens. Matter 21 395502 (2009);
         "P. Giannozzi et al., J. Phys.:Condens. Matter 29 465901 (2017);
          URL http://www.quantum-espresso.org", 
     in publications or presentations arising from this work. More details at
     http://www.quantum-espresso.org/quote

     Parallel version (MPI), running on    20 processors

     MPI processes distributed on    12 nodes
     R & G space division:  proc/nbgrp/npool/nimage =      20
     Reading input from YBCO_Y_cleave_4.5_sep_scf.pwi
Warning: card &IONS ignored
Warning: card     ION_DYNAMICS = 'BFGS' ignored
Warning: card / ignored
Warning: card &CELL ignored
Warning: card     CELL_DYNAMICS = 'BFGS' ignored
Warning: card / ignored

     Current dimensions of program PWSCF are:
     Max number of different atomic species (ntypx) = 10
     Max number of k-points (npk) =  40000
     Max angular momentum in pseudopotentials (lmaxx) =  3

     Subspace diagonalization in iterative solution of the eigenvalue problem:
     one sub-group per band group will be used
     scalapack distributed-memory algorithm (size of sub-group:  4*  4 procs)

     Message from routine setup:
     using ibrav=0 with symmetry is DISCOURAGED, use correct ibrav instead
 
     Parallelization info
     --------------------
     sticks:   dense  smooth     PW     G-vecs:    dense   smooth      PW
     Min         150      50     14                78364    15076    2348
     Max         151      51     15                78407    15103    2397
     Sum        3015    1011    293              1567709   301719   47495
 


     bravais-lattice index     =            0
     lattice parameter (alat)  =       7.3477  a.u.
     unit-cell volume          =    4804.6619 (a.u.)^3
     number of atoms/cell      =           28
     number of atomic types    =            4
     number of electrons       =       229.00
     number of Kohn-Sham states=          138
     kinetic-energy cutoff     =      60.0000  Ry
     charge density cutoff     =     720.0000  Ry
     convergence threshold     =      1.0E-06
     mixing beta               =       0.2000
     number of iterations used =           10  local-TF  mixing
     Exchange-correlation= SLA PW PBE PBE
                           (   1   4   3   4   0   0   0)

     celldm(1)=   7.347715  celldm(2)=   0.000000  celldm(3)=   0.000000
     celldm(4)=   0.000000  celldm(5)=   0.000000  celldm(6)=   0.000000

     crystal axes: (cart. coord. in units of alat)
               a(1) = (   1.000000   0.000000   0.000000 )  
               a(2) = (   0.000000   0.975577   0.000000 )  
               a(3) = (   0.000000   0.000000  12.414928 )  

     reciprocal axes: (cart. coord. in units 2 pi/alat)
               b(1) = (  1.000000  0.000000  0.000000 )  
               b(2) = (  0.000000  1.025034  0.000000 )  
               b(3) = (  0.000000  0.000000  0.080548 )  


     PseudoPot. # 1 for Ba read from file:
     /n/holyscratch01/hoffman_lab/ruizhe/YBCO_Project/pseudo/Ba.pbe-nsp-van.UPF
     MD5 check sum: 2b9c31dd849566dd297d80989662b7a0
     Pseudo is Ultrasoft + core correction, Zval = 10.0
     Generated by new atomic code, or converted to UPF format
     Using radial grid of  907 points,  6 beta functions with: 
                l(1) =   0
                l(2) =   0
                l(3) =   1
                l(4) =   1
                l(5) =   2
                l(6) =   2
     Q(r) pseudized with  6 coefficients,  rinner =    1.200   1.200   1.200
                                                       1.200   1.200

     PseudoPot. # 2 for Cu read from file:
     /n/holyscratch01/hoffman_lab/ruizhe/YBCO_Project/pseudo/Cu.pbe-n-van_ak.UPF
     MD5 check sum: 34e3282627ffb533726feb647e090d62
     Pseudo is Ultrasoft + core correction, Zval = 11.0
     Generated by new atomic code, or converted to UPF format
     Using radial grid of  867 points,  6 beta functions with: 
                l(1) =   0
                l(2) =   0
                l(3) =   1
                l(4) =   1
                l(5) =   2
                l(6) =   2
     Q(r) pseudized with  8 coefficients,  rinner =    1.400   1.400   1.400
                                                       1.400   1.400

     PseudoPot. # 3 for O  read from file:
     /n/holyscratch01/hoffman_lab/ruizhe/YBCO_Project/pseudo/O.pbe-van_ak.UPF
     MD5 check sum: 783ce7fe4c79b6a4916957118fed0856
     Pseudo is Ultrasoft, Zval =  6.0
     Generated by new atomic code, or converted to UPF format
     Using radial grid of  737 points,  4 beta functions with: 
                l(1) =   0
                l(2) =   0
                l(3) =   1
                l(4) =   1
     Q(r) pseudized with  8 coefficients,  rinner =    0.800   0.800   0.800


     PseudoPot. # 4 for Y  read from file:
     /n/holyscratch01/hoffman_lab/ruizhe/YBCO_Project/pseudo/Y.pbe-nsp-van.UPF
     MD5 check sum: 4412fed3ab108fed87a1b7d6a69a4a38
     Pseudo is Ultrasoft + core correction, Zval = 11.0
     Generated by new atomic code, or converted to UPF format
     Using radial grid of  885 points,  6 beta functions with: 
                l(1) =   0
                l(2) =   0
                l(3) =   1
                l(4) =   1
                l(5) =   2
                l(6) =   2
     Q(r) pseudized with  6 coefficients,  rinner =    1.200   1.200   1.200
                                                       1.200   1.200

     atomic species   valence    mass     pseudopotential
        Ba            10.00   137.32700     Ba( 1.00)
        Cu            11.00    63.54600     Cu( 1.00)
        O              6.00    15.99900     O ( 1.00)
        Y             11.00    88.90584     Y ( 1.00)

      4 Sym. Ops. (no inversion) found



   Cartesian axes

     site n.     atom                  positions (alat units)
         1           O   tau(   1) = (   0.0000000   0.4877884  -0.0257983  )
         2           Cu  tau(   2) = (   0.0000000   0.0000000   0.0215779  )
         3           O   tau(   3) = (   0.0000000   0.0000000   0.5073114  )
         4           Ba  tau(   4) = (   0.4999996   0.4877884   0.5319677  )
         5           Cu  tau(   5) = (   0.0000000   0.0000000   1.0495845  )
         6           O   tau(   6) = (   0.4999996   0.0000000   1.1181579  )
         7           O   tau(   7) = (   0.0000000   0.4877884   1.1273137  )
         8           Y   tau(   8) = (   0.4999996   0.4877884   1.4938777  )
         9           O   tau(   9) = (   0.0000000   0.4877884   1.8497402  )
        10           O   tau(  10) = (   0.4999996   0.0000000   1.8692709  )
        11           Cu  tau(  11) = (   0.0000000   0.0000000   1.9417560  )
        12           Ba  tau(  12) = (   0.4999996   0.4877884   2.4526063  )
        13           O   tau(  13) = (   0.0000000   0.0000000   2.5103470  )
        14           O   tau(  14) = (   0.0000000   0.4877884   2.9968469  )
        15           Cu  tau(  15) = (   0.0000000   0.0000000   2.9968521  )
        16           O   tau(  16) = (   0.0000000   0.0000000   3.4833288  )
        17           Ba  tau(  17) = (   0.4999996   0.4877884   3.5410618  )
        18           Cu  tau(  18) = (   0.0000000   0.0000000   4.0519352  )
        19           O   tau(  19) = (   0.4999996   0.0000000   4.1244075  )
        20           O   tau(  20) = (   0.0000000   0.4877884   4.1439202  )
        21           Y   tau(  21) = (   0.4999996   0.4877884   4.4997853  )
        22           O   tau(  22) = (   0.0000000   0.4877884   6.0236842  )
        23           O   tau(  23) = (   0.4999996   0.0000000   6.0328529  )
        24           Cu  tau(  24) = (   0.0000000   0.0000000   6.1014314  )
        25           Ba  tau(  25) = (   0.4999996   0.4877884   6.6190328  )
        26           O   tau(  26) = (   0.0000000   0.0000000   6.6436891  )
        27           Cu  tau(  27) = (   0.0000000   0.0000000   7.1293943  )
        28           O   tau(  28) = (   0.0000000   0.4877884   7.1767756  )

     number of k points=    25  Gaussian smearing, width (Ry)=  0.0100
                       cart. coord. in units 2pi/alat
        k(    1) = (   0.0000000   0.0000000   0.0000000), wk =   0.0312500
        k(    2) = (   0.0000000   0.1281293   0.0000000), wk =   0.0625000
        k(    3) = (   0.0000000   0.2562585   0.0000000), wk =   0.0625000
        k(    4) = (   0.0000000   0.3843878   0.0000000), wk =   0.0625000
        k(    5) = (   0.0000000  -0.5125170   0.0000000), wk =   0.0312500
        k(    6) = (   0.1250000   0.0000000   0.0000000), wk =   0.0625000
        k(    7) = (   0.1250000   0.1281293   0.0000000), wk =   0.1250000
        k(    8) = (   0.1250000   0.2562585   0.0000000), wk =   0.1250000
        k(    9) = (   0.1250000   0.3843878   0.0000000), wk =   0.1250000
        k(   10) = (   0.1250000  -0.5125170   0.0000000), wk =   0.0625000
        k(   11) = (   0.2500000   0.0000000   0.0000000), wk =   0.0625000
        k(   12) = (   0.2500000   0.1281293   0.0000000), wk =   0.1250000
        k(   13) = (   0.2500000   0.2562585   0.0000000), wk =   0.1250000
        k(   14) = (   0.2500000   0.3843878   0.0000000), wk =   0.1250000
        k(   15) = (   0.2500000  -0.5125170   0.0000000), wk =   0.0625000
        k(   16) = (   0.3750000   0.0000000   0.0000000), wk =   0.0625000
        k(   17) = (   0.3750000   0.1281293   0.0000000), wk =   0.1250000
        k(   18) = (   0.3750000   0.2562585   0.0000000), wk =   0.1250000
        k(   19) = (   0.3750000   0.3843878   0.0000000), wk =   0.1250000
        k(   20) = (   0.3750000  -0.5125170   0.0000000), wk =   0.0625000
        k(   21) = (  -0.5000000   0.0000000   0.0000000), wk =   0.0312500
        k(   22) = (  -0.5000000   0.1281293   0.0000000), wk =   0.0625000
        k(   23) = (  -0.5000000   0.2562585   0.0000000), wk =   0.0625000
        k(   24) = (  -0.5000000   0.3843878   0.0000000), wk =   0.0625000
        k(   25) = (  -0.5000000  -0.5125170   0.0000000), wk =   0.0312500

     Dense  grid:  1567709 G-vectors     FFT dimensions: (  64,  64, 800)

     Smooth grid:   301719 G-vectors     FFT dimensions: (  40,  36, 450)

     Estimated max dynamical RAM per process >     500.02 MB

     Estimated total dynamical RAM >       9.77 GB

     Initial potential from superposition of free atoms

     starting charge  228.84827, renormalised to  229.00000

     negative rho (up, down):  8.972E-02 0.000E+00
     Starting wfcs are  201 randomized atomic wfcs

     total cpu time spent up to now is       10.9 secs

     Self-consistent Calculation

     iteration #  1     ecut=    60.00 Ry     beta= 0.20
     Davidson diagonalization with overlap
     ethr =  1.00E-02,  avg # of iterations =  2.0

     negative rho (up, down):  8.735E-02 0.000E+00

     total cpu time spent up to now is       27.4 secs

     total energy              =   -1869.45657547 Ry
     Harris-Foulkes estimate   =   -1871.04013733 Ry
     estimated scf accuracy    <      14.64190675 Ry

     iteration #  2     ecut=    60.00 Ry     beta= 0.20
     Davidson diagonalization with overlap
     ethr =  6.39E-03,  avg # of iterations =  1.0

     negative rho (up, down):  8.597E-02 0.000E+00

     total cpu time spent up to now is       42.5 secs

     total energy              =   -1869.01542391 Ry
     Harris-Foulkes estimate   =   -1869.79759312 Ry
     estimated scf accuracy    <       8.67907111 Ry

     iteration #  3     ecut=    60.00 Ry     beta= 0.20
     Davidson diagonalization with overlap
     ethr =  3.79E-03,  avg # of iterations =  1.0

     negative rho (up, down):  8.500E-02 0.000E+00

     total cpu time spent up to now is       57.6 secs

     total energy              =   -1868.55436338 Ry
     Harris-Foulkes estimate   =   -1869.18307982 Ry
     estimated scf accuracy    <       5.23183483 Ry

     iteration #  4     ecut=    60.00 Ry     beta= 0.20
     Davidson diagonalization with overlap
     ethr =  2.28E-03,  avg # of iterations =  1.0

     negative rho (up, down):  8.477E-02 0.000E+00

     total cpu time spent up to now is       72.8 secs

     total energy              =   -1868.85280825 Ry
     Harris-Foulkes estimate   =   -1868.80825046 Ry
     estimated scf accuracy    <       9.89711503 Ry

     iteration #  5     ecut=    60.00 Ry     beta= 0.20
     Davidson diagonalization with overlap
     ethr =  2.28E-03,  avg # of iterations =  1.0

     negative rho (up, down):  8.536E-02 0.000E+00

     total cpu time spent up to now is       87.8 secs

     total energy              =   -1868.38381993 Ry
     Harris-Foulkes estimate   =   -1868.88394405 Ry
     estimated scf accuracy    <      17.96950554 Ry

     iteration #  6     ecut=    60.00 Ry     beta= 0.20
     Davidson diagonalization with overlap
     ethr =  2.28E-03,  avg # of iterations =  1.0

     negative rho (up, down):  8.561E-02 0.000E+00

     total cpu time spent up to now is      102.8 secs

     total energy              =   -1868.50731699 Ry
     Harris-Foulkes estimate   =   -1868.64110683 Ry
     estimated scf accuracy    <       2.31834435 Ry

     iteration #  7     ecut=    60.00 Ry     beta= 0.20
     Davidson diagonalization with overlap
     ethr =  1.01E-03,  avg # of iterations =  2.3

     negative rho (up, down):  8.641E-02 0.000E+00

     total cpu time spent up to now is      119.3 secs

     total energy              =   -1868.36713943 Ry
     Harris-Foulkes estimate   =   -1868.53805435 Ry
     estimated scf accuracy    <       1.56235098 Ry

     iteration #  8     ecut=    60.00 Ry     beta= 0.20
     Davidson diagonalization with overlap
     ethr =  6.82E-04,  avg # of iterations =  6.0

     negative rho (up, down):  8.801E-02 0.000E+00

     total cpu time spent up to now is      140.6 secs

     total energy              =   -1868.44869517 Ry
     Harris-Foulkes estimate   =   -1868.49994373 Ry
     estimated scf accuracy    <       8.90567485 Ry

     iteration #  9     ecut=    60.00 Ry     beta= 0.20
     Davidson diagonalization with overlap
     ethr =  6.82E-04,  avg # of iterations =  2.1

     negative rho (up, down):  8.735E-02 0.000E+00

     total cpu time spent up to now is      156.9 secs

     total energy              =   -1868.35237319 Ry
     Harris-Foulkes estimate   =   -1868.51458786 Ry
     estimated scf accuracy    <      11.38899654 Ry

     iteration # 10     ecut=    60.00 Ry     beta= 0.20
     Davidson diagonalization with overlap
     ethr =  6.82E-04,  avg # of iterations =  1.4

     negative rho (up, down):  8.863E-02 0.000E+00

     total cpu time spent up to now is      172.6 secs

     total energy              =   -1868.39110638 Ry
     Harris-Foulkes estimate   =   -1868.43094344 Ry
     estimated scf accuracy    <       2.40887723 Ry

     iteration # 11     ecut=    60.00 Ry     beta= 0.20
     Davidson diagonalization with overlap
     ethr =  6.82E-04,  avg # of iterations =  1.0

     negative rho (up, down):  8.884E-02 0.000E+00

     total cpu time spent up to now is      188.1 secs

     total energy              =   -1868.39866434 Ry
     Harris-Foulkes estimate   =   -1868.40597567 Ry
     estimated scf accuracy    <       0.39535329 Ry

     iteration # 12     ecut=    60.00 Ry     beta= 0.20
     Davidson diagonalization with overlap
     ethr =  1.73E-04,  avg # of iterations =  2.4

     negative rho (up, down):  8.915E-02 0.000E+00

     total cpu time spent up to now is      204.8 secs

     total energy              =   -1868.39988318 Ry
     Harris-Foulkes estimate   =   -1868.40251216 Ry
     estimated scf accuracy    <       0.15564097 Ry

     iteration # 13     ecut=    60.00 Ry     beta= 0.20
     Davidson diagonalization with overlap
     ethr =  6.80E-05,  avg # of iterations =  4.8

     negative rho (up, down):  8.958E-02 0.000E+00

     total cpu time spent up to now is      224.3 secs

     total energy              =   -1868.39433391 Ry
     Harris-Foulkes estimate   =   -1868.40082493 Ry
     estimated scf accuracy    <       0.12397178 Ry

     iteration # 14     ecut=    60.00 Ry     beta= 0.20
     Davidson diagonalization with overlap
     ethr =  5.41E-05,  avg # of iterations =  4.8

     negative rho (up, down):  8.951E-02 0.000E+00

     total cpu time spent up to now is      243.3 secs

     total energy              =   -1868.39528881 Ry
     Harris-Foulkes estimate   =   -1868.39631648 Ry
     estimated scf accuracy    <       0.05848602 Ry

     iteration # 15     ecut=    60.00 Ry     beta= 0.20
     Davidson diagonalization with overlap
     ethr =  2.55E-05,  avg # of iterations =  3.1

     negative rho (up, down):  8.960E-02 0.000E+00

     total cpu time spent up to now is      260.6 secs

     total energy              =   -1868.39394410 Ry
     Harris-Foulkes estimate   =   -1868.39594542 Ry
     estimated scf accuracy    <       0.02522532 Ry

     iteration # 16     ecut=    60.00 Ry     beta= 0.20
     Davidson diagonalization with overlap
     ethr =  1.10E-05,  avg # of iterations =  8.6

     negative rho (up, down):  8.903E-02 0.000E+00

     total cpu time spent up to now is      285.2 secs

     total energy              =   -1868.38913775 Ry
     Harris-Foulkes estimate   =   -1868.39915367 Ry
     estimated scf accuracy    <       0.44444783 Ry

     iteration # 17     ecut=    60.00 Ry     beta= 0.20
     Davidson diagonalization with overlap
     ethr =  1.10E-05,  avg # of iterations =  5.9

     negative rho (up, down):  8.866E-02 0.000E+00

     total cpu time spent up to now is      305.7 secs

     total energy              =   -1868.39447207 Ry
     Harris-Foulkes estimate   =   -1868.39556740 Ry
     estimated scf accuracy    <       0.03636022 Ry

     iteration # 18     ecut=    60.00 Ry     beta= 0.20
     Davidson diagonalization with overlap
     ethr =  1.10E-05,  avg # of iterations =  1.0

     negative rho (up, down):  8.823E-02 0.000E+00

     total cpu time spent up to now is      320.7 secs

     total energy              =   -1868.39384523 Ry
     Harris-Foulkes estimate   =   -1868.39466770 Ry
     estimated scf accuracy    <       0.04772107 Ry

     iteration # 19     ecut=    60.00 Ry     beta= 0.20
     Davidson diagonalization with overlap
     ethr =  1.10E-05,  avg # of iterations =  1.0

     negative rho (up, down):  8.846E-02 0.000E+00

     total cpu time spent up to now is      335.6 secs

     total energy              =   -1868.39366001 Ry
     Harris-Foulkes estimate   =   -1868.39401830 Ry
     estimated scf accuracy    <       0.04311848 Ry

     iteration # 20     ecut=    60.00 Ry     beta= 0.20
     Davidson diagonalization with overlap
     ethr =  1.10E-05,  avg # of iterations =  1.0

     negative rho (up, down):  8.841E-02 0.000E+00

     total cpu time spent up to now is      350.4 secs

     total energy              =   -1868.39260785 Ry
     Harris-Foulkes estimate   =   -1868.39370021 Ry
     estimated scf accuracy    <       0.03249024 Ry

     iteration # 21     ecut=    60.00 Ry     beta= 0.20
     Davidson diagonalization with overlap
     ethr =  1.10E-05,  avg # of iterations =  1.0

     negative rho (up, down):  9.075E-02 0.000E+00

     total cpu time spent up to now is      365.3 secs

     total energy              =   -1868.39177025 Ry
     Harris-Foulkes estimate   =   -1868.39285607 Ry
     estimated scf accuracy    <       0.00635045 Ry

     iteration # 22     ecut=    60.00 Ry     beta= 0.20
     Davidson diagonalization with overlap
     ethr =  2.77E-06,  avg # of iterations =  6.5

     negative rho (up, down):  1.024E-01 0.000E+00

     total cpu time spent up to now is      386.5 secs

     total energy              =   -1868.39113117 Ry
     Harris-Foulkes estimate   =   -1868.39189059 Ry
     estimated scf accuracy    <       0.00503766 Ry

     iteration # 23     ecut=    60.00 Ry     beta= 0.20
     Davidson diagonalization with overlap
     ethr =  2.20E-06,  avg # of iterations = 10.1

     negative rho (up, down):  1.018E-01 0.000E+00

     total cpu time spent up to now is      413.1 secs

     total energy              =   -1868.39098678 Ry
     Harris-Foulkes estimate   =   -1868.39124145 Ry
     estimated scf accuracy    <       0.00170408 Ry

     iteration # 24     ecut=    60.00 Ry     beta= 0.20
     Davidson diagonalization with overlap
     ethr =  7.44E-07,  avg # of iterations =  4.8

     negative rho (up, down):  9.887E-02 0.000E+00

     total cpu time spent up to now is      432.2 secs

     total energy              =   -1868.39072081 Ry
     Harris-Foulkes estimate   =   -1868.39100994 Ry
     estimated scf accuracy    <       0.00137532 Ry

     iteration # 25     ecut=    60.00 Ry     beta= 0.20
     Davidson diagonalization with overlap
     ethr =  6.01E-07,  avg # of iterations =  5.0

     negative rho (up, down):  9.683E-02 0.000E+00

     total cpu time spent up to now is      451.8 secs

     total energy              =   -1868.39065208 Ry
     Harris-Foulkes estimate   =   -1868.39075686 Ry
     estimated scf accuracy    <       0.00092972 Ry

     iteration # 26     ecut=    60.00 Ry     beta= 0.20
     Davidson diagonalization with overlap
     ethr =  4.06E-07,  avg # of iterations =  2.9

     negative rho (up, down):  9.226E-02 0.000E+00

     total cpu time spent up to now is      469.0 secs

     total energy              =   -1868.39055959 Ry
     Harris-Foulkes estimate   =   -1868.39066292 Ry
     estimated scf accuracy    <       0.00060691 Ry

     iteration # 27     ecut=    60.00 Ry     beta= 0.20
     Davidson diagonalization with overlap
     c_bands:  1 eigenvalues not converged
     c_bands:  1 eigenvalues not converged
     c_bands:  1 eigenvalues not converged
     ethr =  2.65E-07,  avg # of iterations =  6.2

     negative rho (up, down):  9.071E-02 0.000E+00

     total cpu time spent up to now is      490.1 secs

     total energy              =   -1868.39056361 Ry
     Harris-Foulkes estimate   =   -1868.39056799 Ry
     estimated scf accuracy    <       0.00038554 Ry

     iteration # 28     ecut=    60.00 Ry     beta= 0.20
     Davidson diagonalization with overlap
     c_bands:  1 eigenvalues not converged
     ethr =  1.68E-07,  avg # of iterations =  4.1

     negative rho (up, down):  8.965E-02 0.000E+00

     total cpu time spent up to now is      508.8 secs

     total energy              =   -1868.39059949 Ry
     Harris-Foulkes estimate   =   -1868.39057150 Ry
     estimated scf accuracy    <       0.00020629 Ry

     iteration # 29     ecut=    60.00 Ry     beta= 0.20
     Davidson diagonalization with overlap
     ethr =  9.01E-08,  avg # of iterations =  3.9

     negative rho (up, down):  8.956E-02 0.000E+00

     total cpu time spent up to now is      527.1 secs

     total energy              =   -1868.39061849 Ry
     Harris-Foulkes estimate   =   -1868.39060525 Ry
     estimated scf accuracy    <       0.00018897 Ry

     iteration # 30     ecut=    60.00 Ry     beta= 0.20
     Davidson diagonalization with overlap
     ethr =  8.25E-08,  avg # of iterations =  2.8

     negative rho (up, down):  8.945E-02 0.000E+00

     total cpu time spent up to now is      544.3 secs

     total energy              =   -1868.39062206 Ry
     Harris-Foulkes estimate   =   -1868.39061980 Ry
     estimated scf accuracy    <       0.00013939 Ry

     iteration # 31     ecut=    60.00 Ry     beta= 0.20
     Davidson diagonalization with overlap
     ethr =  6.09E-08,  avg # of iterations =  4.0

     negative rho (up, down):  8.997E-02 0.000E+00

     total cpu time spent up to now is      562.6 secs

     total energy              =   -1868.39062370 Ry
     Harris-Foulkes estimate   =   -1868.39062357 Ry
     estimated scf accuracy    <       0.00009920 Ry

     iteration # 32     ecut=    60.00 Ry     beta= 0.20
     Davidson diagonalization with overlap
     ethr =  4.33E-08,  avg # of iterations =  3.0

     negative rho (up, down):  9.001E-02 0.000E+00

     total cpu time spent up to now is      579.6 secs

     total energy              =   -1868.39062522 Ry
     Harris-Foulkes estimate   =   -1868.39062495 Ry
     estimated scf accuracy    <       0.00005346 Ry

     iteration # 33     ecut=    60.00 Ry     beta= 0.20
     Davidson diagonalization with overlap
     ethr =  2.33E-08,  avg # of iterations =  1.2

     negative rho (up, down):  9.040E-02 0.000E+00

     total cpu time spent up to now is      594.8 secs

     total energy              =   -1868.39062359 Ry
     Harris-Foulkes estimate   =   -1868.39062607 Ry
     estimated scf accuracy    <       0.00002145 Ry

     iteration # 34     ecut=    60.00 Ry     beta= 0.20
     Davidson diagonalization with overlap
     ethr =  9.37E-09,  avg # of iterations =  2.0

     negative rho (up, down):  9.043E-02 0.000E+00

     total cpu time spent up to now is      611.0 secs

     total energy              =   -1868.39062446 Ry
     Harris-Foulkes estimate   =   -1868.39062434 Ry
     estimated scf accuracy    <       0.00001009 Ry

     iteration # 35     ecut=    60.00 Ry     beta= 0.20
     Davidson diagonalization with overlap
     ethr =  4.41E-09,  avg # of iterations =  1.0

     negative rho (up, down):  9.039E-02 0.000E+00

     total cpu time spent up to now is      626.1 secs

     total energy              =   -1868.39062425 Ry
     Harris-Foulkes estimate   =   -1868.39062452 Ry
     estimated scf accuracy    <       0.00000936 Ry

     iteration # 36     ecut=    60.00 Ry     beta= 0.20
     Davidson diagonalization with overlap
     ethr =  4.09E-09,  avg # of iterations =  1.0

     negative rho (up, down):  9.019E-02 0.000E+00

     total cpu time spent up to now is      641.3 secs

     total energy              =   -1868.39062378 Ry
     Harris-Foulkes estimate   =   -1868.39062437 Ry
     estimated scf accuracy    <       0.00000521 Ry

     iteration # 37     ecut=    60.00 Ry     beta= 0.20
     Davidson diagonalization with overlap
     ethr =  2.28E-09,  avg # of iterations =  1.2

     negative rho (up, down):  9.014E-02 0.000E+00

     total cpu time spent up to now is      656.7 secs

     total energy              =   -1868.39062379 Ry
     Harris-Foulkes estimate   =   -1868.39062399 Ry
     estimated scf accuracy    <       0.00000371 Ry

     iteration # 38     ecut=    60.00 Ry     beta= 0.20
     Davidson diagonalization with overlap
     ethr =  1.62E-09,  avg # of iterations =  1.0

     negative rho (up, down):  8.998E-02 0.000E+00

     total cpu time spent up to now is      671.7 secs

     total energy              =   -1868.39062343 Ry
     Harris-Foulkes estimate   =   -1868.39062384 Ry
     estimated scf accuracy    <       0.00000211 Ry

     iteration # 39     ecut=    60.00 Ry     beta= 0.20
     Davidson diagonalization with overlap
     ethr =  9.20E-10,  avg # of iterations =  2.0

     negative rho (up, down):  8.991E-02 0.000E+00

     total cpu time spent up to now is      688.3 secs

     total energy              =   -1868.39062365 Ry
     Harris-Foulkes estimate   =   -1868.39062357 Ry
     estimated scf accuracy    <       0.00000118 Ry

     iteration # 40     ecut=    60.00 Ry     beta= 0.20
     Davidson diagonalization with overlap
     ethr =  5.16E-10,  avg # of iterations =  1.0

     negative rho (up, down):  8.996E-02 0.000E+00

     total cpu time spent up to now is      702.7 secs

     End of self-consistent calculation

          k = 0.0000 0.0000 0.0000 ( 37611 PWs)   bands (ev):

   -41.3667 -38.5175 -23.4446 -23.1711 -23.0285 -22.7731 -21.5086 -21.2395
   -21.2325 -19.0524 -18.5223 -18.5124 -16.5414 -15.8479 -15.6145 -14.9903
   -14.8874 -14.6944 -14.6567 -14.6334 -14.5493 -14.3718 -14.1548 -14.0826
   -14.0457 -13.8621 -13.3879  -8.7568  -8.3924  -8.3794  -8.3692  -8.3006
    -8.1636  -8.1368  -7.9825  -7.9638  -7.8997  -7.8016  -7.7664  -3.3199
    -3.2960  -2.8451  -2.4766  -2.4435  -2.4186  -2.2954  -2.2555  -2.2124
    -2.1890  -2.1116  -1.8999  -1.2823  -1.2500  -1.2089  -1.1955  -1.0543
    -0.9332  -0.8545  -0.8148  -0.7925  -0.7666  -0.5883  -0.5026  -0.4656
    -0.4289  -0.3808  -0.3544  -0.3410  -0.2764  -0.2659  -0.2644  -0.2576
    -0.2476  -0.1702  -0.1130  -0.1060   0.0006   0.0060   0.0393   0.1046
     0.1358   0.1434   0.1488   0.1731   0.1891   0.2274   0.2520   0.2655
     0.2795   0.3897   0.4121   0.5459   0.6864   0.7062   0.8353   0.8925
     0.9267   0.9708   0.9821   1.0513   1.0919   1.1069   1.1788   1.3065
     1.5303   1.5352   1.5896   1.6137   1.6948   1.7101   1.7880   1.8736
     1.8859   1.9736   1.9789   2.0105   2.2749   2.2919   2.3403   2.3852
     3.7332   4.7951   4.8782   5.0485   5.2891   5.5363   5.6337   6.2468
     6.2835   6.2851   6.4999   6.5811   6.6496   6.9632   7.3240   7.7737
     7.7806   7.8236

          k = 0.0000 0.1281 0.0000 ( 37645 PWs)   bands (ev):

   -41.3650 -38.5152 -23.4239 -23.1495 -23.0077 -22.7510 -21.5013 -21.2718
   -21.2371 -19.0164 -18.6167 -18.5191 -16.4918 -15.7393 -15.6320 -14.9473
   -14.8947 -14.6931 -14.6658 -14.6028 -14.5075 -14.4182 -14.1601 -14.1047
   -14.0849 -13.9261 -13.4184  -8.7455  -8.3908  -8.3749  -8.3414  -8.2873
    -8.1563  -8.1224  -7.9839  -7.9436  -7.8831  -7.7870  -7.7589  -3.4270
    -3.2722  -2.7542  -2.5800  -2.5669  -2.4273  -2.3984  -2.2569  -2.2488
    -2.1167  -2.0961  -1.9083  -1.7449  -1.5587  -1.3744  -1.3281  -1.3067
    -1.2193  -1.1161  -1.0447  -1.0253  -0.8410  -0.8284  -0.8148  -0.7304
    -0.5955  -0.5756  -0.5171  -0.4986  -0.4401  -0.4109  -0.3349  -0.2472
    -0.1458  -0.1445  -0.1016  -0.0663  -0.0620   0.0406   0.0425   0.0669
     0.1285   0.1492   0.1548   0.2032   0.2267   0.2363   0.2562   0.4518
     0.5203   0.5260   0.5376   0.5965   0.6470   0.6902   0.7825   0.8452
     1.0512   1.0848   1.1198   1.2131   1.2266   1.2993   1.3002   1.3281
     1.4179   1.5319   1.5624   1.5658   1.6399   1.6837   1.7979   1.8502
     1.9259   1.9346   2.1360   2.3006   2.3128   2.5272   2.6126   2.7458
     3.8324   4.8025   5.2530   5.3739   5.3889   5.4801   5.7867   6.2889
     6.3199   6.6049   6.7925   6.9377   6.9562   7.2336   7.5262   7.7202
     7.9505   8.0673

          k = 0.0000 0.2563 0.0000 ( 37646 PWs)   bands (ev):

   -41.3608 -38.5096 -23.3730 -23.0965 -22.9565 -22.6966 -21.4894 -21.3584
   -21.2315 -18.9254 -18.8417 -18.5113 -16.3578 -15.6942 -15.4916 -14.9716
   -14.8319 -14.7459 -14.7224 -14.5364 -14.4848 -14.3620 -14.2458 -14.1373
   -14.0793 -14.0580 -13.5100  -8.7167  -8.4329  -8.3341  -8.2574  -8.2466
    -8.1974  -8.0276  -8.0192  -7.8464  -7.8433  -7.8298  -7.6519  -3.6900
    -3.1280  -3.0110  -2.8942  -2.7640  -2.5651  -2.4430  -2.4062  -2.3586
    -2.2859  -2.1556  -2.1355  -2.0722  -2.0469  -2.0432  -1.8835  -1.6149
    -1.5765  -1.2935  -1.2304  -1.2019  -1.1524  -1.1236  -1.0178  -0.9870
    -0.9687  -0.8812  -0.7952  -0.7454  -0.6887  -0.6641  -0.4884  -0.4454
    -0.4190  -0.3983  -0.2934  -0.2417  -0.1368  -0.0790  -0.0368   0.0417
     0.0743   0.1848   0.2019   0.2124   0.2198   0.2964   0.3745   0.4724
     0.7406   0.7528   0.7907   0.9152   0.9581   0.9598   0.9886   1.1031
     1.1143   1.1634   1.2224   1.2431   1.2795   1.3547   1.3555   1.4403
     1.4585   1.5241   1.6054   1.6237   1.7518   1.7962   1.8670   1.9214
     1.9739   2.2628   2.2963   2.3306   2.3708   2.8895   3.0646   3.3945
     3.9869   4.7331   5.0798   6.1173   6.1506   6.2581   6.3982   6.4256
     6.4744   7.4308   7.4716   7.5901   7.6641   7.7612   7.8022   7.9867
     8.2925   8.4002

          k = 0.0000 0.3844 0.0000 ( 37566 PWs)   bands (ev):

   -41.3566 -38.5040 -23.3207 -23.0419 -22.9040 -22.6407 -21.5097 -21.4095
   -21.2258 -19.0395 -18.8271 -18.5036 -16.1758 -15.8126 -15.2426 -15.1139
   -14.8435 -14.8299 -14.6911 -14.5055 -14.4868 -14.3863 -14.2273 -14.1428
   -14.0784 -13.9929 -13.6642  -8.6836  -8.4707  -8.2940  -8.2307  -8.2236
    -8.1471  -8.0681  -7.9101  -7.8679  -7.7996  -7.7442  -7.5385  -3.9355
    -3.4695  -3.3613  -3.1394  -2.9624  -2.9597  -2.8840  -2.6726  -2.5510
    -2.4502  -2.3142  -2.2545  -2.1216  -2.0962  -2.0794  -1.9485  -1.8804
    -1.8134  -1.5832  -1.4412  -1.4297  -1.2533  -1.2414  -1.2366  -1.1671
    -1.1218  -1.1165  -0.9867  -0.9849  -0.8948  -0.8210  -0.6891  -0.6722
    -0.6491  -0.6142  -0.4993  -0.4369  -0.3544  -0.2599   0.0377   0.1090
     0.1787   0.1902   0.1969   0.1999   0.2262   0.3295   0.5594   0.6658
     0.6890   0.7695   0.8439   0.9052   0.9678   0.9943   1.0669   1.1876
     1.2171   1.2463   1.2957   1.3768   1.4312   1.4507   1.5037   1.5536
     1.5865   1.7249   1.7285   1.8174   1.8359   1.9780   2.0530   2.2275
     2.2746   2.3049   2.3408   2.3844   2.6256   2.8609   3.0502   3.9491
     4.0274   4.8155   4.8501   6.4969   6.6383   6.8930   7.0453   7.2349
     7.2511   7.4776   7.5034   8.0294   8.2546   8.4497   8.4639   8.5186
     8.6389   8.7039

          k = 0.0000-0.5125 0.0000 ( 37738 PWs)   bands (ev):

   -41.3548 -38.5017 -23.2986 -23.0189 -22.8818 -22.6171 -21.5350 -21.4128
   -21.2234 -19.1155 -18.7840 -18.5004 -16.0081 -15.9563 -15.1947 -15.1111
   -14.8958 -14.8913 -14.6102 -14.5143 -14.4915 -14.4427 -14.2828 -14.0472
   -14.0000 -13.8716 -13.8653  -8.6674  -8.4870  -8.2779  -8.2421  -8.2069
    -8.1044  -8.0859  -7.8811  -7.8630  -7.7817  -7.7002  -7.4894  -4.0379
    -3.7032  -3.5115  -3.2742  -3.1966  -3.1943  -2.8511  -2.5725  -2.5458
    -2.5311  -2.4836  -2.3489  -2.2928  -2.1800  -1.9697  -1.9332  -1.8783
    -1.7704  -1.7099  -1.5398  -1.4984  -1.4253  -1.3883  -1.2763  -1.2307
    -1.2204  -1.0909  -1.0109  -0.9979  -0.9492  -0.9144  -0.7761  -0.7619
    -0.7234  -0.7125  -0.6834  -0.4909  -0.4599  -0.2488   0.1088   0.1139
     0.1514   0.1867   0.1870   0.2292   0.2322   0.3390   0.6466   0.7482
     0.7522   0.7678   0.7768   0.8882   0.9757   0.9951   1.1357   1.1410
     1.1916   1.2360   1.3440   1.3999   1.4081   1.4599   1.4965   1.6370
     1.6572   1.7408   1.8860   2.0748   2.1127   2.1385   2.1527   2.1692
     2.2159   2.3669   2.4369   2.4984   2.7217   2.7756   2.9322   3.9895
     4.1451   4.7659   4.8996   6.5226   6.8136   7.0926   7.3676   7.4351
     7.5308   7.6295   7.6939   7.9151   8.4073   8.5501   8.7455   8.8013
     8.8115   8.9578

          k = 0.1250 0.0000 0.0000 ( 37614 PWs)   bands (ev):

   -41.3654 -38.5157 -23.4271 -23.1527 -23.0108 -22.7541 -21.5026 -21.2749
   -21.2307 -19.0199 -18.6224 -18.5098 -16.4921 -15.7324 -15.6308 -15.0176
   -14.9150 -14.7196 -14.7046 -14.6115 -14.5285 -14.4009 -14.1554 -14.0992
   -14.0809 -13.8913 -13.4180  -8.7791  -8.4038  -8.3753  -8.3379  -8.2859
    -8.1286  -8.1025  -7.9448  -7.9316  -7.9156  -7.7619  -7.7307  -3.4203
    -3.2527  -2.7631  -2.5683  -2.4984  -2.3940  -2.3681  -2.2460  -2.2390
    -2.1783  -2.1345  -1.9239  -1.3943  -1.3065  -1.2573  -1.2481  -1.1777
    -1.1202  -0.9681  -0.8491  -0.8490  -0.8094  -0.7477  -0.6870  -0.5516
    -0.5507  -0.5392  -0.4584  -0.4475  -0.4407  -0.3398  -0.2577  -0.2520
    -0.2112  -0.1796  -0.0874  -0.0704   0.0106   0.0500   0.0658   0.0794
     0.1151   0.1362   0.1487   0.1651   0.1682   0.2600   0.2781   0.3288
     0.3297   0.4176   0.5768   0.5876   0.6277   0.6408   0.7556   0.8499
     0.8538   0.9085   1.0116   1.0578   1.1397   1.2627   1.2728   1.3303
     1.4557   1.5847   1.6208   1.6746   1.6787   1.7348   1.8319   1.8674
     1.9016   1.9485   1.9529   2.0602   2.3147   2.3177   2.3388   2.5092
     3.8258   4.7196   5.0742   5.2090   5.4278   5.4825   5.7889   6.0790
     6.3347   6.5243   6.7283   6.8636   6.9369   7.1924   7.5276   7.7612
     7.9401   8.0837

          k = 0.1250 0.1281 0.0000 ( 37634 PWs)   bands (ev):

   -41.3637 -38.5134 -23.4070 -23.1319 -22.9906 -22.7328 -21.4955 -21.2762
   -21.2659 -18.9844 -18.6261 -18.6049 -16.4440 -15.6445 -15.6247 -14.9712
   -14.9125 -14.7215 -14.7011 -14.5837 -14.4757 -14.4546 -14.1548 -14.1417
   -14.0779 -13.9438 -13.4450  -8.7644  -8.5110  -8.3891  -8.3077  -8.2761
    -8.2030  -8.0986  -7.9787  -7.9398  -7.8678  -7.8094  -7.6118  -3.5462
    -3.2213  -2.7017  -2.6668  -2.6156  -2.4264  -2.3869  -2.2772  -2.2747
    -2.2255  -2.0556  -1.9037  -1.7574  -1.5417  -1.5197  -1.3797  -1.3684
    -1.3475  -1.3213  -1.1845  -1.1649  -1.0131  -0.8724  -0.8414  -0.8366
    -0.7263  -0.6257  -0.6024  -0.5114  -0.4668  -0.4445  -0.3221  -0.2343
    -0.1973  -0.1204  -0.1197  -0.0835  -0.0162  -0.0073   0.0255   0.0562
     0.0978   0.1095   0.1400   0.1761   0.2016   0.2473   0.2606   0.4510
     0.4983   0.5692   0.5929   0.6880   0.7475   0.8098   0.8492   0.8534
     0.8847   1.0657   1.1137   1.1409   1.1565   1.3267   1.3288   1.4472
     1.4970   1.5139   1.5166   1.6248   1.6317   1.8412   1.9387   1.9459
     2.0090   2.0427   2.0955   2.3020   2.5484   2.6256   2.7091   2.7556
     3.9117   4.7429   5.2447   5.4006   5.5184   5.6327   5.9362   6.1736
     6.3404   6.8342   7.0433   7.1592   7.1906   7.4279   7.6294   7.7339
     8.1047   8.2514

          k = 0.1250 0.2563 0.0000 ( 37688 PWs)   bands (ev):

   -41.3595 -38.5078 -23.3577 -23.0807 -22.9411 -22.6805 -21.4844 -21.3570
   -21.2647 -18.8946 -18.8372 -18.6067 -16.3145 -15.6964 -15.3796 -14.9566
   -14.8481 -14.7540 -14.7239 -14.5414 -14.5193 -14.3246 -14.2474 -14.1287
   -14.0748 -14.0490 -13.5267  -8.7301  -8.6202  -8.4001  -8.3343  -8.2780
    -8.2146  -8.1564  -8.0295  -7.9347  -7.8468  -7.7720  -7.5674  -3.8126
    -3.1402  -3.1106  -2.9132  -2.7567  -2.5040  -2.4525  -2.4260  -2.3689
    -2.3213  -2.2393  -2.1529  -2.1297  -2.0696  -2.0554  -1.9864  -1.8218
    -1.6358  -1.3566  -1.3302  -1.2771  -1.2094  -1.2010  -1.1866  -1.1094
    -0.9868  -0.9505  -0.8244  -0.6831  -0.6772  -0.6098  -0.5913  -0.4943
    -0.4433  -0.3532  -0.2620  -0.1993  -0.1524  -0.0094   0.0383   0.0725
     0.0865   0.1061   0.1841   0.2048   0.2349   0.3399   0.4256   0.5451
     0.5901   0.8107   0.8670   0.9287   1.0130   1.0426   1.0618   1.0898
     1.1028   1.2147   1.2601   1.2674   1.3169   1.3326   1.3540   1.4418
     1.4748   1.6643   1.7363   1.7954   1.8372   1.8703   1.9123   2.0586
     2.1277   2.3272   2.3675   2.5706   2.8538   2.8941   3.1013   3.3920
     4.0805   4.6878   4.9565   6.1184   6.2041   6.3159   6.3452   6.4446
     6.5021   7.4395   7.6561   7.6710   7.8494   7.9253   7.9620   8.0637
     8.3388   8.3986

          k = 0.1250 0.3844 0.0000 ( 37697 PWs)   bands (ev):

   -41.3553 -38.5023 -23.3072 -23.0281 -22.8904 -22.6267 -21.5060 -21.4071
   -21.2582 -19.0335 -18.7978 -18.5969 -16.1398 -15.8012 -15.1407 -15.0689
   -14.8183 -14.8009 -14.6870 -14.5479 -14.4835 -14.3674 -14.2082 -14.1140
   -14.0744 -13.9878 -13.6657  -8.6979  -8.6359  -8.4048  -8.3044  -8.2831
    -8.2287  -8.1723  -8.0408  -7.9827  -7.8172  -7.8107  -7.6140  -4.0690
    -3.5085  -3.4221  -3.1902  -3.0081  -2.9522  -2.9513  -2.6866  -2.5522
    -2.4236  -2.3951  -2.3461  -2.2533  -2.1783  -2.1652  -2.0166  -1.8292
    -1.7391  -1.6606  -1.5635  -1.5069  -1.3869  -1.2430  -1.2362  -1.2125
    -1.1122  -1.0484  -1.0420  -0.9206  -0.8668  -0.8282  -0.7901  -0.7490
    -0.6884  -0.6024  -0.3729  -0.2645  -0.1926  -0.1393   0.0680   0.0794
     0.1237   0.2014   0.2487   0.2630   0.3049   0.3953   0.5179   0.6764
     0.6960   0.8398   0.8708   0.9707   1.0037   1.0605   1.1214   1.1770
     1.2202   1.2736   1.3758   1.4098   1.4800   1.4975   1.5472   1.6244
     1.7226   1.8534   1.9136   1.9768   1.9790   2.0860   2.2486   2.2971
     2.3289   2.3536   2.5861   2.6822   2.8077   2.8854   3.1231   3.9172
     4.1328   4.7149   4.7798   6.3725   6.5364   6.8432   6.9272   7.1084
     7.1345   7.3743   7.6316   8.1604   8.2150   8.4608   8.5267   8.6147
     8.7373   8.7929

          k = 0.1250-0.5125 0.0000 ( 37648 PWs)   bands (ev):

   -41.3536 -38.4999 -23.2859 -23.0059 -22.8690 -22.6040 -21.5318 -21.4102
   -21.2554 -19.1090 -18.7553 -18.5927 -15.9790 -15.9352 -15.1539 -14.9937
   -14.8611 -14.8521 -14.5757 -14.5383 -14.4855 -14.4571 -14.2569 -14.0459
   -13.9934 -13.8654 -13.8456  -8.6836  -8.6172  -8.3796  -8.3107  -8.2882
    -8.2162  -8.1756  -8.0307  -8.0183  -7.8578  -7.7950  -7.6608  -4.1770
    -3.7028  -3.6174  -3.3322  -3.1885  -3.1859  -2.8708  -2.8184  -2.8033
    -2.4565  -2.4138  -2.3638  -2.2890  -2.1263  -2.0622  -2.0415  -1.8817
    -1.8241  -1.7575  -1.6913  -1.5672  -1.4399  -1.3209  -1.2442  -1.1920
    -1.1400  -1.0847  -1.0747  -1.0099  -0.9386  -0.8850  -0.8740  -0.8324
    -0.7788  -0.6937  -0.4074  -0.2960  -0.2716  -0.1849   0.0651   0.0830
     0.1410   0.2168   0.2541   0.3082   0.3828   0.4170   0.5528   0.7290
     0.7764   0.8361   0.8508   0.9563   0.9928   1.0498   1.1271   1.1468
     1.1722   1.2988   1.3521   1.4716   1.5357   1.5539   1.5936   1.7255
     1.8767   1.9848   2.1157   2.1270   2.1317   2.1902   2.3176   2.4159
     2.4269   2.4920   2.5036   2.6892   2.7754   2.8304   3.0279   4.0744
     4.0958   4.6739   4.8453   6.4139   6.6304   7.0559   7.1012   7.2039
     7.3579   7.4616   7.6709   8.0184   8.4424   8.7205   8.8600   8.9099
     9.0066   9.0408

          k = 0.2500 0.0000 0.0000 ( 37738 PWs)   bands (ev):

   -41.3622 -38.5114 -23.3841 -23.1075 -22.9674 -22.7074 -21.4915 -21.3548
   -21.2264 -18.9381 -18.8374 -18.5038 -16.3597 -15.6885 -15.4681 -15.0993
   -15.0210 -14.8383 -14.8154 -14.5741 -14.4354 -14.4103 -14.2290 -14.1496
   -14.0699 -13.9435 -13.5054  -8.8186  -8.4127  -8.3568  -8.2602  -8.2557
    -8.0586  -8.0172  -7.9259  -7.8809  -7.8516  -7.6946  -7.6416  -3.6267
    -3.1225  -2.8766  -2.7884  -2.6210  -2.3874  -2.3503  -2.2870  -2.2496
    -2.1433  -2.0496  -1.9669  -1.9335  -1.6416  -1.4352  -1.3242  -1.3069
    -1.2368  -1.1254  -1.0757  -1.0691  -0.9360  -0.9094  -0.8439  -0.8358
    -0.8125  -0.7963  -0.7509  -0.6569  -0.5306  -0.5134  -0.3016  -0.2784
    -0.1958  -0.1810  -0.1437  -0.1176  -0.0358   0.0245   0.0582   0.1006
     0.1237   0.1250   0.1379   0.1507   0.2750   0.2961   0.3288   0.3927
     0.4070   0.4448   0.4943   0.6333   0.6964   0.7298   0.7549   0.8449
     0.9087   1.0062   1.1160   1.1623   1.1980   1.2720   1.2799   1.4224
     1.4399   1.4709   1.5285   1.6182   1.6264   1.7422   1.7459   1.8107
     1.9186   2.1092   2.2309   2.2834   2.3434   2.3454   2.4551   2.7037
     3.9892   4.4719   5.2217   5.5284   5.6325   5.9029   6.2685   6.3063
     6.4128   7.1552   7.2783   7.4015   7.4627   7.6654   7.7155   7.9715
     8.4010   8.5116

          k = 0.2500 0.1281 0.0000 ( 37712 PWs)   bands (ev):

   -41.3605 -38.5091 -23.3657 -23.0885 -22.9489 -22.6881 -21.4852 -21.3527
   -21.2637 -18.9040 -18.8316 -18.6038 -16.3160 -15.6920 -15.3632 -15.0461
   -14.9920 -14.8197 -14.7907 -14.5449 -14.5007 -14.3586 -14.2358 -14.1393
   -14.0583 -13.9728 -13.5226  -8.8128  -8.5433  -8.4196  -8.3305  -8.3034
    -8.1684  -8.1053  -7.9966  -7.9046  -7.8690  -7.7459  -7.5369  -3.7695
    -3.1381  -3.0147  -2.8325  -2.5596  -2.3802  -2.3706  -2.3659  -2.3266
    -2.2611  -2.1040  -1.9684  -1.9237  -1.8911  -1.7819  -1.4923  -1.4681
    -1.3966  -1.3652  -1.3188  -1.2317  -1.1980  -1.1926  -1.0923  -1.0374
    -0.9410  -0.8256  -0.6906  -0.6785  -0.6045  -0.5889  -0.3924  -0.2189
    -0.2014  -0.1576  -0.1258  -0.0987  -0.0854  -0.0197   0.0326   0.0515
     0.0943   0.1077   0.1723   0.2269   0.3254   0.3864   0.3921   0.4418
     0.4667   0.5317   0.6107   0.6552   0.8387   0.9016   0.9403   0.9825
     0.9992   1.0442   1.1388   1.1622   1.2781   1.3132   1.3468   1.3559
     1.4029   1.4392   1.5722   1.7335   1.7348   1.7923   1.9703   2.0222
     2.1565   2.3585   2.3813   2.5958   2.6098   2.7140   2.7536   3.0140
     4.0850   4.4827   5.0502   5.7707   5.8759   5.9252   6.3273   6.3956
     6.4014   7.4109   7.4988   7.5213   7.6912   7.7259   7.8995   8.0869
     8.3970   8.5912

          k = 0.2500 0.2563 0.0000 ( 37709 PWs)   bands (ev):

   -41.3563 -38.5035 -23.3204 -23.0420 -22.9036 -22.6408 -21.4751 -21.3711
   -21.3225 -18.8378 -18.8181 -18.8013 -16.1997 -15.7157 -15.1315 -14.9490
   -14.8862 -14.7824 -14.7408 -14.6452 -14.4778 -14.2578 -14.2194 -14.1068
   -14.0580 -14.0247 -13.5763  -8.8482  -8.7431  -8.6064  -8.4185  -8.3527
    -8.3101  -8.2381  -8.2013  -8.0018  -7.8626  -7.8411  -7.6363  -4.1064
    -3.4347  -3.1402  -3.0578  -2.7313  -2.6745  -2.5108  -2.5079  -2.4427
    -2.3838  -2.3586  -2.2932  -2.1599  -2.1380  -2.0582  -1.8922  -1.8754
    -1.8022  -1.7747  -1.7289  -1.5907  -1.2476  -1.2368  -1.1734  -1.1117
    -0.9959  -0.9758  -0.9092  -0.7393  -0.7091  -0.6321  -0.5626  -0.5245
    -0.4643  -0.4211  -0.3835  -0.1911  -0.1577  -0.0527   0.0523   0.1777
     0.2539   0.2929   0.3080   0.3317   0.3929   0.4765   0.5128   0.5746
     0.8482   0.8938   0.9299   0.9948   0.9991   1.0040   1.0956   1.1201
     1.1267   1.2168   1.2949   1.3545   1.3814   1.4445   1.5157   1.5915
     1.6526   1.7072   1.7588   1.8011   1.8680   1.9291   1.9905   2.2393
     2.5414   2.5764   2.8625   2.9907   3.0101   3.1796   3.3843   3.5094
     4.3257   4.4528   4.7419   6.0330   6.2839   6.3575   6.4207   6.4221
     6.7579   7.2361   7.9272   7.9894   8.1413   8.2356   8.3880   8.4125
     8.5088   8.6218

          k = 0.2500 0.3844 0.0000 ( 37741 PWs)   bands (ev):

   -41.3522 -38.4980 -23.2742 -22.9944 -22.8572 -22.5924 -21.4973 -21.4143
   -21.3211 -19.0190 -18.8018 -18.7226 -16.0470 -15.7818 -15.0072 -14.8785
   -14.7583 -14.7205 -14.6980 -14.6817 -14.4312 -14.3136 -14.1615 -14.0632
   -14.0449 -13.9704 -13.6720  -8.9353  -8.7460  -8.7130  -8.5417  -8.4650
    -8.3475  -8.3312  -8.2415  -8.2382  -8.0572  -7.8778  -7.8366  -4.4343
    -3.8488  -3.4406  -3.3355  -3.1508  -2.9918  -2.9437  -2.9258  -2.7420
    -2.5369  -2.4649  -2.3838  -2.2554  -2.2444  -2.2377  -2.1960  -2.0106
    -1.8536  -1.7871  -1.7383  -1.6744  -1.3475  -1.3009  -1.2164  -1.1815
    -1.1743  -1.1090  -0.9398  -0.8641  -0.8470  -0.7319  -0.7024  -0.6931
    -0.6502  -0.5852  -0.4715  -0.2045  -0.1340  -0.0439   0.0902   0.2717
     0.3410   0.3535   0.4385   0.4715   0.5627   0.6644   0.7035   0.7074
     0.9093   0.9269   1.0153   1.0696   1.1409   1.2132   1.2361   1.3475
     1.3708   1.4166   1.4371   1.4641   1.5866   1.6220   1.6857   1.6891
     1.7676   1.8793   1.9352   2.0428   2.0447   2.1825   2.2579   2.5074
     2.7468   2.7929   2.8932   2.9532   3.2685   3.4475   3.7778   3.8339
     4.2871   4.4879   4.7271   5.8370   6.4258   6.4511   6.6414   6.7461
     6.8821   7.5180   7.9962   8.3098   8.3434   8.5521   8.7706   8.8334
     8.9087   9.0747

          k = 0.2500-0.5125 0.0000 ( 37754 PWs)   bands (ev):

   -41.3504 -38.4957 -23.2547 -22.9744 -22.8377 -22.5720 -21.5240 -21.4170
   -21.3173 -19.0935 -18.7960 -18.6819 -15.9070 -15.8876 -15.0504 -14.7751
   -14.7529 -14.7322 -14.6821 -14.4882 -14.4629 -14.4155 -14.1919 -14.0424
   -13.9829 -13.8613 -13.7830  -8.9231  -8.7371  -8.6976  -8.6300  -8.5209
    -8.3980  -8.3341  -8.3173  -8.2426  -8.1807  -8.0319  -7.8267  -4.5692
    -4.0121  -3.6576  -3.5198  -3.1889  -3.1683  -3.1646  -3.0545  -2.9422
    -2.5308  -2.4645  -2.4009  -2.3502  -2.2826  -2.2325  -2.1761  -2.1264
    -1.8267  -1.7766  -1.7581  -1.6981  -1.4404  -1.3461  -1.2623  -1.2131
    -1.2065  -1.0878  -0.9846  -0.9326  -0.8774  -0.8053  -0.7507  -0.6925
    -0.6634  -0.6407  -0.4872  -0.2192  -0.0987  -0.0304   0.1072   0.2886
     0.3483   0.3519   0.4896   0.6177   0.6244   0.7437   0.7953   0.7989
     0.9655   0.9745   1.0154   1.0785   1.2127   1.2421   1.2656   1.2786
     1.2916   1.4616   1.4884   1.5742   1.6496   1.6602   1.7001   1.7801
     1.8533   2.0764   2.1005   2.1264   2.1891   2.3610   2.4268   2.6325
     2.6546   2.8204   2.8294   3.0033   3.3262   3.5020   3.8314   3.9733
     4.1486   4.4762   4.8688   5.7331   6.4010   6.4382   6.5990   6.6809
     7.3533   7.6714   7.7489   8.3203   8.4887   8.9298   8.9301   9.1387
     9.1967   9.2582

          k = 0.3750 0.0000 0.0000 ( 37742 PWs)   bands (ev):

   -41.3591 -38.5070 -23.3402 -23.0612 -22.9229 -22.6595 -21.4996 -21.4126
   -21.2221 -19.0266 -18.8494 -18.4977 -16.1846 -15.7963 -15.2301 -15.2044
   -15.1272 -14.9762 -14.9301 -14.5798 -14.4277 -14.3497 -14.2419 -14.1381
   -14.0428 -13.9750 -13.6372  -8.8431  -8.4138  -8.3238  -8.2324  -8.1793
    -7.9994  -7.9278  -7.9215  -7.8425  -7.7681  -7.6426  -7.5481  -3.8278
    -3.1990  -3.0486  -2.9088  -2.5650  -2.5439  -2.4066  -2.3558  -2.2284
    -2.1071  -2.0892  -2.0221  -2.0216  -1.9725  -1.5663  -1.5210  -1.4129
    -1.3401  -1.3231  -1.3087  -1.2085  -1.1960  -1.1105  -1.0501  -0.9745
    -0.9555  -0.8611  -0.8203  -0.7815  -0.6946  -0.5941  -0.5643  -0.4843
    -0.2935  -0.2845  -0.2054  -0.0383  -0.0098   0.0525   0.0847   0.1116
     0.1343   0.1373   0.1438   0.3156   0.3344   0.3563   0.3663   0.4097
     0.4584   0.4947   0.5295   0.5584   0.6420   0.6733   0.7679   0.9235
     0.9946   1.0871   1.1455   1.1696   1.2693   1.3155   1.3311   1.4323
     1.4750   1.5149   1.5373   1.5773   1.6107   1.6408   1.8794   1.9085
     1.9198   2.1495   2.2730   2.3352   2.3606   2.5614   2.6224   2.7698
     3.8808   4.4769   5.0563   6.1644   6.2415   6.2683   6.4631   6.6393
     6.8741   7.5037   7.6661   7.6715   7.8377   8.0914   8.1141   8.4475
     8.5385   8.6077

          k = 0.3750 0.1281 0.0000 ( 37694 PWs)   bands (ev):

   -41.3573 -38.5047 -23.3235 -23.0442 -22.9062 -22.6424 -21.4949 -21.4091
   -21.2587 -19.0193 -18.8165 -18.5960 -16.1476 -15.7869 -15.1716 -15.1309
   -15.0460 -14.9326 -14.8870 -14.5459 -14.4950 -14.3264 -14.1988 -14.1217
   -14.0263 -13.9862 -13.6405  -8.8397  -8.4816  -8.4146  -8.3194  -8.2460
    -8.2142  -8.0674  -7.9605  -7.9525  -7.8499  -7.8074  -7.5930  -3.9844
    -3.3466  -3.1039  -3.0300  -2.5842  -2.5717  -2.4427  -2.3882  -2.3611
    -2.2891  -2.2236  -2.1680  -1.9197  -1.8639  -1.8179  -1.6867  -1.6151
    -1.5524  -1.4211  -1.3692  -1.3249  -1.2667  -1.1881  -1.1713  -1.1695
    -1.1018  -0.9443  -0.8989  -0.8637  -0.8019  -0.6449  -0.4745  -0.3140
    -0.2962  -0.2173  -0.1674  -0.1415  -0.0969   0.0203   0.0252   0.0475
     0.1473   0.2151   0.2457   0.2901   0.4023   0.4719   0.4808   0.5150
     0.5601   0.5609   0.6273   0.7352   0.8169   0.8608   0.8743   0.9838
     1.0094   1.0777   1.2275   1.2335   1.2851   1.3200   1.3281   1.4035
     1.4483   1.4848   1.5482   1.6215   1.7981   1.9367   1.9835   2.1752
     2.3230   2.4926   2.6043   2.6365   2.7033   2.7445   2.8645   3.1054
     3.9699   4.4782   4.8841   6.1048   6.2891   6.4096   6.4157   6.7043
     6.9634   7.3245   7.7415   7.7624   7.8792   8.3241   8.4039   8.4637
     8.5535   8.6361

          k = 0.3750 0.2563 0.0000 ( 37739 PWs)   bands (ev):

   -41.3532 -38.4992 -23.2825 -23.0026 -22.8653 -22.6003 -21.4845 -21.4170
   -21.3272 -19.0018 -18.8112 -18.7333 -16.0519 -15.7734 -15.0482 -14.9492
   -14.8605 -14.8216 -14.7490 -14.6612 -14.4635 -14.2722 -14.0900 -14.0840
   -14.0331 -13.9872 -13.6545  -8.9040  -8.7776  -8.6554  -8.5045  -8.4387
    -8.3710  -8.2867  -8.2660  -8.2293  -8.0595  -7.8831  -7.8648  -4.4003
    -3.7863  -3.3347  -3.1301  -3.0449  -2.6975  -2.6745  -2.5747  -2.4731
    -2.4048  -2.3628  -2.2558  -2.2437  -2.1775  -2.1443  -2.1151  -2.0362
    -1.9885  -1.8197  -1.6524  -1.6147  -1.2584  -1.2037  -1.1457  -1.0708
    -1.0652  -1.0028  -0.9048  -0.8340  -0.7500  -0.6825  -0.6157  -0.5558
    -0.5391  -0.4532  -0.4097  -0.2392  -0.1151   0.0598   0.1399   0.3096
     0.3648   0.3919   0.4653   0.5425   0.5587   0.6567   0.6897   0.7404
     0.8321   0.9011   0.9573   1.0547   1.0603   1.1016   1.1656   1.1668
     1.2387   1.2910   1.3193   1.3774   1.4164   1.4386   1.5212   1.6205
     1.6507   1.6681   1.7820   1.8524   1.9063   1.9605   2.0338   2.4928
     2.8009   2.8661   2.9450   3.0003   3.3647   3.3986   3.5354   3.8379
     4.0864   4.5466   4.6308   5.7132   6.2636   6.4241   6.4375   6.7335
     6.7898   7.4271   7.9827   8.1442   8.2853   8.4423   8.7265   8.7686
     8.8242   8.9065

          k = 0.3750 0.3844 0.0000 ( 37819 PWs)   bands (ev):

   -41.3490 -38.4937 -23.2406 -22.9602 -22.8235 -22.5575 -21.4895 -21.4607
   -21.3413 -19.0059 -18.9814 -18.6439 -15.9355 -15.7842 -14.9355 -14.8249
   -14.7430 -14.7003 -14.6828 -14.5594 -14.3890 -14.2528 -14.1116 -14.0504
   -13.9972 -13.9185 -13.6872  -9.1431  -8.9219  -8.8117  -8.7990  -8.7007
    -8.5581  -8.5536  -8.3601  -8.3521  -8.2656  -8.1992  -7.8672  -4.8124
    -4.2386  -3.6970  -3.3410  -3.3335  -3.1472  -3.0285  -2.8980  -2.8124
    -2.6721  -2.6406  -2.5602  -2.4121  -2.3081  -2.2537  -2.1713  -2.1401
    -2.0415  -1.8848  -1.6741  -1.5242  -1.4921  -1.2920  -1.2400  -1.1281
    -1.1183  -1.0774  -0.9557  -0.8818  -0.8490  -0.7900  -0.7725  -0.6739
    -0.6471  -0.3572  -0.3403  -0.2482  -0.0176   0.1783   0.2081   0.4298
     0.5223   0.5788   0.6323   0.6859   0.7789   0.8282   0.9372   1.0360
     1.0612   1.0654   1.1472   1.2559   1.2751   1.2792   1.3425   1.3521
     1.4728   1.5640   1.5816   1.6051   1.6549   1.7270   1.7327   1.7419
     1.8416   1.9076   2.0527   2.0735   2.1037   2.1261   2.1889   2.7822
     2.7823   2.9315   3.0156   3.4355   3.7659   3.9319   4.0305   4.0937
     4.3036   4.3678   4.9259   5.1948   5.8985   6.0896   6.4434   6.6911
     7.0277   7.7456   8.3218   8.4672   8.5674   8.6076   8.6911   8.8546
     8.8609   9.0709

          k = 0.3750-0.5125 0.0000 ( 37814 PWs)   bands (ev):

   -41.3473 -38.4914 -23.2230 -22.9424 -22.8060 -22.5395 -21.5162 -21.4624
   -21.3380 -19.0780 -18.9761 -18.6048 -15.8446 -15.8325 -14.9382 -14.8401
   -14.6859 -14.6461 -14.4894 -14.4627 -14.3909 -14.3488 -14.1221 -14.0387
   -13.9813 -13.8496 -13.7210  -9.2208  -9.0009  -8.9468  -8.8151  -8.7902
    -8.7134  -8.6327  -8.4782  -8.3547  -8.3547  -8.2615  -7.8615  -4.9775
    -4.4197  -3.8645  -3.5820  -3.4326  -3.2191  -3.1451  -3.1362  -3.0401
    -2.7806  -2.6886  -2.5736  -2.4098  -2.3438  -2.2492  -2.1884  -2.1657
    -2.0224  -1.9125  -1.6821  -1.6227  -1.5020  -1.3183  -1.2527  -1.1787
    -1.1692  -1.1220  -0.9901  -0.9605  -0.9053  -0.8659  -0.7453  -0.7439
    -0.6508  -0.3234  -0.2381  -0.2019   0.0090   0.2155   0.2601   0.4400
     0.5591   0.6996   0.7047   0.7401   0.8637   0.9071   0.9981   1.0792
     1.0988   1.1968   1.2684   1.3153   1.3604   1.4260   1.4557   1.4960
     1.5089   1.5444   1.5572   1.6413   1.7391   1.8288   1.8471   1.9365
     2.0381   2.0759   2.0977   2.1453   2.2428   2.3002   2.3649   2.6131
     2.7780   2.9222   3.1206   3.5754   3.8690   4.0108   4.0911   4.1952
     4.2633   4.5394   4.9889   5.0779   5.7007   5.8967   6.3543   6.7590
     7.5799   7.7834   7.8924   8.5419   8.5528   8.6973   8.8487   8.9243
     9.0014   9.0758

          k =-0.5000 0.0000 0.0000 ( 37718 PWs)   bands (ev):

   -41.3577 -38.5052 -23.3217 -23.0417 -22.9042 -22.6393 -21.5169 -21.4218
   -21.2203 -19.0987 -18.8110 -18.4952 -16.0575 -15.8974 -15.2819 -15.2134
   -15.0383 -15.0350 -14.9918 -14.6104 -14.4160 -14.3928 -14.1584 -14.1323
   -14.0022 -13.9832 -13.7323  -8.8498  -8.4130  -8.3070  -8.2248  -8.1447
    -7.9766  -7.9172  -7.8895  -7.8320  -7.7324  -7.6237  -7.5079  -3.9135
    -3.3225  -3.1629  -2.7095  -2.6954  -2.4943  -2.4558  -2.3958  -2.3826
    -2.2874  -2.0557  -2.0493  -1.9614  -1.8012  -1.6667  -1.5987  -1.5322
    -1.4611  -1.4383  -1.3228  -1.2469  -1.2365  -1.2317  -1.0704  -1.0260
    -1.0071  -0.8950  -0.8191  -0.8145  -0.8118  -0.7757  -0.5781  -0.5325
    -0.3330  -0.2977  -0.2441  -0.0342   0.0418   0.0676   0.0955   0.1060
     0.1318   0.1334   0.1506   0.3335   0.3493   0.3958   0.4017   0.4331
     0.4367   0.4744   0.4751   0.5881   0.6623   0.7087   0.8995   0.9112
     1.0394   1.0738   1.0966   1.1882   1.2198   1.2919   1.3197   1.4829
     1.5333   1.5347   1.5413   1.5652   1.6504   1.6599   1.8646   1.8883
     2.1487   2.1581   2.2671   2.2765   2.3684   2.5746   2.7433   2.7860
     3.7354   4.5626   4.9949   6.3544   6.4802   6.7797   6.9113   7.0202
     7.0882   7.0949   7.1912   7.4661   7.6537   8.2924   8.5007   8.6363
     8.7173   8.8385

          k =-0.5000 0.1281 0.0000 ( 37704 PWs)   bands (ev):

   -41.3560 -38.5029 -23.3057 -23.0255 -22.8882 -22.6231 -21.5129 -21.4177
   -21.2565 -19.0909 -18.7787 -18.5928 -16.0252 -15.8808 -15.2275 -15.1484
   -14.9813 -14.9506 -14.9224 -14.5765 -14.4827 -14.3589 -14.1218 -14.1139
   -13.9881 -13.9847 -13.7264  -8.8448  -8.4088  -8.3528  -8.3497  -8.3040
    -8.1118  -8.1009  -7.9551  -7.9365  -7.9185  -7.7594  -7.7177  -4.0763
    -3.4755  -3.2264  -2.9284  -2.7511  -2.7182  -2.4347  -2.4017  -2.3707
    -2.2818  -2.2776  -1.9837  -1.9277  -1.9077  -1.8464  -1.8337  -1.7736
    -1.5763  -1.3746  -1.3701  -1.3205  -1.2834  -1.2366  -1.1546  -1.1283
    -1.1188  -1.0023  -0.9888  -0.9465  -0.9254  -0.6584  -0.5236  -0.3367
    -0.3327  -0.2905  -0.2024  -0.1815  -0.0925   0.0134   0.0511   0.0527
     0.1443   0.2622   0.2680   0.3100   0.3961   0.4757   0.5743   0.5793
     0.5990   0.6341   0.7096   0.7286   0.7613   0.7817   0.9389   0.9902
     1.0426   1.0751   1.1977   1.2288   1.2410   1.2462   1.3327   1.4713
     1.4788   1.4907   1.5594   1.6370   1.8198   1.9067   2.1475   2.2174
     2.4210   2.5139   2.6060   2.6302   2.7271   2.8489   2.9007   3.0846
     3.7948   4.5771   4.8241   6.1391   6.4170   6.7376   6.9125   6.9475
     7.1439   7.2995   7.3678   7.3890   7.5877   8.6822   8.6890   8.7319
     8.7568   8.8562

          k =-0.5000 0.2563 0.0000 ( 37750 PWs)   bands (ev):

   -41.3519 -38.4974 -23.2665 -22.9860 -22.8492 -22.5833 -21.5033 -21.4246
   -21.3247 -19.0722 -18.8068 -18.6970 -15.9455 -15.8441 -15.0957 -14.9613
   -14.8419 -14.8405 -14.6658 -14.6444 -14.4944 -14.2764 -14.0743 -14.0387
   -14.0204 -13.9413 -13.7128  -8.8628  -8.7622  -8.6541  -8.5775  -8.4230
    -8.4097  -8.3771  -8.2661  -8.2366  -8.2014  -8.0703  -7.8861  -4.5228
    -3.9280  -3.4701  -3.1736  -3.1128  -2.8305  -2.6532  -2.5897  -2.4676
    -2.4039  -2.3974  -2.3544  -2.3028  -2.1578  -2.1459  -2.1231  -2.0686
    -2.0240  -1.8469  -1.6188  -1.6068  -1.3543  -1.1809  -1.1050  -1.0358
    -0.9825  -0.9653  -0.9223  -0.8724  -0.8462  -0.6442  -0.6230  -0.5981
    -0.5425  -0.4699  -0.4144  -0.2713  -0.0740   0.0637   0.2459   0.3370
     0.4223   0.4481   0.4840   0.5989   0.6526   0.7102   0.7957   0.8118
     0.8482   0.9390   1.0114   1.1267   1.1390   1.1540   1.1909   1.1982
     1.2041   1.2227   1.2515   1.3459   1.3930   1.5764   1.5782   1.6148
     1.6166   1.6628   1.7267   1.7608   1.8564   2.0129   2.1347   2.6207
     2.8548   2.9426   2.9885   3.0545   3.4158   3.4964   3.6307   3.8598
     3.9294   4.4932   4.7492   5.5554   6.2216   6.4034   6.4322   6.6517
     7.2609   7.5894   7.7796   8.0797   8.1796   8.6822   8.7139   8.9317
     8.9321   8.9980

          k =-0.5000 0.3844 0.0000 ( 37858 PWs)   bands (ev):

   -41.3477 -38.4919 -23.2266 -22.9459 -22.8094 -22.5428 -21.4937 -21.4809
   -21.3405 -19.0534 -18.9977 -18.6095 -15.8630 -15.8125 -14.9616 -14.8166
   -14.7199 -14.6849 -14.6773 -14.4265 -14.4165 -14.2256 -14.0885 -14.0447
   -13.9875 -13.8783 -13.7005  -9.1949  -8.9712  -8.9486  -8.8133  -8.7811
    -8.7168  -8.5998  -8.4972  -8.3729  -8.3617  -8.2715  -7.8799  -4.9664
    -4.3990  -3.8373  -3.4314  -3.3209  -3.1590  -3.1288  -2.8863  -2.8216
    -2.7824  -2.7058  -2.5883  -2.4077  -2.3641  -2.2528  -2.1980  -2.1725
    -2.0205  -1.9416  -1.6404  -1.6112  -1.4043  -1.3474  -1.2437  -1.0969
    -1.0828  -1.0424  -1.0285  -0.8919  -0.8185  -0.8064  -0.7486  -0.7221
    -0.6882  -0.3032  -0.2274  -0.1881   0.0128   0.2158   0.3374   0.4636
     0.6031   0.6468   0.7492   0.7923   0.8474   0.9881   1.0322   1.0501
     1.0903   1.1131   1.2136   1.3058   1.3262   1.4034   1.4717   1.4986
     1.5059   1.5163   1.5690   1.5919   1.6558   1.7374   1.7666   1.8231
     1.9114   1.9543   2.0076   2.0658   2.1327   2.1441   2.1799   2.7802
     2.9089   2.9137   3.1280   3.6552   3.8227   3.8500   4.1539   4.2227
     4.2464   4.5743   4.9242   5.0540   5.6598   5.8528   6.3368   6.7916
     7.5235   7.8793   7.9348   8.3464   8.4057   8.6012   8.8429   8.8769
     8.9845   9.0378

          k =-0.5000-0.5125 0.0000 ( 37836 PWs)   bands (ev):

   -41.3460 -38.4897 -23.2098 -22.9290 -22.7927 -22.5259 -21.5130 -21.4897
   -21.3373 -19.0715 -19.0457 -18.5712 -15.8280 -15.8008 -14.9057 -14.8886
   -14.6483 -14.5992 -14.4698 -14.3885 -14.3362 -14.3337 -14.0913 -14.0369
   -13.9832 -13.8425 -13.6958  -9.3427  -9.1232  -9.0696  -8.9349  -8.8343
    -8.8056  -8.7525  -8.5991  -8.4777  -8.3707  -8.2687  -7.8765  -5.1425
    -4.5884  -4.0056  -3.5706  -3.5148  -3.3048  -3.1625  -3.1240  -3.0557
    -2.9132  -2.7336  -2.6118  -2.4150  -2.4031  -2.2410  -2.2064  -2.1911
    -1.9974  -1.9844  -1.7023  -1.6387  -1.4206  -1.3272  -1.3212  -1.1441
    -1.1386  -1.1131  -1.0595  -0.9813  -0.9018  -0.8425  -0.7937  -0.7063
    -0.7053  -0.2601  -0.2000  -0.0037   0.0383   0.2709   0.4210   0.4754
     0.6799   0.6876   0.7191   0.8954   1.0124   1.0836   1.1072   1.1179
     1.1683   1.1847   1.2034   1.3871   1.4505   1.4535   1.6173   1.6319
     1.6364   1.6514   1.6530   1.6624   1.7539   1.8224   1.8765   2.0687
     2.0778   2.1535   2.1651   2.1739   2.2729   2.2811   2.3335   2.6074
     2.7484   3.0432   3.2109   3.8202   3.8625   3.9075   4.1316   4.3767
     4.4628   4.6937   4.7986   5.1779   5.4101   5.6096   6.2391   7.0948
     7.7947   7.9545   7.9951   8.0199   8.3763   8.4134   8.8064   8.9095
     8.9114   9.0111

     the Fermi energy is     2.5705 ev

!    total energy              =   -1868.39062319 Ry
     Harris-Foulkes estimate   =   -1868.39062367 Ry
     estimated scf accuracy    <       0.00000064 Ry

     The total energy is the sum of the following terms:

     one-electron contribution =  -29564.73892182 Ry
     hartree contribution      =   14931.86652044 Ry
     xc contribution           =    -641.73700912 Ry
     ewald contribution        =   13406.22750824 Ry
     smearing contrib. (-TS)   =      -0.00872093 Ry

     convergence has been achieved in  40 iterations

     negative rho (up, down):  8.996E-02 0.000E+00

     Forces acting on atoms (cartesian axes, Ry/au):

     atom    1 type  3   force =     0.00000000    0.00000000   -0.00005779
     atom    2 type  2   force =     0.00000000    0.00000000   -0.00056643
     atom    3 type  3   force =     0.00000000    0.00000000   -0.00011608
     atom    4 type  1   force =     0.00000000    0.00000000   -0.00012669
     atom    5 type  2   force =     0.00000000    0.00000000   -0.00062358
     atom    6 type  3   force =     0.00000000    0.00000000    0.00028161
     atom    7 type  3   force =     0.00000000    0.00000000    0.00007856
     atom    8 type  4   force =     0.00000000    0.00000000   -0.00055245
     atom    9 type  3   force =     0.00000000    0.00000000    0.00076190
     atom   10 type  3   force =     0.00000000    0.00000000    0.00102881
     atom   11 type  2   force =     0.00000000    0.00000000   -0.00122681
     atom   12 type  1   force =     0.00000000    0.00000000   -0.00164692
     atom   13 type  3   force =     0.00000000    0.00000000    0.00227468
     atom   14 type  3   force =     0.00000000    0.00000000    0.00567219
     atom   15 type  2   force =     0.00000000    0.00000000   -0.01132030
     atom   16 type  3   force =     0.00000000    0.00000000    0.01937120
     atom   17 type  1   force =     0.00000000    0.00000000   -0.02269155
     atom   18 type  2   force =     0.00000000    0.00000000    0.00349607
     atom   19 type  3   force =     0.00000000    0.00000000    0.06068968
     atom   20 type  3   force =     0.00000000    0.00000000    0.06216735
     atom   21 type  4   force =     0.00000000    0.00000000   -0.11500112
     atom   22 type  3   force =     0.00000000    0.00000000    0.02294170
     atom   23 type  3   force =     0.00000000    0.00000000    0.02902155
     atom   24 type  2   force =     0.00000000    0.00000000   -0.01928403
     atom   25 type  1   force =     0.00000000    0.00000000   -0.03313486
     atom   26 type  3   force =     0.00000000    0.00000000   -0.00410845
     atom   27 type  2   force =     0.00000000    0.00000000   -0.00272994
     atom   28 type  3   force =     0.00000000    0.00000000    0.00540169

     Total force =     0.157290     Total SCF correction =     0.002390


     Computing stress (Cartesian axis) and pressure


     negative rho (up, down):  8.996E-02 0.000E+00
          total   stress  (Ry/bohr**3)                   (kbar)     P=       -9.94
  -0.00006084   0.00000000   0.00000000           -8.95        0.00        0.00
   0.00000000  -0.00004827   0.00000000            0.00       -7.10        0.00
   0.00000000   0.00000000  -0.00009360            0.00        0.00      -13.77

 
     init_run     :      9.02s CPU      9.86s WALL (       1 calls)
     electrons    :    638.95s CPU    691.88s WALL (       1 calls)
     forces       :      3.83s CPU      4.22s WALL (       1 calls)
     stress       :     24.02s CPU     25.12s WALL (       1 calls)

     Called by init_run:
     wfcinit      :      6.43s CPU      6.64s WALL (       1 calls)
     potinit      :      0.66s CPU      0.69s WALL (       1 calls)
     hinit0       :      1.03s CPU      1.20s WALL (       1 calls)

     Called by electrons:
     c_bands      :    500.53s CPU    520.79s WALL (      40 calls)
     sum_band     :     92.40s CPU    110.28s WALL (      40 calls)
     v_of_rho     :      3.51s CPU      3.55s WALL (      41 calls)
     newd         :     21.54s CPU     36.46s WALL (      41 calls)
     mix_rho      :     21.28s CPU     21.45s WALL (      40 calls)

     Called by c_bands:
     init_us_2    :      4.67s CPU      4.75s WALL (    2075 calls)
     cegterg      :    469.12s CPU    488.73s WALL (    1000 calls)

     Called by sum_band:
     sum_band:bec :      0.29s CPU      0.29s WALL (    1000 calls)
     addusdens    :     23.26s CPU     40.21s WALL (      40 calls)

     Called by *egterg:
     h_psi        :    244.45s CPU    255.93s WALL (    3952 calls)
     s_psi        :     26.56s CPU     26.91s WALL (    3952 calls)
     g_psi        :      0.79s CPU      0.79s WALL (    2927 calls)
     cdiaghg      :    111.86s CPU    112.37s WALL (    3927 calls)

     Called by h_psi:
     h_psi:calbec :     29.01s CPU     30.41s WALL (    3952 calls)
     vloc_psi     :    186.38s CPU    189.64s WALL (    3952 calls)
     add_vuspsi   :     27.42s CPU     31.29s WALL (    3952 calls)

     General routines
     calbec       :     44.24s CPU     45.71s WALL (    5077 calls)
     fft          :      2.78s CPU      2.91s WALL (     556 calls)
     ffts         :     11.49s CPU     11.60s WALL (   18194 calls)
     fftw         :    214.28s CPU    217.90s WALL (  710128 calls)
     interpolate  :      0.21s CPU      0.23s WALL (      41 calls)
 
     Parallel routines
     fft_scatt_xy :     28.17s CPU     28.62s WALL (  728878 calls)
     fft_scatt_yz :    129.77s CPU    131.91s WALL (  728878 calls)
 
     PWSCF        :  11m16.56s CPU  12m12.13s WALL

 
   This run was terminated on:  18:18:43   5May2021            

=------------------------------------------------------------------------------=
   JOB DONE.
=------------------------------------------------------------------------------=
[1620253123.239972] [holy7c16303:57459:0]          mpool.c:43   UCX  WARN  object 0x2c37ec0 was not returned to mpool ucp_requests
[1620253123.242635] [holy7c16306:260398:0]          mpool.c:43   UCX  WARN  object 0x2a2a780 was not returned to mpool ucp_requests
[1620253123.242654] [holy7c16306:260398:0]          mpool.c:43   UCX  WARN  object 0x2a2acc0 was not returned to mpool ucp_requests
[1620253123.243018] [holy7c16211:176423:0]          mpool.c:43   UCX  WARN  object 0x465bd80 was not returned to mpool ucp_requests
[1620253123.243040] [holy7c16211:176423:0]          mpool.c:43   UCX  WARN  object 0x465bf40 was not returned to mpool ucp_requests
[1620253123.246371] [holy7c16307:229176:0]          mpool.c:43   UCX  WARN  object 0x2f9e600 was not returned to mpool ucp_requests
[1620253123.256779] [holy7c12101:104279:0]          mpool.c:43   UCX  WARN  object 0x3737640 was not returned to mpool ucp_requests
[1620253123.260371] [holy7c12101:104280:0]          mpool.c:43   UCX  WARN  object 0x42076c0 was not returned to mpool ucp_requests
[1620253123.242413] [holy7c16306:260399:0]          mpool.c:43   UCX  WARN  object 0x3d50000 was not returned to mpool ucp_requests
