
     Program PWSCF v.6.5 starts on  5May2021 at 17:23:47 

     This program is part of the open-source Quantum ESPRESSO suite
     for quantum simulation of materials; please cite
         "P. Giannozzi et al., J. Phys.:Condens. Matter 21 395502 (2009);
         "P. Giannozzi et al., J. Phys.:Condens. Matter 29 465901 (2017);
          URL http://www.quantum-espresso.org", 
     in publications or presentations arising from this work. More details at
     http://www.quantum-espresso.org/quote

     Parallel version (MPI), running on    20 processors

     MPI processes distributed on    13 nodes
     R & G space division:  proc/nbgrp/npool/nimage =      20
     Reading input from YBCO_Y_cleave_1.5_sep_scf.pwi
Warning: card &IONS ignored
Warning: card     ION_DYNAMICS = 'BFGS' ignored
Warning: card / ignored
Warning: card &CELL ignored
Warning: card     CELL_DYNAMICS = 'BFGS' ignored
Warning: card / ignored

     Current dimensions of program PWSCF are:
     Max number of different atomic species (ntypx) = 10
     Max number of k-points (npk) =  40000
     Max angular momentum in pseudopotentials (lmaxx) =  3

     Subspace diagonalization in iterative solution of the eigenvalue problem:
     one sub-group per band group will be used
     scalapack distributed-memory algorithm (size of sub-group:  4*  4 procs)

     Message from routine setup:
     using ibrav=0 with symmetry is DISCOURAGED, use correct ibrav instead
 
     Parallelization info
     --------------------
     sticks:   dense  smooth     PW     G-vecs:    dense   smooth      PW
     Min         150      50     14                73488    14136    2204
     Max         151      51     15                73529    14159    2251
     Sum        3015    1011    293              1470165   282891   44571
 


     bravais-lattice index     =            0
     lattice parameter (alat)  =       7.3477  a.u.
     unit-cell volume          =    4506.0642 (a.u.)^3
     number of atoms/cell      =           28
     number of atomic types    =            4
     number of electrons       =       229.00
     number of Kohn-Sham states=          138
     kinetic-energy cutoff     =      60.0000  Ry
     charge density cutoff     =     720.0000  Ry
     convergence threshold     =      1.0E-06
     mixing beta               =       0.2000
     number of iterations used =           10  local-TF  mixing
     Exchange-correlation= SLA PW PBE PBE
                           (   1   4   3   4   0   0   0)

     celldm(1)=   7.347715  celldm(2)=   0.000000  celldm(3)=   0.000000
     celldm(4)=   0.000000  celldm(5)=   0.000000  celldm(6)=   0.000000

     crystal axes: (cart. coord. in units of alat)
               a(1) = (   1.000000   0.000000   0.000000 )  
               a(2) = (   0.000000   0.975577   0.000000 )  
               a(3) = (   0.000000   0.000000  11.643372 )  

     reciprocal axes: (cart. coord. in units 2 pi/alat)
               b(1) = (  1.000000  0.000000  0.000000 )  
               b(2) = (  0.000000  1.025034  0.000000 )  
               b(3) = (  0.000000  0.000000  0.085886 )  


     PseudoPot. # 1 for Ba read from file:
     /n/holyscratch01/hoffman_lab/ruizhe/YBCO_Project/pseudo/Ba.pbe-nsp-van.UPF
     MD5 check sum: 2b9c31dd849566dd297d80989662b7a0
     Pseudo is Ultrasoft + core correction, Zval = 10.0
     Generated by new atomic code, or converted to UPF format
     Using radial grid of  907 points,  6 beta functions with: 
                l(1) =   0
                l(2) =   0
                l(3) =   1
                l(4) =   1
                l(5) =   2
                l(6) =   2
     Q(r) pseudized with  6 coefficients,  rinner =    1.200   1.200   1.200
                                                       1.200   1.200

     PseudoPot. # 2 for Cu read from file:
     /n/holyscratch01/hoffman_lab/ruizhe/YBCO_Project/pseudo/Cu.pbe-n-van_ak.UPF
     MD5 check sum: 34e3282627ffb533726feb647e090d62
     Pseudo is Ultrasoft + core correction, Zval = 11.0
     Generated by new atomic code, or converted to UPF format
     Using radial grid of  867 points,  6 beta functions with: 
                l(1) =   0
                l(2) =   0
                l(3) =   1
                l(4) =   1
                l(5) =   2
                l(6) =   2
     Q(r) pseudized with  8 coefficients,  rinner =    1.400   1.400   1.400
                                                       1.400   1.400

     PseudoPot. # 3 for O  read from file:
     /n/holyscratch01/hoffman_lab/ruizhe/YBCO_Project/pseudo/O.pbe-van_ak.UPF
     MD5 check sum: 783ce7fe4c79b6a4916957118fed0856
     Pseudo is Ultrasoft, Zval =  6.0
     Generated by new atomic code, or converted to UPF format
     Using radial grid of  737 points,  4 beta functions with: 
                l(1) =   0
                l(2) =   0
                l(3) =   1
                l(4) =   1
     Q(r) pseudized with  8 coefficients,  rinner =    0.800   0.800   0.800


     PseudoPot. # 4 for Y  read from file:
     /n/holyscratch01/hoffman_lab/ruizhe/YBCO_Project/pseudo/Y.pbe-nsp-van.UPF
     MD5 check sum: 4412fed3ab108fed87a1b7d6a69a4a38
     Pseudo is Ultrasoft + core correction, Zval = 11.0
     Generated by new atomic code, or converted to UPF format
     Using radial grid of  885 points,  6 beta functions with: 
                l(1) =   0
                l(2) =   0
                l(3) =   1
                l(4) =   1
                l(5) =   2
                l(6) =   2
     Q(r) pseudized with  6 coefficients,  rinner =    1.200   1.200   1.200
                                                       1.200   1.200

     atomic species   valence    mass     pseudopotential
        Ba            10.00   137.32700     Ba( 1.00)
        Cu            11.00    63.54600     Cu( 1.00)
        O              6.00    15.99900     O ( 1.00)
        Y             11.00    88.90584     Y ( 1.00)

      4 Sym. Ops. (no inversion) found



   Cartesian axes

     site n.     atom                  positions (alat units)
         1           O   tau(   1) = (   0.0000000   0.4877884  -0.0257983  )
         2           Cu  tau(   2) = (   0.0000000   0.0000000   0.0215779  )
         3           O   tau(   3) = (   0.0000000   0.0000000   0.5073114  )
         4           Ba  tau(   4) = (   0.4999996   0.4877884   0.5319677  )
         5           Cu  tau(   5) = (   0.0000000   0.0000000   1.0495845  )
         6           O   tau(   6) = (   0.4999996   0.0000000   1.1181579  )
         7           O   tau(   7) = (   0.0000000   0.4877884   1.1273137  )
         8           Y   tau(   8) = (   0.4999996   0.4877884   1.4938777  )
         9           O   tau(   9) = (   0.0000000   0.4877884   1.8497402  )
        10           O   tau(  10) = (   0.4999996   0.0000000   1.8692709  )
        11           Cu  tau(  11) = (   0.0000000   0.0000000   1.9417560  )
        12           Ba  tau(  12) = (   0.4999996   0.4877884   2.4526063  )
        13           O   tau(  13) = (   0.0000000   0.0000000   2.5103470  )
        14           O   tau(  14) = (   0.0000000   0.4877884   2.9968469  )
        15           Cu  tau(  15) = (   0.0000000   0.0000000   2.9968521  )
        16           O   tau(  16) = (   0.0000000   0.0000000   3.4833288  )
        17           Ba  tau(  17) = (   0.4999996   0.4877884   3.5410618  )
        18           Cu  tau(  18) = (   0.0000000   0.0000000   4.0519352  )
        19           O   tau(  19) = (   0.4999996   0.0000000   4.1244075  )
        20           O   tau(  20) = (   0.0000000   0.4877884   4.1439202  )
        21           Y   tau(  21) = (   0.4999996   0.4877884   4.4997853  )
        22           O   tau(  22) = (   0.0000000   0.4877884   5.2521276  )
        23           O   tau(  23) = (   0.4999996   0.0000000   5.2612962  )
        24           Cu  tau(  24) = (   0.0000000   0.0000000   5.3298748  )
        25           Ba  tau(  25) = (   0.4999996   0.4877884   5.8474761  )
        26           O   tau(  26) = (   0.0000000   0.0000000   5.8721325  )
        27           Cu  tau(  27) = (   0.0000000   0.0000000   6.3578377  )
        28           O   tau(  28) = (   0.0000000   0.4877884   6.4052190  )

     number of k points=    25  Gaussian smearing, width (Ry)=  0.0100
                       cart. coord. in units 2pi/alat
        k(    1) = (   0.0000000   0.0000000   0.0000000), wk =   0.0312500
        k(    2) = (   0.0000000   0.1281293   0.0000000), wk =   0.0625000
        k(    3) = (   0.0000000   0.2562585   0.0000000), wk =   0.0625000
        k(    4) = (   0.0000000   0.3843878   0.0000000), wk =   0.0625000
        k(    5) = (   0.0000000  -0.5125170   0.0000000), wk =   0.0312500
        k(    6) = (   0.1250000   0.0000000   0.0000000), wk =   0.0625000
        k(    7) = (   0.1250000   0.1281293   0.0000000), wk =   0.1250000
        k(    8) = (   0.1250000   0.2562585   0.0000000), wk =   0.1250000
        k(    9) = (   0.1250000   0.3843878   0.0000000), wk =   0.1250000
        k(   10) = (   0.1250000  -0.5125170   0.0000000), wk =   0.0625000
        k(   11) = (   0.2500000   0.0000000   0.0000000), wk =   0.0625000
        k(   12) = (   0.2500000   0.1281293   0.0000000), wk =   0.1250000
        k(   13) = (   0.2500000   0.2562585   0.0000000), wk =   0.1250000
        k(   14) = (   0.2500000   0.3843878   0.0000000), wk =   0.1250000
        k(   15) = (   0.2500000  -0.5125170   0.0000000), wk =   0.0625000
        k(   16) = (   0.3750000   0.0000000   0.0000000), wk =   0.0625000
        k(   17) = (   0.3750000   0.1281293   0.0000000), wk =   0.1250000
        k(   18) = (   0.3750000   0.2562585   0.0000000), wk =   0.1250000
        k(   19) = (   0.3750000   0.3843878   0.0000000), wk =   0.1250000
        k(   20) = (   0.3750000  -0.5125170   0.0000000), wk =   0.0625000
        k(   21) = (  -0.5000000   0.0000000   0.0000000), wk =   0.0312500
        k(   22) = (  -0.5000000   0.1281293   0.0000000), wk =   0.0625000
        k(   23) = (  -0.5000000   0.2562585   0.0000000), wk =   0.0625000
        k(   24) = (  -0.5000000   0.3843878   0.0000000), wk =   0.0625000
        k(   25) = (  -0.5000000  -0.5125170   0.0000000), wk =   0.0312500

     Dense  grid:  1470165 G-vectors     FFT dimensions: (  64,  64, 750)

     Smooth grid:   282891 G-vectors     FFT dimensions: (  40,  36, 432)

     Estimated max dynamical RAM per process >     469.69 MB

     Estimated total dynamical RAM >       9.17 GB

     Initial potential from superposition of free atoms

     starting charge  228.84827, renormalised to  229.00000

     negative rho (up, down):  8.967E-02 0.000E+00
     Starting wfcs are  201 randomized atomic wfcs

     total cpu time spent up to now is       10.5 secs

     Self-consistent Calculation

     iteration #  1     ecut=    60.00 Ry     beta= 0.20
     Davidson diagonalization with overlap
     ethr =  1.00E-02,  avg # of iterations =  2.0

     negative rho (up, down):  8.730E-02 0.000E+00

     total cpu time spent up to now is       28.1 secs

     total energy              =   -1869.44879146 Ry
     Harris-Foulkes estimate   =   -1871.01572348 Ry
     estimated scf accuracy    <      14.10038757 Ry

     iteration #  2     ecut=    60.00 Ry     beta= 0.20
     Davidson diagonalization with overlap
     ethr =  6.16E-03,  avg # of iterations =  1.0

     negative rho (up, down):  8.583E-02 0.000E+00

     total cpu time spent up to now is       44.5 secs

     total energy              =   -1868.91395481 Ry
     Harris-Foulkes estimate   =   -1869.79037969 Ry
     estimated scf accuracy    <       6.52776788 Ry

     iteration #  3     ecut=    60.00 Ry     beta= 0.20
     Davidson diagonalization with overlap
     ethr =  2.85E-03,  avg # of iterations =  1.0

     negative rho (up, down):  8.500E-02 0.000E+00

     total cpu time spent up to now is       60.6 secs

     total energy              =   -1868.59462566 Ry
     Harris-Foulkes estimate   =   -1869.12561017 Ry
     estimated scf accuracy    <       4.33623615 Ry

     iteration #  4     ecut=    60.00 Ry     beta= 0.20
     Davidson diagonalization with overlap
     ethr =  1.89E-03,  avg # of iterations =  1.2

     negative rho (up, down):  8.482E-02 0.000E+00

     total cpu time spent up to now is       76.5 secs

     total energy              =   -1868.84920766 Ry
     Harris-Foulkes estimate   =   -1868.83276377 Ry
     estimated scf accuracy    <       6.49650433 Ry

     iteration #  5     ecut=    60.00 Ry     beta= 0.20
     Davidson diagonalization with overlap
     ethr =  1.89E-03,  avg # of iterations =  1.0

     negative rho (up, down):  8.569E-02 0.000E+00

     total cpu time spent up to now is       93.3 secs

     total energy              =   -1868.48999623 Ry
     Harris-Foulkes estimate   =   -1868.86800034 Ry
     estimated scf accuracy    <       8.02888869 Ry

     iteration #  6     ecut=    60.00 Ry     beta= 0.20
     Davidson diagonalization with overlap
     ethr =  1.89E-03,  avg # of iterations =  1.0

     negative rho (up, down):  8.580E-02 0.000E+00

     total cpu time spent up to now is      109.8 secs

     total energy              =   -1868.47048058 Ry
     Harris-Foulkes estimate   =   -1868.74659406 Ry
     estimated scf accuracy    <       1.23785377 Ry

     iteration #  7     ecut=    60.00 Ry     beta= 0.20
     Davidson diagonalization with overlap
     ethr =  5.41E-04,  avg # of iterations =  6.0

     negative rho (up, down):  8.656E-02 0.000E+00

     total cpu time spent up to now is      132.7 secs

     total energy              =   -1868.62447091 Ry
     Harris-Foulkes estimate   =   -1868.63562921 Ry
     estimated scf accuracy    <       1.28959715 Ry

     iteration #  8     ecut=    60.00 Ry     beta= 0.20
     Davidson diagonalization with overlap
     ethr =  5.41E-04,  avg # of iterations =  1.3

     negative rho (up, down):  8.913E-02 0.000E+00

     total cpu time spent up to now is      148.9 secs

     total energy              =   -1868.48690732 Ry
     Harris-Foulkes estimate   =   -1868.65181665 Ry
     estimated scf accuracy    <       2.97001379 Ry

     iteration #  9     ecut=    60.00 Ry     beta= 0.20
     Davidson diagonalization with overlap
     ethr =  5.41E-04,  avg # of iterations =  3.8

     negative rho (up, down):  8.921E-02 0.000E+00

     total cpu time spent up to now is      168.7 secs

     total energy              =   -1868.57313861 Ry
     Harris-Foulkes estimate   =   -1868.57822696 Ry
     estimated scf accuracy    <       0.23351914 Ry

     iteration # 10     ecut=    60.00 Ry     beta= 0.20
     Davidson diagonalization with overlap
     ethr =  1.02E-04,  avg # of iterations =  6.2

     negative rho (up, down):  8.945E-02 0.000E+00

     total cpu time spent up to now is      192.0 secs

     total energy              =   -1868.56338172 Ry
     Harris-Foulkes estimate   =   -1868.58064933 Ry
     estimated scf accuracy    <       0.14312287 Ry

     iteration # 11     ecut=    60.00 Ry     beta= 0.20
     Davidson diagonalization with overlap
     ethr =  6.25E-05,  avg # of iterations =  2.2

     negative rho (up, down):  8.951E-02 0.000E+00

     total cpu time spent up to now is      209.7 secs

     total energy              =   -1868.56724732 Ry
     Harris-Foulkes estimate   =   -1868.56900133 Ry
     estimated scf accuracy    <       0.17446737 Ry

     iteration # 12     ecut=    60.00 Ry     beta= 0.20
     Davidson diagonalization with overlap
     ethr =  6.25E-05,  avg # of iterations =  1.0

     negative rho (up, down):  8.940E-02 0.000E+00

     total cpu time spent up to now is      225.9 secs

     total energy              =   -1868.55952874 Ry
     Harris-Foulkes estimate   =   -1868.56782985 Ry
     estimated scf accuracy    <       0.16282070 Ry

     iteration # 13     ecut=    60.00 Ry     beta= 0.20
     Davidson diagonalization with overlap
     ethr =  6.25E-05,  avg # of iterations =  1.3

     negative rho (up, down):  8.920E-02 0.000E+00

     total cpu time spent up to now is      242.2 secs

     total energy              =   -1868.55673575 Ry
     Harris-Foulkes estimate   =   -1868.56223481 Ry
     estimated scf accuracy    <       0.14791948 Ry

     iteration # 14     ecut=    60.00 Ry     beta= 0.20
     Davidson diagonalization with overlap
     ethr =  6.25E-05,  avg # of iterations =  2.2

     negative rho (up, down):  8.914E-02 0.000E+00

     total cpu time spent up to now is      259.7 secs

     total energy              =   -1868.55671882 Ry
     Harris-Foulkes estimate   =   -1868.55846902 Ry
     estimated scf accuracy    <       0.11130975 Ry

     iteration # 15     ecut=    60.00 Ry     beta= 0.20
     Davidson diagonalization with overlap
     ethr =  4.86E-05,  avg # of iterations =  1.9

     negative rho (up, down):  8.888E-02 0.000E+00

     total cpu time spent up to now is      276.5 secs

     total energy              =   -1868.55626130 Ry
     Harris-Foulkes estimate   =   -1868.55720267 Ry
     estimated scf accuracy    <       0.06133791 Ry

     iteration # 16     ecut=    60.00 Ry     beta= 0.20
     Davidson diagonalization with overlap
     ethr =  2.68E-05,  avg # of iterations =  3.5

     negative rho (up, down):  8.855E-02 0.000E+00

     total cpu time spent up to now is      295.8 secs

     total energy              =   -1868.55549662 Ry
     Harris-Foulkes estimate   =   -1868.55652531 Ry
     estimated scf accuracy    <       0.04517248 Ry

     iteration # 17     ecut=    60.00 Ry     beta= 0.20
     Davidson diagonalization with overlap
     ethr =  1.97E-05,  avg # of iterations =  1.7

     negative rho (up, down):  8.828E-02 0.000E+00

     total cpu time spent up to now is      312.8 secs

     total energy              =   -1868.55407492 Ry
     Harris-Foulkes estimate   =   -1868.55572448 Ry
     estimated scf accuracy    <       0.03213970 Ry

     iteration # 18     ecut=    60.00 Ry     beta= 0.20
     Davidson diagonalization with overlap
     ethr =  1.40E-05,  avg # of iterations =  6.0

     negative rho (up, down):  8.817E-02 0.000E+00

     total cpu time spent up to now is      335.0 secs

     total energy              =   -1868.55359983 Ry
     Harris-Foulkes estimate   =   -1868.55444905 Ry
     estimated scf accuracy    <       0.02116066 Ry

     iteration # 19     ecut=    60.00 Ry     beta= 0.20
     Davidson diagonalization with overlap
     ethr =  9.24E-06,  avg # of iterations =  3.2

     negative rho (up, down):  9.041E-02 0.000E+00

     total cpu time spent up to now is      354.0 secs

     total energy              =   -1868.55293560 Ry
     Harris-Foulkes estimate   =   -1868.55380738 Ry
     estimated scf accuracy    <       0.01433707 Ry

     iteration # 20     ecut=    60.00 Ry     beta= 0.20
     Davidson diagonalization with overlap
     ethr =  6.26E-06,  avg # of iterations =  3.2

     negative rho (up, down):  8.982E-02 0.000E+00

     total cpu time spent up to now is      373.0 secs

     total energy              =   -1868.55271505 Ry
     Harris-Foulkes estimate   =   -1868.55307071 Ry
     estimated scf accuracy    <       0.00764616 Ry

     iteration # 21     ecut=    60.00 Ry     beta= 0.20
     Davidson diagonalization with overlap
     c_bands:  1 eigenvalues not converged
     ethr =  3.34E-06,  avg # of iterations =  4.2

     negative rho (up, down):  9.759E-02 0.000E+00

     total cpu time spent up to now is      393.1 secs

     total energy              =   -1868.55147753 Ry
     Harris-Foulkes estimate   =   -1868.55274126 Ry
     estimated scf accuracy    <       0.00617997 Ry

     iteration # 22     ecut=    60.00 Ry     beta= 0.20
     Davidson diagonalization with overlap
     c_bands:  1 eigenvalues not converged
     c_bands:  1 eigenvalues not converged
     c_bands:  1 eigenvalues not converged
     ethr =  2.70E-06,  avg # of iterations = 11.4

     negative rho (up, down):  9.694E-02 0.000E+00

     total cpu time spent up to now is      423.9 secs

     total energy              =   -1868.55148004 Ry
     Harris-Foulkes estimate   =   -1868.55167556 Ry
     estimated scf accuracy    <       0.00361989 Ry

     iteration # 23     ecut=    60.00 Ry     beta= 0.20
     Davidson diagonalization with overlap
     ethr =  1.58E-06,  avg # of iterations =  3.0

     negative rho (up, down):  9.503E-02 0.000E+00

     total cpu time spent up to now is      442.3 secs

     total energy              =   -1868.55129575 Ry
     Harris-Foulkes estimate   =   -1868.55150432 Ry
     estimated scf accuracy    <       0.00168371 Ry

     iteration # 24     ecut=    60.00 Ry     beta= 0.20
     Davidson diagonalization with overlap
     c_bands:  1 eigenvalues not converged
     ethr =  7.35E-07,  avg # of iterations =  3.6

     negative rho (up, down):  9.236E-02 0.000E+00

     total cpu time spent up to now is      461.3 secs

     total energy              =   -1868.55107268 Ry
     Harris-Foulkes estimate   =   -1868.55131972 Ry
     estimated scf accuracy    <       0.00271672 Ry

     iteration # 25     ecut=    60.00 Ry     beta= 0.20
     Davidson diagonalization with overlap
     ethr =  7.35E-07,  avg # of iterations =  4.7

     negative rho (up, down):  9.004E-02 0.000E+00

     total cpu time spent up to now is      481.5 secs

     total energy              =   -1868.55106808 Ry
     Harris-Foulkes estimate   =   -1868.55110765 Ry
     estimated scf accuracy    <       0.00076726 Ry

     iteration # 26     ecut=    60.00 Ry     beta= 0.20
     Davidson diagonalization with overlap
     ethr =  3.35E-07,  avg # of iterations =  3.0

     negative rho (up, down):  9.033E-02 0.000E+00

     total cpu time spent up to now is      499.0 secs

     total energy              =   -1868.55106381 Ry
     Harris-Foulkes estimate   =   -1868.55108032 Ry
     estimated scf accuracy    <       0.00033722 Ry

     iteration # 27     ecut=    60.00 Ry     beta= 0.20
     Davidson diagonalization with overlap
     ethr =  1.47E-07,  avg # of iterations =  6.0

     negative rho (up, down):  8.991E-02 0.000E+00

     total cpu time spent up to now is      520.9 secs

     total energy              =   -1868.55108264 Ry
     Harris-Foulkes estimate   =   -1868.55108214 Ry
     estimated scf accuracy    <       0.00010613 Ry

     iteration # 28     ecut=    60.00 Ry     beta= 0.20
     Davidson diagonalization with overlap
     ethr =  4.63E-08,  avg # of iterations =  2.6

     negative rho (up, down):  8.969E-02 0.000E+00

     total cpu time spent up to now is      538.7 secs

     total energy              =   -1868.55110184 Ry
     Harris-Foulkes estimate   =   -1868.55108723 Ry
     estimated scf accuracy    <       0.00007684 Ry

     iteration # 29     ecut=    60.00 Ry     beta= 0.20
     Davidson diagonalization with overlap
     ethr =  3.36E-08,  avg # of iterations =  4.5

     negative rho (up, down):  9.007E-02 0.000E+00

     total cpu time spent up to now is      558.5 secs

     total energy              =   -1868.55110729 Ry
     Harris-Foulkes estimate   =   -1868.55110394 Ry
     estimated scf accuracy    <       0.00003364 Ry

     iteration # 30     ecut=    60.00 Ry     beta= 0.20
     Davidson diagonalization with overlap
     ethr =  1.47E-08,  avg # of iterations =  3.0

     negative rho (up, down):  8.992E-02 0.000E+00

     total cpu time spent up to now is      577.3 secs

     total energy              =   -1868.55110634 Ry
     Harris-Foulkes estimate   =   -1868.55110889 Ry
     estimated scf accuracy    <       0.00000791 Ry

     iteration # 31     ecut=    60.00 Ry     beta= 0.20
     Davidson diagonalization with overlap
     ethr =  3.45E-09,  avg # of iterations =  2.9

     negative rho (up, down):  8.999E-02 0.000E+00

     total cpu time spent up to now is      595.8 secs

     total energy              =   -1868.55110707 Ry
     Harris-Foulkes estimate   =   -1868.55110687 Ry
     estimated scf accuracy    <       0.00000639 Ry

     iteration # 32     ecut=    60.00 Ry     beta= 0.20
     Davidson diagonalization with overlap
     ethr =  2.79E-09,  avg # of iterations =  1.0

     negative rho (up, down):  8.987E-02 0.000E+00

     total cpu time spent up to now is      611.5 secs

     total energy              =   -1868.55110628 Ry
     Harris-Foulkes estimate   =   -1868.55110724 Ry
     estimated scf accuracy    <       0.00000354 Ry

     iteration # 33     ecut=    60.00 Ry     beta= 0.20
     Davidson diagonalization with overlap
     ethr =  1.55E-09,  avg # of iterations =  1.0

     negative rho (up, down):  8.982E-02 0.000E+00

     total cpu time spent up to now is      627.7 secs

     total energy              =   -1868.55110609 Ry
     Harris-Foulkes estimate   =   -1868.55110637 Ry
     estimated scf accuracy    <       0.00000275 Ry

     iteration # 34     ecut=    60.00 Ry     beta= 0.20
     Davidson diagonalization with overlap
     ethr =  1.20E-09,  avg # of iterations =  1.0

     negative rho (up, down):  8.981E-02 0.000E+00

     total cpu time spent up to now is      643.5 secs

     total energy              =   -1868.55110610 Ry
     Harris-Foulkes estimate   =   -1868.55110613 Ry
     estimated scf accuracy    <       0.00000253 Ry

     iteration # 35     ecut=    60.00 Ry     beta= 0.20
     Davidson diagonalization with overlap
     ethr =  1.11E-09,  avg # of iterations =  1.0

     negative rho (up, down):  8.981E-02 0.000E+00

     total cpu time spent up to now is      659.2 secs

     total energy              =   -1868.55110608 Ry
     Harris-Foulkes estimate   =   -1868.55110612 Ry
     estimated scf accuracy    <       0.00000188 Ry

     iteration # 36     ecut=    60.00 Ry     beta= 0.20
     Davidson diagonalization with overlap
     ethr =  8.22E-10,  avg # of iterations =  1.0

     negative rho (up, down):  8.975E-02 0.000E+00

     total cpu time spent up to now is      674.4 secs

     End of self-consistent calculation

          k = 0.0000 0.0000 0.0000 ( 35281 PWs)   bands (ev):

   -41.0280 -37.9487 -22.9673 -22.6036 -22.4652 -22.3757 -21.0675 -20.9280
   -20.9210 -18.4837 -17.9535 -17.9436 -16.1825 -15.2798 -15.2692 -14.4371
   -14.4121 -14.3196 -14.0888 -14.0656 -14.0652 -13.8037 -13.5869 -13.5654
   -13.5209 -13.3006 -13.1323  -8.2856  -7.8982  -7.8909  -7.8250  -7.7373
    -7.5961  -7.5693  -7.5128  -7.4192  -7.4003  -7.3948  -7.3640  -2.9514
    -2.9242  -2.4919  -1.9085  -1.8768  -1.8753  -1.7283  -1.6876  -1.6746
    -1.6209  -1.5540  -1.5435  -0.9174  -0.7958  -0.7224  -0.7008  -0.6555
    -0.4022  -0.3954  -0.3613  -0.2867  -0.2823  -0.2263  -0.1757   0.0649
     0.1023   0.1358   0.1391   0.1674   0.2009   0.2886   0.3035   0.3208
     0.3467   0.3983   0.4552   0.4621   0.5596   0.5686   0.5731   0.6259
     0.6570   0.6856   0.7039   0.7123   0.7171   0.7344   0.7801   0.8019
     0.8335   0.8430   0.9027   1.0771   1.2473   1.2726   1.4033   1.4588
     1.4589   1.5042   1.5372   1.5830   1.6158   1.6594   1.6750   1.8429
     2.0387   2.1024   2.1418   2.1576   2.1845   2.2180   2.2879   2.3559
     2.4383   2.5409   2.5763   2.6047   2.6673   2.7984   2.8427   3.2858
     5.1500   5.3577   5.4449   5.6676   5.8589   5.8655   6.1952   6.8526
     6.9532   6.9557   7.0135   7.0831   7.2416   7.6393   8.1277   8.3230
     8.3491   8.3578

          k = 0.0000 0.1281 0.0000 ( 35279 PWs)   bands (ev):

   -41.0262 -37.9464 -22.9466 -22.5820 -22.4444 -22.3538 -21.0700 -20.9570
   -20.9187 -18.4478 -18.0479 -17.9503 -16.1336 -15.2865 -15.1711 -14.3944
   -14.3667 -14.3273 -14.0979 -14.0666 -14.0346 -13.8500 -13.5923 -13.5801
   -13.5699 -13.3641 -13.1642  -8.2740  -7.9113  -7.8603  -7.8077  -7.7251
    -7.5888  -7.5549  -7.4954  -7.4204  -7.3844  -7.3803  -7.3527  -3.0450
    -2.9026  -2.4007  -2.0121  -2.0068  -1.8592  -1.8548  -1.7207  -1.6890
    -1.5571  -1.5481  -1.5280  -1.2509  -1.1887  -0.8066  -0.7971  -0.7749
    -0.7582  -0.6526  -0.5950  -0.5691  -0.5386  -0.3128  -0.2615  -0.2609
    -0.0496  -0.0323  -0.0078   0.0509   0.0694   0.0808   0.1573   0.2416
     0.3146   0.4223   0.4628   0.4666   0.4698   0.5838   0.5868   0.6148
     0.6563   0.6991   0.7173   0.7236   0.7792   0.7943   0.8066   0.8638
     1.0195   1.0395   1.0767   1.0872   1.2108   1.2204   1.3495   1.4082
     1.6141   1.6447   1.6525   1.7104   1.7348   1.7758   1.8586   1.8640
     1.9728   1.9954   2.0723   2.0813   2.1337   2.2114   2.2357   2.3509
     2.4108   2.6158   2.6501   2.6849   3.0696   3.1685   3.1853   3.4761
     5.2796   5.4943   5.7258   5.8196   5.9341   6.0594   6.3578   6.9069
     7.0062   7.1725   7.3422   7.3851   7.5576   7.9415   8.2886   8.3866
     8.4930   8.5808

          k = 0.0000 0.2563 0.0000 ( 35304 PWs)   bands (ev):

   -41.0220 -37.9408 -22.8957 -22.5290 -22.3932 -22.3000 -21.1152 -20.9852
   -20.9131 -18.3567 -18.2730 -17.9426 -16.0017 -15.3475 -14.9235 -14.4035
   -14.2970 -14.2826 -14.1546 -14.0425 -13.9683 -13.9168 -13.7206 -13.5695
   -13.5463 -13.5161 -13.2591  -8.2446  -7.9535  -7.7666  -7.7658  -7.6950
    -7.6299  -7.4643  -7.4527  -7.4516  -7.4278  -7.2832  -7.2471  -3.2929
    -2.7549  -2.4454  -2.3476  -2.2556  -2.1429  -1.9822  -1.8383  -1.8105
    -1.7224  -1.7178  -1.5676  -1.5541  -1.5292  -1.4803  -1.4751  -1.1655
    -1.0630  -0.8439  -0.7331  -0.7084  -0.6936  -0.6484  -0.5891  -0.4269
    -0.4150  -0.3131  -0.2279  -0.1774  -0.1459  -0.1363  -0.1176   0.0237
     0.1227   0.1372   0.2720   0.3124   0.3290   0.3928   0.4854   0.5158
     0.5936   0.7257   0.7529   0.7694   0.7747   0.8274   0.9423   0.9738
     1.2682   1.2947   1.2980   1.3575   1.4472   1.4544   1.5229   1.5523
     1.6819   1.7191   1.7278   1.7895   1.8040   1.8343   1.9079   1.9210
     1.9836   2.0065   2.0293   2.0657   2.1796   2.3150   2.4350   2.4525
     2.5296   2.6615   2.7008   2.8326   3.4570   3.5214   3.7691   3.9827
     5.3473   5.4528   5.7676   6.6434   6.7174   6.7719   6.9660   7.0593
     7.0899   8.0186   8.0730   8.1586   8.1958   8.3213   8.5229   8.6665
     8.9460   9.0093

          k = 0.0000 0.3844 0.0000 ( 35218 PWs)   bands (ev):

   -41.0178 -37.9352 -22.8435 -22.4745 -22.3407 -22.2446 -21.1950 -20.9755
   -20.9075 -18.4708 -18.2585 -17.9348 -15.8226 -15.4632 -14.6744 -14.5459
   -14.3427 -14.2628 -14.1504 -13.9404 -13.9205 -13.8713 -13.8497 -13.6636
   -13.5105 -13.4860 -13.4179  -8.2109  -7.9915  -7.7266  -7.6666  -7.6637
    -7.6604  -7.5048  -7.4638  -7.4087  -7.3426  -7.1810  -7.1354  -3.5275
    -2.9137  -2.7941  -2.5715  -2.5055  -2.4566  -2.3945  -2.2659  -2.1584
    -1.9167  -1.7462  -1.7205  -1.6965  -1.5660  -1.5115  -1.4560  -1.3805
    -1.3314  -1.1359  -1.0432  -0.8728  -0.7042  -0.6897  -0.6690  -0.6100
    -0.5770  -0.5648  -0.5521  -0.4187  -0.3857  -0.3055  -0.2534  -0.2046
    -0.1209  -0.1001   0.0682   0.1308   0.1810   0.2146   0.3043   0.6055
     0.7154   0.7208   0.7435   0.7475   0.7943   0.8505   1.1048   1.2010
     1.2114   1.3048   1.3820   1.4572   1.4678   1.5345   1.5618   1.6345
     1.6820   1.7554   1.7704   1.7755   1.8912   1.9264   2.0038   2.0505
     2.0930   2.1542   2.2895   2.2926   2.4036   2.4126   2.6064   2.6523
     2.7103   2.7952   2.8426   2.8632   3.4283   3.4914   4.1909   4.5116
     5.2322   5.3689   5.8798   7.1507   7.3174   7.4339   7.6052   7.7444
     7.8169   8.0461   8.3048   8.6745   8.8146   8.9971   9.0170   9.0563
     9.1782   9.2888

          k = 0.0000-0.5125 0.0000 ( 35346 PWs)   bands (ev):

   -41.0161 -37.9329 -22.8215 -22.4514 -22.3185 -22.2212 -21.2303 -20.9683
   -20.9051 -18.5468 -18.2153 -17.9316 -15.6615 -15.6001 -14.6266 -14.5430
   -14.3834 -14.3284 -14.0864 -13.9562 -13.9276 -13.8802 -13.7202 -13.6450
   -13.6235 -13.4793 -13.4533  -8.1944  -8.0078  -7.7105  -7.6746  -7.6442
    -7.6240  -7.5226  -7.4768  -7.3901  -7.2955  -7.1370  -7.0871  -3.6253
    -3.1479  -2.9437  -2.7062  -2.6802  -2.6264  -2.4488  -2.1790  -2.1615
    -2.1223  -1.9503  -1.7809  -1.7567  -1.6321  -1.4299  -1.4040  -1.3652
    -1.3102  -1.2484  -1.1614  -0.9338  -0.8573  -0.8220  -0.7127  -0.6988
    -0.6743  -0.5230  -0.4908  -0.4558  -0.4301  -0.3822  -0.3579  -0.3471
    -0.2080  -0.1913  -0.1444   0.0761   0.0772   0.1935   0.3145   0.6768
     0.7196   0.7208   0.7317   0.7404   0.8003   0.8567   1.1770   1.2860
     1.2868   1.2931   1.3005   1.3850   1.4956   1.5396   1.5592   1.7040
     1.7091   1.7183   1.7501   1.7577   1.9337   1.9615   2.0305   2.1620
     2.2052   2.2253   2.3091   2.4473   2.4667   2.6433   2.7062   2.7080
     2.7233   2.7361   3.0050   3.0227   3.2918   3.3610   4.4073   4.7179
     5.1507   5.3022   5.8882   7.1729   7.6058   7.8753   8.0035   8.0633
     8.0777   8.0985   8.1948   8.4534   8.9340   9.1012   9.3678   9.3751
     9.4175   9.5781

          k = 0.1250 0.0000 0.0000 ( 35280 PWs)   bands (ev):

   -41.0267 -37.9469 -22.9498 -22.5852 -22.4475 -22.3569 -21.0693 -20.9481
   -20.9263 -18.4513 -18.0537 -17.9411 -16.1338 -15.2853 -15.1642 -14.4654
   -14.3756 -14.3469 -14.1367 -14.1050 -14.0433 -13.8328 -13.5875 -13.5723
   -13.5648 -13.3313 -13.1648  -8.3071  -7.8779  -7.8597  -7.8338  -7.7421
    -7.5611  -7.5351  -7.5273  -7.3815  -7.3681  -7.3555  -7.3289  -3.0438
    -2.8800  -2.4085  -2.0016  -1.9411  -1.8259  -1.8185  -1.7158  -1.6712
    -1.6102  -1.5759  -1.5665  -1.0960  -0.8944  -0.7620  -0.7439  -0.6922
    -0.6475  -0.4976  -0.4061  -0.3126  -0.2812  -0.2768  -0.2387  -0.1231
     0.0173   0.0289   0.0558   0.0968   0.1207   0.1270   0.2425   0.3104
     0.3116   0.3567   0.4350   0.4587   0.5785   0.5865   0.6068   0.6473
     0.6832   0.6914   0.7042   0.7170   0.7335   0.7989   0.8280   0.8442
     0.8553   0.9096   0.9288   1.1281   1.1447   1.1960   1.3159   1.4176
     1.4217   1.4322   1.5481   1.6245   1.6567   1.7071   1.7955   1.8963
     1.9509   2.0164   2.1439   2.1518   2.1692   2.2476   2.3027   2.3836
     2.4641   2.5138   2.6259   2.6329   2.6602   2.8855   2.9410   3.4286
     5.3252   5.3512   5.6410   5.7739   5.7837   6.0438   6.3512   6.7507
     6.9882   7.0905   7.2510   7.2988   7.5663   7.9270   8.3296   8.3645
     8.4845   8.6893

          k = 0.1250 0.1281 0.0000 ( 35302 PWs)   bands (ev):

   -41.0249 -37.9446 -22.9298 -22.5644 -22.4273 -22.3358 -21.0707 -20.9653
   -20.9365 -18.4158 -18.0574 -18.0362 -16.0864 -15.2989 -15.0566 -14.4196
   -14.3445 -14.3372 -14.1332 -14.0913 -14.0155 -13.8864 -13.6153 -13.5868
   -13.5636 -13.3832 -13.1931  -8.2922  -8.0295  -7.8218  -7.7625  -7.7100
    -7.7058  -7.5402  -7.5358  -7.4753  -7.4112  -7.2460  -7.2072  -3.1700
    -2.8372  -2.3306  -2.1094  -2.0580  -1.8585  -1.8462  -1.7569  -1.7068
    -1.6577  -1.5529  -1.4877  -1.2329  -1.2076  -1.1229  -1.0713  -0.8007
    -0.7982  -0.7922  -0.6289  -0.6042  -0.4599  -0.4428  -0.3138  -0.2730
    -0.2117  -0.1583  -0.0766  -0.0431   0.0566   0.0868   0.1452   0.2429
     0.3322   0.3661   0.4350   0.4478   0.4610   0.5254   0.5382   0.6239
     0.6608   0.6730   0.6827   0.7316   0.7691   0.7761   0.8095   1.0187
     1.0334   1.0541   1.0984   1.1584   1.2186   1.3145   1.3760   1.4208
     1.4405   1.6286   1.6480   1.6641   1.7198   1.7423   1.8539   1.9850
     2.0147   2.0534   2.0785   2.0800   2.1126   2.1764   2.3146   2.3833
     2.4884   2.6600   2.8680   3.0933   3.0972   3.1821   3.1963   3.5508
     5.3838   5.5099   5.6216   5.9672   6.0465   6.2047   6.5072   6.8297
     6.9611   7.4010   7.5627   7.6005   7.8106   8.1395   8.2520   8.5857
     8.6458   8.7792

          k = 0.1250 0.2563 0.0000 ( 35346 PWs)   bands (ev):

   -41.0207 -37.9390 -22.8806 -22.5132 -22.3778 -22.2839 -21.1124 -20.9981
   -20.9293 -18.3259 -18.2685 -18.0380 -15.9588 -15.3499 -14.8114 -14.3886
   -14.2991 -14.2856 -14.1560 -14.0223 -13.9731 -13.9512 -13.7212 -13.5608
   -13.5381 -13.5123 -13.2776  -8.2574  -8.1400  -7.8326  -7.7669  -7.7346
    -7.6697  -7.6396  -7.6255  -7.4576  -7.3672  -7.2087  -7.1631  -3.4267
    -2.7473  -2.5437  -2.3544  -2.2356  -2.1013  -2.0000  -1.8582  -1.8206
    -1.7557  -1.7144  -1.6730  -1.6614  -1.5618  -1.5571  -1.4745  -1.4188
    -1.0830  -1.0102  -0.8169  -0.7921  -0.6544  -0.6416  -0.6221  -0.5431
    -0.4850  -0.4147  -0.3667  -0.1819  -0.1333  -0.1151  -0.0701  -0.0253
     0.1206   0.1267   0.2813   0.3596   0.3698   0.4120   0.5582   0.5724
     0.6442   0.6588   0.6694   0.7448   0.7925   0.8031   0.9530   1.0860
     1.1565   1.3784   1.4076   1.4532   1.4852   1.5012   1.5768   1.6096
     1.6295   1.6333   1.7805   1.8228   1.8767   1.8922   1.9091   1.9169
     1.9370   2.0406   2.0890   2.2819   2.3789   2.4051   2.4168   2.4319
     2.6042   2.8964   3.1377   3.2453   3.4617   3.5389   3.8035   3.9664
     5.3353   5.4321   5.8218   6.6648   6.7709   6.8255   6.9719   7.0222
     7.0702   8.0080   8.2262   8.2896   8.3741   8.4586   8.6033   8.7728
     8.9501   9.1454

          k = 0.1250 0.3844 0.0000 ( 35341 PWs)   bands (ev):

   -41.0165 -37.9334 -22.8301 -22.4607 -22.3271 -22.2307 -21.1918 -20.9930
   -20.9190 -18.4648 -18.2291 -18.0281 -15.7869 -15.4522 -14.5725 -14.5010
   -14.3141 -14.2338 -14.1447 -13.9800 -13.9179 -13.8421 -13.8339 -13.6445
   -13.5066 -13.4837 -13.4199  -8.2249  -8.1564  -7.8373  -7.7698  -7.7359
    -7.6662  -7.6431  -7.6369  -7.4196  -7.4151  -7.2540  -7.2103  -3.6737
    -2.9443  -2.8621  -2.6229  -2.6097  -2.4582  -2.3843  -2.2777  -2.1443
    -2.0112  -1.8925  -1.7781  -1.7211  -1.6143  -1.5976  -1.4568  -1.3858
    -1.2765  -1.0935  -1.0316  -0.9984  -0.9149  -0.8219  -0.7496  -0.6729
    -0.6475  -0.5025  -0.4838  -0.4765  -0.3200  -0.2994  -0.2699  -0.2612
    -0.1208  -0.1137   0.1755   0.2859   0.3543   0.3857   0.4279   0.6404
     0.6636   0.6799   0.7690   0.7905   0.8234   0.8320   1.0564   1.1937
     1.2554   1.3753   1.4329   1.4859   1.4956   1.6268   1.6797   1.6891
     1.7239   1.7439   1.8286   1.8419   1.9336   1.9975   2.0412   2.0643
     2.1814   2.2841   2.4208   2.4507   2.4884   2.6187   2.6466   2.8166
     2.8378   2.9216   3.1548   3.1864   3.4522   3.5113   4.1677   4.4829
     5.1872   5.4095   5.9593   7.0209   7.1023   7.4164   7.4942   7.6165
     7.7026   7.9475   8.3473   8.7759   8.8923   8.9778   9.0352   9.1795
     9.3063   9.3556

          k = 0.1250-0.5125 0.0000 ( 35328 PWs)   bands (ev):

   -41.0148 -37.9311 -22.8087 -22.4385 -22.3057 -22.2082 -21.2271 -20.9880
   -20.9143 -18.5404 -18.1866 -18.0240 -15.6331 -15.5793 -14.5858 -14.4255
   -14.3417 -14.2936 -14.0506 -13.9707 -13.9276 -13.8982 -13.6947 -13.6370
   -13.5997 -13.4780 -13.4543  -8.2106  -8.1382  -7.8120  -7.8082  -7.7221
    -7.6529  -7.6331  -7.6143  -7.4632  -7.4032  -7.2948  -7.2573  -3.7777
    -3.1442  -3.0511  -2.7643  -2.6754  -2.6206  -2.4722  -2.4122  -2.4064
    -2.0175  -1.9204  -1.7959  -1.7543  -1.5600  -1.5142  -1.4735  -1.3459
    -1.3203  -1.2472  -1.1955  -1.0867  -0.8883  -0.8540  -0.8063  -0.7235
    -0.7052  -0.6547  -0.5300  -0.4420  -0.3902  -0.3716  -0.3560  -0.3171
    -0.2108  -0.2020   0.1452   0.2512   0.2964   0.3626   0.3873   0.6420
     0.6700   0.7013   0.7850   0.7923   0.8723   0.8891   1.0934   1.2600
     1.2873   1.3754   1.3922   1.4937   1.5194   1.5989   1.6150   1.6772
     1.7125   1.7404   1.8565   1.8768   1.9040   2.0929   2.1618   2.1690
     2.2937   2.4380   2.4910   2.6817   2.6996   2.7059   2.7855   2.8857
     2.9840   3.0047   3.0544   3.0718   3.3475   3.3838   4.3099   4.7099
     5.2019   5.2855   5.9722   7.0691   7.1608   7.6688   7.7714   7.8543
     7.9994   8.1130   8.1836   8.5506   8.9553   9.2859   9.4506   9.4734
     9.5958   9.6566

          k = 0.2500 0.0000 0.0000 ( 35382 PWs)   bands (ev):

   -41.0235 -37.9425 -22.9071 -22.5400 -22.4040 -22.3109 -21.1018 -20.9832
   -20.9220 -18.3695 -18.2687 -17.9351 -16.0027 -15.3423 -14.8999 -14.5489
   -14.4536 -14.3627 -14.2475 -14.1127 -14.0062 -13.8673 -13.6975 -13.5818
   -13.5579 -13.3865 -13.2588  -8.3436  -7.8464  -7.8289  -7.7824  -7.7405
    -7.5367  -7.4911  -7.4497  -7.3180  -7.2881  -7.2869  -7.2413  -3.2356
    -2.7471  -2.3108  -2.2639  -2.2111  -1.8690  -1.8617  -1.7191  -1.6815
    -1.6088  -1.5752  -1.5300  -1.4817  -1.2313  -0.8912  -0.8780  -0.8102
    -0.7614  -0.7540  -0.5579  -0.5140  -0.5032  -0.3679  -0.2914  -0.2680
    -0.2635  -0.2444  -0.1829  -0.1492   0.0119   0.0300   0.0396   0.2630
     0.2895   0.3658   0.3923   0.4211   0.4504   0.5710   0.6241   0.6256
     0.6467   0.6819   0.6896   0.6933   0.8300   0.8430   0.8641   0.9293
     0.9529   0.9956   1.0102   1.1630   1.2442   1.2642   1.2904   1.3866
     1.4072   1.4765   1.5742   1.7189   1.7295   1.7658   1.8033   1.8324
     1.8380   1.9875   1.9962   2.0741   2.1313   2.1942   2.3062   2.3747
     2.4497   2.6666   2.6724   2.6738   2.7994   3.0229   3.1251   3.7615
     5.2428   5.5879   5.6520   6.0952   6.1543   6.4565   6.8366   6.8597
     7.0475   7.7189   7.8141   7.8854   8.1636   8.2839   8.4204   8.7593
     8.9444   9.1038

          k = 0.2500 0.1281 0.0000 ( 35364 PWs)   bands (ev):

   -41.0218 -37.9402 -22.8886 -22.5211 -22.3856 -22.2917 -21.0989 -20.9994
   -20.9371 -18.3354 -18.2629 -18.0351 -15.9597 -15.3459 -14.7950 -14.4953
   -14.4252 -14.3369 -14.2228 -14.0670 -13.9768 -13.9327 -13.7047 -13.5714
   -13.5471 -13.4151 -13.2770  -8.3371  -8.0636  -7.8521  -7.7741  -7.7360
    -7.6689  -7.5955  -7.5587  -7.4767  -7.3371  -7.1825  -7.1329  -3.3882
    -2.7421  -2.4472  -2.2680  -2.1804  -1.8994  -1.8569  -1.8011  -1.7612
    -1.7055  -1.6932  -1.5439  -1.5120  -1.4006  -1.2308  -1.1716  -0.9224
    -0.8306  -0.7975  -0.7906  -0.6769  -0.6584  -0.6372  -0.6251  -0.5263
    -0.4708  -0.2907  -0.1883  -0.1425  -0.1218  -0.0402   0.1366   0.1754
     0.3490   0.3747   0.3957   0.4145   0.4567   0.4763   0.5453   0.5875
     0.6254   0.6382   0.6629   0.7837   0.8906   0.8936   0.9235   0.9973
     1.0271   1.0317   1.1453   1.2217   1.4041   1.4462   1.4948   1.5027
     1.5389   1.5419   1.6101   1.7066   1.7261   1.7381   1.8617   1.8950
     1.9187   1.9431   1.9609   2.1385   2.2074   2.2856   2.4083   2.5134
     2.5527   2.9488   3.1547   3.1773   3.1909   3.2799   3.4042   3.7933
     5.2669   5.4692   5.7768   6.3375   6.3858   6.4912   6.8787   6.9656
     7.0109   7.9765   8.0633   8.0730   8.1529   8.4115   8.6144   8.8663
     8.9752   9.1306

          k = 0.2500 0.2563 0.0000 ( 35361 PWs)   bands (ev):

   -41.0176 -37.9347 -22.8434 -22.4746 -22.3402 -22.2447 -21.1112 -21.0577
   -20.9324 -18.2691 -18.2494 -18.2326 -15.8451 -15.3693 -14.5633 -14.3829
   -14.3361 -14.2832 -14.1729 -14.0770 -13.9404 -13.9096 -13.7284 -13.5390
   -13.5174 -13.4975 -13.3323  -8.3686  -8.2670  -8.0389  -7.8598  -7.8348
    -7.7914  -7.7848  -7.6767  -7.4720  -7.4343  -7.2779  -7.2320  -3.7301
    -2.8669  -2.7242  -2.4911  -2.2876  -2.1718  -2.1021  -1.9457  -1.9425
    -1.8746  -1.8153  -1.7907  -1.6986  -1.5749  -1.5701  -1.4829  -1.4154
    -1.3070  -1.2067  -1.1962  -1.0371  -0.7800  -0.6718  -0.6251  -0.5481
    -0.5381  -0.4387  -0.4007  -0.2979  -0.2214  -0.1515  -0.0244   0.0053
     0.0942   0.1035   0.1403   0.2238   0.3484   0.5086   0.6098   0.7058
     0.7343   0.7567   0.8522   0.8968   0.9437   0.9535   1.0276   1.0808
     1.4087   1.4340   1.4774   1.4913   1.5625   1.5714   1.5891   1.6634
     1.6804   1.7662   1.7761   1.8404   1.8962   1.9423   2.0098   2.0125
     2.0286   2.1575   2.2289   2.3265   2.3745   2.4191   2.4600   2.5421
     3.0562   3.4301   3.4859   3.5588   3.7478   3.8715   3.9212   3.9462
     5.1297   5.4825   6.0318   6.5795   6.8508   6.8941   6.9303   6.9478
     7.3253   7.8041   8.5007   8.6045   8.6331   8.8169   8.9722   9.0400
     9.1641   9.3281

          k = 0.2500 0.3844 0.0000 ( 35403 PWs)   bands (ev):

   -41.0134 -37.9291 -22.7971 -22.4270 -22.2939 -22.1966 -21.1842 -21.0634
   -20.9167 -18.4504 -18.2331 -18.1539 -15.6951 -15.4338 -14.4390 -14.3107
   -14.2453 -14.1532 -14.1367 -14.1292 -13.8637 -13.7839 -13.7657 -13.5978
   -13.4954 -13.4822 -13.4249  -8.4561  -8.2690  -8.1455  -8.0193  -7.9446
    -7.9409  -7.7637  -7.6840  -7.6710  -7.4954  -7.4759  -7.4414  -4.0563
    -3.2810  -2.8777  -2.7726  -2.7338  -2.5798  -2.5134  -2.3579  -2.3039
    -1.9689  -1.9158  -1.8473  -1.7973  -1.7358  -1.6764  -1.6698  -1.4478
    -1.4434  -1.3869  -1.2125  -1.1137  -0.9063  -0.7512  -0.7372  -0.6561
    -0.6307  -0.5416  -0.4261  -0.3899  -0.3203  -0.2974  -0.1644  -0.1547
    -0.1344  -0.1170   0.0951   0.1941   0.3906   0.5137   0.6482   0.8019
     0.8397   0.9122   0.9510   0.9834   1.0285   1.1140   1.2307   1.2433
     1.4753   1.4919   1.5299   1.5565   1.6962   1.7781   1.7831   1.8782
     1.9060   1.9378   1.9734   1.9780   2.0017   2.0120   2.0798   2.1519
     2.2451   2.3254   2.4456   2.4649   2.5976   2.7505   2.7572   2.8046
     3.2996   3.3589   3.4218   3.8365   3.9130   4.0165   4.2404   4.4807
     5.0969   5.4453   6.1568   6.3951   6.9189   7.0180   7.1425   7.3141
     7.4728   8.0898   8.6213   8.8740   8.9615   9.0457   9.3889   9.4666
     9.5093   9.6328

          k = 0.2500-0.5125 0.0000 ( 35406 PWs)   bands (ev):

   -41.0117 -37.9268 -22.7776 -22.4069 -22.2744 -22.1763 -21.2194 -21.0605
   -20.9095 -18.5248 -18.2273 -18.1132 -15.5629 -15.5321 -14.4823 -14.2351
   -14.2073 -14.1640 -14.1139 -13.9598 -13.9044 -13.8580 -13.6310 -13.6205
   -13.5433 -13.4745 -13.4546  -8.4447  -8.2615  -8.1443  -8.1301  -7.9574
    -7.9315  -7.8305  -7.7498  -7.6829  -7.6277  -7.6214  -7.4329  -4.1898
    -3.4444  -3.0966  -2.9530  -2.7843  -2.7061  -2.6279  -2.5968  -2.5297
    -1.9633  -1.9144  -1.8343  -1.7907  -1.7902  -1.7582  -1.6650  -1.5605
    -1.4163  -1.3940  -1.2166  -1.1346  -1.0341  -0.7872  -0.7482  -0.6960
    -0.6725  -0.5197  -0.5091  -0.4180  -0.3261  -0.2938  -0.2369  -0.2094
    -0.1842  -0.1804   0.0803   0.1870   0.4267   0.5196   0.6667   0.8302
     0.8562   0.9188   1.0122   1.0545   1.1002   1.1721   1.3173   1.3632
     1.4974   1.5222   1.5824   1.6223   1.7088   1.7562   1.7780   1.8467
     1.8578   1.9575   2.0201   2.0402   2.0565   2.1325   2.1856   2.2038
     2.2678   2.4139   2.6301   2.6943   2.7001   2.9291   2.9320   2.9767
     3.2006   3.2678   3.3571   3.8881   3.9047   4.0705   4.3087   4.7203
     5.2385   5.2449   6.1904   6.2693   6.9178   6.9685   7.0934   7.2487
     8.2200   8.2417   8.4105   8.8544   9.0453   9.4962   9.4967   9.6681
     9.7281   9.7286

          k = 0.3750 0.0000 0.0000 ( 35398 PWs)   bands (ev):

   -41.0203 -37.9382 -22.8633 -22.4937 -22.3596 -22.2636 -21.1675 -20.9823
   -20.9177 -18.4579 -18.2807 -17.9290 -15.8282 -15.4494 -14.6652 -14.6493
   -14.5636 -14.4695 -14.3627 -14.0138 -13.9546 -13.8597 -13.8133 -13.5702
   -13.5458 -13.4196 -13.4013  -8.3651  -7.8464  -7.7809  -7.7356  -7.7019
    -7.5312  -7.4318  -7.3604  -7.2797  -7.2340  -7.2046  -7.1493  -3.4253
    -2.6310  -2.5299  -2.4811  -2.1579  -2.1538  -1.9023  -1.7879  -1.7219
    -1.7050  -1.5879  -1.5211  -1.4534  -1.4532  -1.1927  -0.9873  -0.8615
    -0.8113  -0.7764  -0.7553  -0.7430  -0.6967  -0.6347  -0.5425  -0.4132
    -0.4066  -0.3675  -0.2525  -0.2495  -0.1883  -0.0279  -0.0115   0.0060
     0.0811   0.1996   0.2744   0.3486   0.5531   0.6154   0.6525   0.6578
     0.6647   0.6760   0.6799   0.8410   0.8717   0.9024   0.9241   0.9736
     0.9763   1.0317   1.0735   1.0897   1.1454   1.2106   1.3199   1.4849
     1.5358   1.5626   1.6550   1.6745   1.7366   1.8220   1.8478   1.8587
     1.9362   1.9972   2.0428   2.0988   2.1047   2.1664   2.1761   2.4335
     2.4545   2.6480   2.6922   2.7142   2.8399   3.1293   3.1715   4.1498
     5.0550   5.4326   5.7661   6.7314   6.7778   6.8219   7.0887   7.3234
     7.4417   8.2328   8.2399   8.2673   8.4031   8.6238   8.6816   8.9991
     9.1514   9.3132

          k = 0.3750 0.1281 0.0000 ( 35342 PWs)   bands (ev):

   -41.0186 -37.9359 -22.8465 -22.4767 -22.3428 -22.2465 -21.1636 -21.0025
   -20.9293 -18.4506 -18.2478 -18.0273 -15.7918 -15.4404 -14.6074 -14.5760
   -14.4814 -14.4242 -14.3194 -13.9795 -13.9269 -13.9121 -13.7907 -13.5538
   -13.5292 -13.4302 -13.4053  -8.3613  -8.0021  -7.8471  -7.7668  -7.7269
    -7.6785  -7.5551  -7.5071  -7.4521  -7.3931  -7.2441  -7.1899  -3.5949
    -2.7787  -2.6284  -2.5362  -2.1846  -2.1658  -2.0363  -1.8731  -1.8199
    -1.7231  -1.7175  -1.6013  -1.4841  -1.3524  -1.2613  -1.1223  -1.0956
    -1.0496  -1.0161  -0.8121  -0.8031  -0.7930  -0.7312  -0.6970  -0.6225
    -0.5417  -0.4451  -0.3863  -0.3197  -0.3059  -0.0840   0.0913   0.1418
     0.2537   0.2663   0.3498   0.3613   0.4128   0.4550   0.5753   0.6120
     0.6139   0.6902   0.7827   0.8446   0.9702   0.9756   1.0055   1.0818
     1.0898   1.0951   1.1447   1.2994   1.3586   1.3677   1.4326   1.5427
     1.5754   1.6430   1.6671   1.7268   1.8015   1.8155   1.8404   1.8808
     1.9708   1.9891   2.0156   2.1103   2.1823   2.2411   2.4835   2.6112
     2.6965   3.0607   3.1718   3.1926   3.2051   3.4288   3.4405   4.1470
     5.0266   5.3887   5.8834   6.6706   6.8562   6.9146   7.0366   7.3399
     7.5314   7.8925   8.3082   8.3752   8.5667   8.8628   8.9643   9.0256
     9.1173   9.3504

          k = 0.3750 0.2563 0.0000 ( 35387 PWs)   bands (ev):

   -41.0144 -37.9304 -22.8055 -22.4351 -22.3019 -22.2047 -21.1547 -21.0840
   -20.9216 -18.4331 -18.2425 -18.1646 -15.6979 -15.4273 -14.4808 -14.3979
   -14.3078 -14.2958 -14.1810 -14.0930 -13.8962 -13.8024 -13.7391 -13.5162
   -13.4955 -13.4744 -13.4194  -8.4242  -8.2992  -8.0879  -8.0008  -7.8984
    -7.8840  -7.8035  -7.7091  -7.6618  -7.4970  -7.4884  -7.4627  -4.0248
    -3.2184  -2.7671  -2.7038  -2.6413  -2.3515  -2.1195  -2.0066  -1.9060
    -1.8742  -1.7994  -1.7921  -1.7514  -1.6742  -1.6487  -1.5764  -1.5564
    -1.4314  -1.4142  -1.1171  -1.0603  -0.8607  -0.6364  -0.6169  -0.5853
    -0.5178  -0.4418  -0.3767  -0.3285  -0.3106  -0.2405  -0.0893  -0.0482
     0.0121   0.0191   0.1576   0.2191   0.4111   0.6139   0.6995   0.7743
     0.8650   0.9102   1.0024   1.0584   1.1104   1.1250   1.2087   1.2577
     1.3607   1.4671   1.5192   1.5340   1.6270   1.6275   1.6664   1.7130
     1.7961   1.8566   1.8770   1.8788   1.9158   1.9946   2.0010   2.0593
     2.0854   2.2165   2.2345   2.2545   2.3560   2.4050   2.4640   2.7609
     3.4236   3.4321   3.4811   3.8316   3.9508   4.0544   4.1087   4.3117
     4.9675   5.4013   6.1149   6.2634   6.8308   6.9135   6.9406   7.3013
     7.4198   7.9943   8.5491   8.6399   8.9640   9.1351   9.2816   9.3286
     9.3440   9.4383

          k = 0.3750 0.3844 0.0000 ( 35453 PWs)   bands (ev):

   -41.0103 -37.9249 -22.7636 -22.3927 -22.2602 -22.1620 -21.1766 -21.1413
   -20.9042 -18.4372 -18.4127 -18.0752 -15.5840 -15.4376 -14.3674 -14.2568
   -14.1780 -14.1771 -14.1330 -13.9919 -13.8208 -13.7246 -13.6750 -13.5479
   -13.4825 -13.4822 -13.4388  -8.6647  -8.3544  -8.3204  -8.3116  -8.1536
    -8.1524  -7.9906  -7.7951  -7.7937  -7.7903  -7.7071  -7.4735  -4.4397
    -3.6707  -3.1294  -2.9357  -2.7740  -2.7072  -2.7067  -2.3302  -2.3059
    -2.1041  -2.0729  -1.9924  -1.8707  -1.8373  -1.6858  -1.6711  -1.6461
    -1.5667  -1.4958  -1.1656  -1.1295  -0.9255  -0.7246  -0.6806  -0.5803
    -0.5626  -0.5552  -0.4687  -0.3886  -0.3149  -0.2831  -0.2293  -0.2098
    -0.1867   0.0303   0.2108   0.2492   0.5052   0.7141   0.7613   0.9124
     1.0632   1.0920   1.1807   1.1979   1.2871   1.3461   1.3814   1.5763
     1.6178   1.6303   1.7133   1.7347   1.8206   1.8388   1.9077   1.9186
     1.9764   2.0158   2.0658   2.1014   2.1221   2.1492   2.2109   2.2241
     2.2869   2.4014   2.4739   2.5049   2.6240   2.6718   2.6947   3.0706
     3.3501   3.3946   3.8420   3.9684   4.4833   4.5365   4.6001   4.7684
     5.0297   5.3824   5.7236   6.1868   6.4659   6.6072   7.0088   7.0791
     7.7731   8.3121   8.8705   9.0004   9.1376   9.2221   9.3020   9.3500
     9.5148   9.6403

          k = 0.3750-0.5125 0.0000 ( 35450 PWs)   bands (ev):

   -41.0086 -37.9226 -22.7460 -22.3749 -22.2427 -22.1440 -21.2117 -21.1388
   -20.8964 -18.5093 -18.4074 -18.0361 -15.4902 -15.4894 -14.3700 -14.2720
   -14.1184 -14.1181 -13.9227 -13.9026 -13.8597 -13.7901 -13.6094 -13.5632
   -13.4898 -13.4709 -13.4507  -8.7431  -8.4605  -8.4334  -8.3097  -8.2516
    -8.2323  -8.1458  -7.9491  -7.9228  -7.7874  -7.7029  -7.4671  -4.6047
    -3.8517  -3.2971  -3.0283  -3.0198  -2.8849  -2.7015  -2.5683  -2.5439
    -2.2128  -2.1206  -2.0060  -1.8658  -1.8643  -1.6813  -1.6529  -1.6406
    -1.5986  -1.5414  -1.2749  -1.1278  -0.9360  -0.7592  -0.6848  -0.6279
    -0.6108  -0.6072  -0.5102  -0.4223  -0.3933  -0.2986  -0.2979  -0.2689
    -0.1887   0.1548   0.2447   0.2721   0.5351   0.7652   0.7840   0.9424
     1.1211   1.1805   1.1932   1.3062   1.3871   1.3981   1.4651   1.6372
     1.6664   1.7436   1.8353   1.8791   1.9049   1.9224   1.9820   1.9867
     2.0031   2.0736   2.0846   2.1246   2.2062   2.2291   2.2330   2.3888
     2.4101   2.4870   2.6476   2.7132   2.7247   2.8682   2.8870   3.1795
     3.2254   3.2265   3.8425   4.0905   4.6343   4.7065   4.7639   4.9313
     5.2062   5.2146   5.5290   6.1832   6.2681   6.3976   6.9221   7.1512
     8.3072   8.4185   8.5806   9.1155   9.1580   9.3203   9.3849   9.4971
     9.6219   9.6317

          k =-0.5000 0.0000 0.0000 ( 35346 PWs)   bands (ev):

   -41.0190 -37.9363 -22.8448 -22.4742 -22.3408 -22.2437 -21.1981 -20.9778
   -20.9160 -18.5300 -18.2423 -17.9265 -15.6976 -15.5541 -14.7211 -14.6590
   -14.5245 -14.4701 -14.4253 -14.0464 -13.8537 -13.8478 -13.8327 -13.5644
   -13.5354 -13.5105 -13.4281  -8.3708  -7.8456  -7.7510  -7.7422  -7.6676
    -7.5264  -7.4091  -7.3221  -7.2691  -7.2148  -7.1689  -7.1099  -3.5068
    -2.7544  -2.5952  -2.3306  -2.2887  -2.1239  -1.9955  -1.9333  -1.8147
    -1.7645  -1.5582  -1.4875  -1.4820  -1.2963  -1.2330  -1.0305  -1.0076
    -0.9150  -0.9112  -0.8729  -0.6859  -0.6684  -0.6646  -0.6155  -0.5025
    -0.4683  -0.4591  -0.3099  -0.2520  -0.2466  -0.2431  -0.0178   0.0146
     0.0359   0.0964   0.2703   0.3062   0.6015   0.6339   0.6544   0.6634
     0.6705   0.6738   0.6743   0.8650   0.8847   0.9172   0.9679   0.9873
     1.0005   1.0049   1.0073   1.1116   1.1743   1.2146   1.4566   1.4764
     1.5049   1.6076   1.6291   1.6409   1.7557   1.7735   1.8179   1.8733
     2.0508   2.0875   2.0975   2.1030   2.1634   2.1766   2.2186   2.4103
     2.4357   2.5874   2.7060   2.7169   2.8346   3.1425   3.1581   4.4506
     4.8302   5.3742   5.7560   6.9688   7.1031   7.4750   7.5868   7.5921
     7.6080   7.7550   7.8805   7.9272   8.2221   8.8603   8.9932   9.1805
     9.3844   9.4134

          k =-0.5000 0.1281 0.0000 ( 35340 PWs)   bands (ev):

   -41.0173 -37.9341 -22.8288 -22.4580 -22.3249 -22.2275 -21.1941 -20.9998
   -20.9256 -18.5223 -18.2100 -18.0240 -15.6660 -15.5377 -14.6638 -14.5966
   -14.4692 -14.3840 -14.3541 -14.0119 -13.9144 -13.8207 -13.7961 -13.5461
   -13.5193 -13.5040 -13.4325  -8.3656  -7.8722  -7.8696  -7.8413  -7.7484
    -7.5442  -7.5334  -7.5257  -7.3926  -7.3730  -7.3506  -7.3206  -3.6832
    -2.9075  -2.6586  -2.5246  -2.3516  -2.3229  -2.0026  -1.8995  -1.8341
    -1.7595  -1.7114  -1.4699  -1.3957  -1.3596  -1.3399  -1.2773  -1.2062
    -1.0578  -1.0424  -0.8923  -0.8022  -0.7906  -0.7525  -0.6933  -0.5671
    -0.5670  -0.5596  -0.4208  -0.4023  -0.4019  -0.0991   0.0431   0.1326
     0.2283   0.2361   0.2776   0.3367   0.3653   0.4429   0.5914   0.6084
     0.6182   0.6982   0.8287   0.8741   0.9640   0.9892   1.0993   1.1012
     1.1669   1.1679   1.2189   1.2778   1.2946   1.3065   1.4926   1.5562
     1.6054   1.6427   1.6614   1.6765   1.7657   1.7735   1.7879   1.8851
     2.0336   2.0590   2.1241   2.1696   2.2053   2.2271   2.4569   2.7248
     2.7385   3.0819   3.1365   3.1944   3.1983   3.3987   3.4557   4.3991
     4.8344   5.3575   5.8565   6.7085   7.0451   7.3049   7.4081   7.7117
     7.8665   7.9056   7.9346   8.0126   8.0408   9.1935   9.2245   9.2720
     9.3191   9.5605

          k =-0.5000 0.2563 0.0000 ( 35398 PWs)   bands (ev):

   -41.0131 -37.9286 -22.7896 -22.4186 -22.2858 -22.1878 -21.1846 -21.0833
   -20.9161 -18.5035 -18.2381 -18.1284 -15.5880 -15.5017 -14.5285 -14.4122
   -14.3234 -14.2754 -14.0973 -14.0765 -13.9285 -13.7413 -13.7079 -13.5065
   -13.4889 -13.4855 -13.4623  -8.3831  -8.2855  -8.1693  -8.0101  -7.8555
    -7.8479  -7.8096  -7.8011  -7.7082  -7.6758  -7.6621  -7.4944  -4.1465
    -3.3600  -2.9023  -2.7713  -2.6815  -2.4880  -2.0933  -2.0217  -1.9031
    -1.8563  -1.8317  -1.7873  -1.7873  -1.7866  -1.6415  -1.5780  -1.5557
    -1.5027  -1.4354  -1.1086  -1.0393  -0.9795  -0.6138  -0.5419  -0.5048
    -0.4866  -0.4146  -0.4057  -0.3982  -0.3351  -0.2301  -0.1231  -0.0551
    -0.0300  -0.0121   0.1536   0.2186   0.4498   0.6174   0.7999   0.8052
     0.8959   1.0058   1.0162   1.1467   1.1673   1.2067   1.2261   1.3249
     1.4162   1.5040   1.5785   1.6163   1.6812   1.6894   1.7051   1.7206
     1.7395   1.7632   1.7821   1.8873   1.9593   1.9706   2.1311   2.1387
     2.1786   2.1820   2.2225   2.2496   2.2861   2.3522   2.4160   2.9084
     3.4262   3.4716   3.5358   3.8022   4.0607   4.1109   4.2011   4.4802
     4.8926   5.3282   6.0871   6.1076   6.7889   6.8880   6.9347   7.2197
     8.1543   8.2725   8.3167   8.6464   8.6982   9.2611   9.2633   9.4767
     9.4769   9.5283

          k =-0.5000 0.3844 0.0000 ( 35518 PWs)   bands (ev):

   -41.0090 -37.9231 -22.7496 -22.3784 -22.2461 -22.1475 -21.1750 -21.1721
   -20.8984 -18.4848 -18.4290 -18.0408 -15.5073 -15.4707 -14.3936 -14.2484
   -14.1557 -14.1511 -14.1329 -13.8582 -13.8492 -13.6974 -13.6288 -13.5247
   -13.4769 -13.4747 -13.4589  -8.7175  -8.4616  -8.4037  -8.3304  -8.2220
    -8.2002  -8.1493  -7.9549  -7.9388  -7.8055  -7.7145  -7.4858  -4.5943
    -3.8311  -3.2696  -3.0276  -2.8282  -2.7587  -2.7140  -2.3184  -2.3006
    -2.2146  -2.1378  -2.0202  -1.8917  -1.8624  -1.6849  -1.6591  -1.6540
    -1.6018  -1.5351  -1.2666  -1.1070  -0.8371  -0.7801  -0.6833  -0.5530
    -0.5307  -0.5156  -0.4609  -0.4046  -0.3711  -0.3239  -0.2504  -0.2182
    -0.1922   0.1668   0.2650   0.2899   0.5356   0.7528   0.8751   0.9559
     1.1355   1.1623   1.2420   1.3499   1.3780   1.4417   1.5558   1.5876
     1.6556   1.6769   1.7816   1.8725   1.8761   1.8932   1.9428   1.9704
     2.0372   2.0533   2.0979   2.1243   2.1478   2.1565   2.2126   2.2447
     2.3831   2.4776   2.5054   2.5311   2.5612   2.6338   2.6557   3.2074
     3.3462   3.3795   3.8605   4.1323   4.5694   4.7283   4.8044   4.9644
     5.0315   5.2857   5.4694   6.1187   6.2272   6.3998   6.9047   7.1638
     8.3800   8.4721   8.5347   8.9760   9.0886   9.1219   9.3835   9.4774
     9.4804   9.6152

          k =-0.5000-0.5125 0.0000 ( 35476 PWs)   bands (ev):

   -41.0073 -37.9208 -22.7328 -22.3615 -22.2294 -22.1305 -21.2085 -21.1710
   -20.8904 -18.5028 -18.4770 -18.0025 -15.4730 -15.4593 -14.3376 -14.3204
   -14.0805 -14.0662 -13.9109 -13.8206 -13.8126 -13.7654 -13.6069 -13.5334
   -13.4691 -13.4691 -13.4474  -8.8654  -8.5816  -8.5557  -8.3714  -8.3533
    -8.3269  -8.2668  -8.0717  -8.0419  -7.8034  -7.7114  -7.4817  -4.7706
    -4.0205  -3.4379  -3.1105  -3.0084  -3.0027  -2.7135  -2.5561  -2.5385
    -2.3455  -2.1656  -2.0438  -1.9326  -1.8560  -1.6731  -1.6503  -1.6388
    -1.6132  -1.5934  -1.3666  -1.0962  -0.8533  -0.7672  -0.7531  -0.6170
    -0.6036  -0.5707  -0.4917  -0.4310  -0.4134  -0.3684  -0.3337  -0.3145
    -0.1468   0.3081   0.3234   0.3411   0.5630   0.8182   0.9142   1.0114
     1.1641   1.1991   1.2507   1.4209   1.5497   1.5807   1.6361   1.6853
     1.7365   1.7421   1.7708   1.9510   1.9903   2.0050   2.0186   2.0311
     2.1084   2.1556   2.2047   2.2158   2.2303   2.2806   2.3262   2.3828
     2.4383   2.6274   2.7239   2.7331   2.7505   2.8409   2.8585   3.1714
     3.2036   3.3558   3.8258   4.3344   4.7039   4.9450   5.0310   5.0724
     5.1910   5.2424   5.2426   5.9775   6.1113   6.1189   6.8069   7.4344
     8.3210   8.5258   8.5802   8.9132   8.9430   9.3429   9.3594   9.3750
     9.4786   9.6861

     the Fermi energy is     3.1386 ev

!    total energy              =   -1868.55110556 Ry
     Harris-Foulkes estimate   =   -1868.55110611 Ry
     estimated scf accuracy    <       0.00000097 Ry

     The total energy is the sum of the following terms:

     one-electron contribution =  -31114.29571617 Ry
     hartree contribution      =   15710.97382989 Ry
     xc contribution           =    -641.94348148 Ry
     ewald contribution        =   14176.72327667 Ry
     smearing contrib. (-TS)   =      -0.00901448 Ry

     convergence has been achieved in  36 iterations

     negative rho (up, down):  8.975E-02 0.000E+00

     Forces acting on atoms (cartesian axes, Ry/au):

     atom    1 type  3   force =     0.00000000    0.00000000   -0.00002976
     atom    2 type  2   force =     0.00000000    0.00000000   -0.00028565
     atom    3 type  3   force =     0.00000000    0.00000000    0.00001488
     atom    4 type  1   force =     0.00000000    0.00000000   -0.00006525
     atom    5 type  2   force =     0.00000000    0.00000000   -0.00025546
     atom    6 type  3   force =     0.00000000    0.00000000    0.00039061
     atom    7 type  3   force =     0.00000000    0.00000000    0.00016228
     atom    8 type  4   force =     0.00000000    0.00000000   -0.00043599
     atom    9 type  3   force =     0.00000000    0.00000000    0.00073187
     atom   10 type  3   force =     0.00000000    0.00000000    0.00105397
     atom   11 type  2   force =     0.00000000    0.00000000   -0.00242232
     atom   12 type  1   force =     0.00000000    0.00000000   -0.00179868
     atom   13 type  3   force =     0.00000000    0.00000000    0.00248656
     atom   14 type  3   force =     0.00000000    0.00000000    0.00656623
     atom   15 type  2   force =     0.00000000    0.00000000   -0.01299114
     atom   16 type  3   force =     0.00000000    0.00000000    0.02224497
     atom   17 type  1   force =     0.00000000    0.00000000   -0.02604724
     atom   18 type  2   force =     0.00000000    0.00000000    0.00193253
     atom   19 type  3   force =     0.00000000    0.00000000    0.07939015
     atom   20 type  3   force =     0.00000000    0.00000000    0.07850820
     atom   21 type  4   force =     0.00000000    0.00000000   -0.04931244
     atom   22 type  3   force =     0.00000000    0.00000000   -0.02450170
     atom   23 type  3   force =     0.00000000    0.00000000   -0.02061309
     atom   24 type  2   force =     0.00000000    0.00000000   -0.02738815
     atom   25 type  1   force =     0.00000000    0.00000000   -0.02823179
     atom   26 type  3   force =     0.00000000    0.00000000   -0.00032356
     atom   27 type  2   force =     0.00000000    0.00000000   -0.00134935
     atom   28 type  3   force =     0.00000000    0.00000000    0.00256934

     Total force =     0.137424     Total SCF correction =     0.004858


     Computing stress (Cartesian axis) and pressure


     negative rho (up, down):  8.975E-02 0.000E+00
          total   stress  (Ry/bohr**3)                   (kbar)     P=      -11.89
  -0.00001828   0.00000000   0.00000000           -2.69        0.00        0.00
   0.00000000   0.00000504   0.00000000            0.00        0.74        0.00
   0.00000000   0.00000000  -0.00022931            0.00        0.00      -33.73

 
     init_run     :      9.22s CPU      9.79s WALL (       1 calls)
     electrons    :    621.29s CPU    663.90s WALL (       1 calls)
     forces       :      4.30s CPU      4.70s WALL (       1 calls)
     stress       :     45.55s CPU     46.62s WALL (       1 calls)

     Called by init_run:
     wfcinit      :      6.61s CPU      6.75s WALL (       1 calls)
     potinit      :      0.63s CPU      0.65s WALL (       1 calls)
     hinit0       :      0.94s CPU      0.96s WALL (       1 calls)

     Called by electrons:
     c_bands      :    475.86s CPU    492.43s WALL (      36 calls)
     sum_band     :     92.01s CPU    106.28s WALL (      36 calls)
     v_of_rho     :      3.71s CPU      3.76s WALL (      37 calls)
     newd         :     25.81s CPU     37.61s WALL (      37 calls)
     mix_rho      :     24.14s CPU     24.35s WALL (      36 calls)

     Called by c_bands:
     init_us_2    :      3.69s CPU      3.75s WALL (    1875 calls)
     cegterg      :    448.15s CPU    464.05s WALL (     900 calls)

     Called by sum_band:
     sum_band:bec :      0.25s CPU      0.25s WALL (     900 calls)
     addusdens    :     19.20s CPU     32.63s WALL (      36 calls)

     Called by *egterg:
     h_psi        :    216.37s CPU    225.79s WALL (    3541 calls)
     s_psi        :     21.73s CPU     22.05s WALL (    3541 calls)
     g_psi        :      0.66s CPU      0.67s WALL (    2616 calls)
     cdiaghg      :     99.85s CPU    100.32s WALL (    3516 calls)

     Called by h_psi:
     h_psi:calbec :     27.66s CPU     28.83s WALL (    3541 calls)
     vloc_psi     :    164.85s CPU    167.67s WALL (    3541 calls)
     add_vuspsi   :     22.78s CPU     25.90s WALL (    3541 calls)

     General routines
     calbec       :     69.67s CPU     70.99s WALL (    4566 calls)
     fft          :      3.63s CPU      3.66s WALL (     504 calls)
     ffts         :     11.38s CPU     11.49s WALL (   17384 calls)
     fftw         :    191.01s CPU    194.20s WALL (  639274 calls)
     interpolate  :      0.23s CPU      0.24s WALL (      37 calls)
 
     Parallel routines
     fft_scatt_xy :     23.17s CPU     23.53s WALL (  657162 calls)
     fft_scatt_yz :    122.49s CPU    124.46s WALL (  657162 calls)
 
     PWSCF        :  11m21.08s CPU  12m 5.77s WALL

 
   This run was terminated on:  17:35:52   5May2021            

=------------------------------------------------------------------------------=
   JOB DONE.
=------------------------------------------------------------------------------=
[1620250552.957015] [holy7c06503:231218:0]          mpool.c:43   UCX  WARN  object 0x40d9740 was not returned to mpool ucp_requests
[1620250552.960236] [holy7c06606:258253:0]          mpool.c:43   UCX  WARN  object 0x38d3d00 was not returned to mpool ucp_requests
[1620250552.961979] [holy7c06609:135645:0]          mpool.c:43   UCX  WARN  object 0x2ec0980 was not returned to mpool ucp_requests
[1620250552.961601] [holy7c06509:61706:0]          mpool.c:43   UCX  WARN  object 0x298dd40 was not returned to mpool ucp_requests
[1620250552.961625] [holy7c06509:61706:0]          mpool.c:43   UCX  WARN  object 0x298e0c0 was not returned to mpool ucp_requests
[1620250552.972740] [holy7c06511:45106:0]          mpool.c:43   UCX  WARN  object 0x3884000 was not returned to mpool ucp_requests
[1620250552.963884] [holy7c06503:231217:0]          mpool.c:43   UCX  WARN  object 0x342d140 was not returned to mpool ucp_requests
[1620250552.960688] [holy7c06609:135644:0]          mpool.c:43   UCX  WARN  object 0x43a5b80 was not returned to mpool ucp_requests
[1620250552.962621] [holy7c06609:135643:0]          mpool.c:43   UCX  WARN  object 0x2c80040 was not returned to mpool ucp_requests
[1620250552.962641] [holy7c06609:135643:0]          mpool.c:43   UCX  WARN  object 0x2c80740 was not returned to mpool ucp_requests
