
     Program PWSCF v.6.5 starts on  5May2021 at 17:56:41 

     This program is part of the open-source Quantum ESPRESSO suite
     for quantum simulation of materials; please cite
         "P. Giannozzi et al., J. Phys.:Condens. Matter 21 395502 (2009);
         "P. Giannozzi et al., J. Phys.:Condens. Matter 29 465901 (2017);
          URL http://www.quantum-espresso.org", 
     in publications or presentations arising from this work. More details at
     http://www.quantum-espresso.org/quote

     Parallel version (MPI), running on    20 processors

     MPI processes distributed on    15 nodes
     R & G space division:  proc/nbgrp/npool/nimage =      20
     Reading input from YBCO_BaO_cleave_7.0_sep_scf.pwi
Warning: card &IONS ignored
Warning: card     ION_DYNAMICS = 'BFGS' ignored
Warning: card / ignored
Warning: card &CELL ignored
Warning: card     CELL_DYNAMICS = 'BFGS' ignored
Warning: card / ignored

     Current dimensions of program PWSCF are:
     Max number of different atomic species (ntypx) = 10
     Max number of k-points (npk) =  40000
     Max angular momentum in pseudopotentials (lmaxx) =  3

     Subspace diagonalization in iterative solution of the eigenvalue problem:
     one sub-group per band group will be used
     scalapack distributed-memory algorithm (size of sub-group:  4*  4 procs)

     Message from routine setup:
     using ibrav=0 with symmetry is DISCOURAGED, use correct ibrav instead
 
     Parallelization info
     --------------------
     sticks:   dense  smooth     PW     G-vecs:    dense   smooth      PW
     Min         150      50     14                82424    15851    2472
     Max         151      51     15                82467    15877    2527
     Sum        3015    1011    293              1648933   317199   49999
 


     bravais-lattice index     =            0
     lattice parameter (alat)  =       7.3477  a.u.
     unit-cell volume          =    5053.4933 (a.u.)^3
     number of atoms/cell      =           28
     number of atomic types    =            4
     number of electrons       =       229.00
     number of Kohn-Sham states=          138
     kinetic-energy cutoff     =      60.0000  Ry
     charge density cutoff     =     720.0000  Ry
     convergence threshold     =      1.0E-06
     mixing beta               =       0.2000
     number of iterations used =           10  local-TF  mixing
     Exchange-correlation= SLA PW PBE PBE
                           (   1   4   3   4   0   0   0)

     celldm(1)=   7.347715  celldm(2)=   0.000000  celldm(3)=   0.000000
     celldm(4)=   0.000000  celldm(5)=   0.000000  celldm(6)=   0.000000

     crystal axes: (cart. coord. in units of alat)
               a(1) = (   1.000000   0.000000   0.000000 )  
               a(2) = (   0.000000   0.975577   0.000000 )  
               a(3) = (   0.000000   0.000000  13.057892 )  

     reciprocal axes: (cart. coord. in units 2 pi/alat)
               b(1) = (  1.000000  0.000000  0.000000 )  
               b(2) = (  0.000000  1.025034  0.000000 )  
               b(3) = (  0.000000  0.000000  0.076582 )  


     PseudoPot. # 1 for Ba read from file:
     /n/holyscratch01/hoffman_lab/ruizhe/YBCO_Project/pseudo/Ba.pbe-nsp-van.UPF
     MD5 check sum: 2b9c31dd849566dd297d80989662b7a0
     Pseudo is Ultrasoft + core correction, Zval = 10.0
     Generated by new atomic code, or converted to UPF format
     Using radial grid of  907 points,  6 beta functions with: 
                l(1) =   0
                l(2) =   0
                l(3) =   1
                l(4) =   1
                l(5) =   2
                l(6) =   2
     Q(r) pseudized with  6 coefficients,  rinner =    1.200   1.200   1.200
                                                       1.200   1.200

     PseudoPot. # 2 for Cu read from file:
     /n/holyscratch01/hoffman_lab/ruizhe/YBCO_Project/pseudo/Cu.pbe-n-van_ak.UPF
     MD5 check sum: 34e3282627ffb533726feb647e090d62
     Pseudo is Ultrasoft + core correction, Zval = 11.0
     Generated by new atomic code, or converted to UPF format
     Using radial grid of  867 points,  6 beta functions with: 
                l(1) =   0
                l(2) =   0
                l(3) =   1
                l(4) =   1
                l(5) =   2
                l(6) =   2
     Q(r) pseudized with  8 coefficients,  rinner =    1.400   1.400   1.400
                                                       1.400   1.400

     PseudoPot. # 3 for O  read from file:
     /n/holyscratch01/hoffman_lab/ruizhe/YBCO_Project/pseudo/O.pbe-van_ak.UPF
     MD5 check sum: 783ce7fe4c79b6a4916957118fed0856
     Pseudo is Ultrasoft, Zval =  6.0
     Generated by new atomic code, or converted to UPF format
     Using radial grid of  737 points,  4 beta functions with: 
                l(1) =   0
                l(2) =   0
                l(3) =   1
                l(4) =   1
     Q(r) pseudized with  8 coefficients,  rinner =    0.800   0.800   0.800


     PseudoPot. # 4 for Y  read from file:
     /n/holyscratch01/hoffman_lab/ruizhe/YBCO_Project/pseudo/Y.pbe-nsp-van.UPF
     MD5 check sum: 4412fed3ab108fed87a1b7d6a69a4a38
     Pseudo is Ultrasoft + core correction, Zval = 11.0
     Generated by new atomic code, or converted to UPF format
     Using radial grid of  885 points,  6 beta functions with: 
                l(1) =   0
                l(2) =   0
                l(3) =   1
                l(4) =   1
                l(5) =   2
                l(6) =   2
     Q(r) pseudized with  6 coefficients,  rinner =    1.200   1.200   1.200
                                                       1.200   1.200

     atomic species   valence    mass     pseudopotential
        Ba            10.00   137.32700     Ba( 1.00)
        Cu            11.00    63.54600     Cu( 1.00)
        O              6.00    15.99900     O ( 1.00)
        Y             11.00    88.90584     Y ( 1.00)

      4 Sym. Ops. (no inversion) found



   Cartesian axes

     site n.     atom                  positions (alat units)
         1           O   tau(   1) = (   0.0000000   0.4877884  -0.0257983  )
         2           Cu  tau(   2) = (   0.0000000   0.0000000   0.0215779  )
         3           O   tau(   3) = (   0.0000000   0.0000000   0.5073114  )
         4           Ba  tau(   4) = (   0.4999996   0.4877884   0.5319677  )
         5           Cu  tau(   5) = (   0.0000000   0.0000000   1.0495845  )
         6           O   tau(   6) = (   0.4999996   0.0000000   1.1181579  )
         7           O   tau(   7) = (   0.0000000   0.4877884   1.1273137  )
         8           Y   tau(   8) = (   0.4999996   0.4877884   1.4938777  )
         9           O   tau(   9) = (   0.0000000   0.4877884   1.8497402  )
        10           O   tau(  10) = (   0.4999996   0.0000000   1.8692709  )
        11           Cu  tau(  11) = (   0.0000000   0.0000000   1.9417560  )
        12           Ba  tau(  12) = (   0.4999996   0.4877884   2.4526063  )
        13           O   tau(  13) = (   0.0000000   0.0000000   2.5103470  )
        14           O   tau(  14) = (   0.0000000   0.4877884   2.9968469  )
        15           Cu  tau(  15) = (   0.0000000   0.0000000   2.9968521  )
        16           O   tau(  16) = (   0.0000000   0.0000000   3.4833288  )
        17           Ba  tau(  17) = (   0.4999996   0.4877884   3.5410618  )
        18           Cu  tau(  18) = (   0.0000000   0.0000000   5.8522340  )
        19           O   tau(  19) = (   0.4999996   0.0000000   5.9247064  )
        20           O   tau(  20) = (   0.0000000   0.4877884   5.9442190  )
        21           Y   tau(  21) = (   0.4999996   0.4877884   6.3000841  )
        22           O   tau(  22) = (   0.0000000   0.4877884   6.6666481  )
        23           O   tau(  23) = (   0.4999996   0.0000000   6.6758168  )
        24           Cu  tau(  24) = (   0.0000000   0.0000000   6.7443953  )
        25           Ba  tau(  25) = (   0.4999996   0.4877884   7.2619966  )
        26           O   tau(  26) = (   0.0000000   0.0000000   7.2866530  )
        27           Cu  tau(  27) = (   0.0000000   0.0000000   7.7723582  )
        28           O   tau(  28) = (   0.0000000   0.4877884   7.8197395  )

     number of k points=    25  Gaussian smearing, width (Ry)=  0.0100
                       cart. coord. in units 2pi/alat
        k(    1) = (   0.0000000   0.0000000   0.0000000), wk =   0.0312500
        k(    2) = (   0.0000000   0.1281293   0.0000000), wk =   0.0625000
        k(    3) = (   0.0000000   0.2562585   0.0000000), wk =   0.0625000
        k(    4) = (   0.0000000   0.3843878   0.0000000), wk =   0.0625000
        k(    5) = (   0.0000000  -0.5125170   0.0000000), wk =   0.0312500
        k(    6) = (   0.1250000   0.0000000   0.0000000), wk =   0.0625000
        k(    7) = (   0.1250000   0.1281293   0.0000000), wk =   0.1250000
        k(    8) = (   0.1250000   0.2562585   0.0000000), wk =   0.1250000
        k(    9) = (   0.1250000   0.3843878   0.0000000), wk =   0.1250000
        k(   10) = (   0.1250000  -0.5125170   0.0000000), wk =   0.0625000
        k(   11) = (   0.2500000   0.0000000   0.0000000), wk =   0.0625000
        k(   12) = (   0.2500000   0.1281293   0.0000000), wk =   0.1250000
        k(   13) = (   0.2500000   0.2562585   0.0000000), wk =   0.1250000
        k(   14) = (   0.2500000   0.3843878   0.0000000), wk =   0.1250000
        k(   15) = (   0.2500000  -0.5125170   0.0000000), wk =   0.0625000
        k(   16) = (   0.3750000   0.0000000   0.0000000), wk =   0.0625000
        k(   17) = (   0.3750000   0.1281293   0.0000000), wk =   0.1250000
        k(   18) = (   0.3750000   0.2562585   0.0000000), wk =   0.1250000
        k(   19) = (   0.3750000   0.3843878   0.0000000), wk =   0.1250000
        k(   20) = (   0.3750000  -0.5125170   0.0000000), wk =   0.0625000
        k(   21) = (  -0.5000000   0.0000000   0.0000000), wk =   0.0312500
        k(   22) = (  -0.5000000   0.1281293   0.0000000), wk =   0.0625000
        k(   23) = (  -0.5000000   0.2562585   0.0000000), wk =   0.0625000
        k(   24) = (  -0.5000000   0.3843878   0.0000000), wk =   0.0625000
        k(   25) = (  -0.5000000  -0.5125170   0.0000000), wk =   0.0312500

     Dense  grid:  1648933 G-vectors     FFT dimensions: (  64,  64, 864)

     Smooth grid:   317199 G-vectors     FFT dimensions: (  40,  36, 480)

     Estimated max dynamical RAM per process >     526.04 MB

     Estimated total dynamical RAM >      10.27 GB

     Initial potential from superposition of free atoms

     starting charge  228.84827, renormalised to  229.00000

     negative rho (up, down):  8.939E-02 0.000E+00
     Starting wfcs are  201 randomized atomic wfcs

     total cpu time spent up to now is       12.2 secs

     Self-consistent Calculation

     iteration #  1     ecut=    60.00 Ry     beta= 0.20
     Davidson diagonalization with overlap
     ethr =  1.00E-02,  avg # of iterations =  2.0

     negative rho (up, down):  8.729E-02 0.000E+00

     total cpu time spent up to now is       31.5 secs

     total energy              =   -1869.56864912 Ry
     Harris-Foulkes estimate   =   -1871.20438326 Ry
     estimated scf accuracy    <      17.54385449 Ry

     iteration #  2     ecut=    60.00 Ry     beta= 0.20
     Davidson diagonalization with overlap
     ethr =  7.66E-03,  avg # of iterations =  1.0

     negative rho (up, down):  8.627E-02 0.000E+00

     total cpu time spent up to now is       49.1 secs

     total energy              =   -1869.23682727 Ry
     Harris-Foulkes estimate   =   -1869.95834921 Ry
     estimated scf accuracy    <       6.19385590 Ry

     iteration #  3     ecut=    60.00 Ry     beta= 0.20
     Davidson diagonalization with overlap
     ethr =  2.70E-03,  avg # of iterations =  1.0

     negative rho (up, down):  8.576E-02 0.000E+00

     total cpu time spent up to now is       66.2 secs

     total energy              =   -1868.69640024 Ry
     Harris-Foulkes estimate   =   -1869.39803099 Ry
     estimated scf accuracy    <       4.50068666 Ry

     iteration #  4     ecut=    60.00 Ry     beta= 0.20
     Davidson diagonalization with overlap
     ethr =  1.97E-03,  avg # of iterations =  1.5

     negative rho (up, down):  8.571E-02 0.000E+00

     total cpu time spent up to now is       84.2 secs

     total energy              =   -1868.97705190 Ry
     Harris-Foulkes estimate   =   -1868.99086141 Ry
     estimated scf accuracy    <       2.91420399 Ry

     iteration #  5     ecut=    60.00 Ry     beta= 0.20
     Davidson diagonalization with overlap
     ethr =  1.27E-03,  avg # of iterations =  1.0

     negative rho (up, down):  8.656E-02 0.000E+00

     total cpu time spent up to now is      101.2 secs

     total energy              =   -1868.87306828 Ry
     Harris-Foulkes estimate   =   -1869.00046425 Ry
     estimated scf accuracy    <       2.51615941 Ry

     iteration #  6     ecut=    60.00 Ry     beta= 0.20
     Davidson diagonalization with overlap
     ethr =  1.10E-03,  avg # of iterations =  1.0

     negative rho (up, down):  8.740E-02 0.000E+00

     total cpu time spent up to now is      118.7 secs

     total energy              =   -1868.84862761 Ry
     Harris-Foulkes estimate   =   -1868.91021834 Ry
     estimated scf accuracy    <       1.55242820 Ry

     iteration #  7     ecut=    60.00 Ry     beta= 0.20
     Davidson diagonalization with overlap
     ethr =  6.78E-04,  avg # of iterations =  1.0

     negative rho (up, down):  8.876E-02 0.000E+00

     total cpu time spent up to now is      136.0 secs

     total energy              =   -1868.81484611 Ry
     Harris-Foulkes estimate   =   -1868.87652903 Ry
     estimated scf accuracy    <       1.06966176 Ry

     iteration #  8     ecut=    60.00 Ry     beta= 0.20
     Davidson diagonalization with overlap
     ethr =  4.67E-04,  avg # of iterations =  3.0

     negative rho (up, down):  8.907E-02 0.000E+00

     total cpu time spent up to now is      155.6 secs

     total energy              =   -1868.82367313 Ry
     Harris-Foulkes estimate   =   -1868.83539692 Ry
     estimated scf accuracy    <       0.41679035 Ry

     iteration #  9     ecut=    60.00 Ry     beta= 0.20
     Davidson diagonalization with overlap
     ethr =  1.82E-04,  avg # of iterations =  6.1

     negative rho (up, down):  9.033E-02 0.000E+00

     total cpu time spent up to now is      180.2 secs

     total energy              =   -1868.80034576 Ry
     Harris-Foulkes estimate   =   -1868.82743980 Ry
     estimated scf accuracy    <       0.37034428 Ry

     iteration # 10     ecut=    60.00 Ry     beta= 0.20
     Davidson diagonalization with overlap
     ethr =  1.62E-04,  avg # of iterations =  3.4

     negative rho (up, down):  9.070E-02 0.000E+00

     total cpu time spent up to now is      199.9 secs

     total energy              =   -1868.79743603 Ry
     Harris-Foulkes estimate   =   -1868.80822194 Ry
     estimated scf accuracy    <       0.28081125 Ry

     iteration # 11     ecut=    60.00 Ry     beta= 0.20
     Davidson diagonalization with overlap
     ethr =  1.23E-04,  avg # of iterations =  4.5

     negative rho (up, down):  9.066E-02 0.000E+00

     total cpu time spent up to now is      218.9 secs

     total energy              =   -1868.79244047 Ry
     Harris-Foulkes estimate   =   -1868.79925733 Ry
     estimated scf accuracy    <       0.23920321 Ry

     iteration # 12     ecut=    60.00 Ry     beta= 0.20
     Davidson diagonalization with overlap
     ethr =  1.04E-04,  avg # of iterations =  2.4

     negative rho (up, down):  9.321E-02 0.000E+00

     total cpu time spent up to now is      236.8 secs

     total energy              =   -1868.77056232 Ry
     Harris-Foulkes estimate   =   -1868.79328253 Ry
     estimated scf accuracy    <       0.15220662 Ry

     iteration # 13     ecut=    60.00 Ry     beta= 0.20
     Davidson diagonalization with overlap
     ethr =  6.65E-05,  avg # of iterations =  7.6

     negative rho (up, down):  9.750E-02 0.000E+00

     total cpu time spent up to now is      263.4 secs

     total energy              =   -1868.76862855 Ry
     Harris-Foulkes estimate   =   -1868.77738965 Ry
     estimated scf accuracy    <       0.09666977 Ry

     iteration # 14     ecut=    60.00 Ry     beta= 0.20
     Davidson diagonalization with overlap
     ethr =  4.22E-05,  avg # of iterations =  2.5

     negative rho (up, down):  1.163E-01 0.000E+00

     total cpu time spent up to now is      281.6 secs

     total energy              =   -1868.76776669 Ry
     Harris-Foulkes estimate   =   -1868.77104828 Ry
     estimated scf accuracy    <       0.06928535 Ry

     iteration # 15     ecut=    60.00 Ry     beta= 0.20
     Davidson diagonalization with overlap
     ethr =  3.03E-05,  avg # of iterations =  7.7

     negative rho (up, down):  1.062E-01 0.000E+00

     total cpu time spent up to now is      308.2 secs

     total energy              =   -1868.76852096 Ry
     Harris-Foulkes estimate   =   -1868.77001416 Ry
     estimated scf accuracy    <       0.02478518 Ry

     iteration # 16     ecut=    60.00 Ry     beta= 0.20
     Davidson diagonalization with overlap
     ethr =  1.08E-05,  avg # of iterations =  2.9

     negative rho (up, down):  1.029E-01 0.000E+00

     total cpu time spent up to now is      327.3 secs

     total energy              =   -1868.76837525 Ry
     Harris-Foulkes estimate   =   -1868.76911566 Ry
     estimated scf accuracy    <       0.01537890 Ry

     iteration # 17     ecut=    60.00 Ry     beta= 0.20
     Davidson diagonalization with overlap
     ethr =  6.72E-06,  avg # of iterations =  7.2

     negative rho (up, down):  1.020E-01 0.000E+00

     total cpu time spent up to now is      352.8 secs

     total energy              =   -1868.76808376 Ry
     Harris-Foulkes estimate   =   -1868.76869641 Ry
     estimated scf accuracy    <       0.00705919 Ry

     iteration # 18     ecut=    60.00 Ry     beta= 0.20
     Davidson diagonalization with overlap
     c_bands:  1 eigenvalues not converged
     ethr =  3.08E-06,  avg # of iterations =  7.9

     negative rho (up, down):  1.064E-01 0.000E+00

     total cpu time spent up to now is      380.0 secs

     total energy              =   -1868.76817238 Ry
     Harris-Foulkes estimate   =   -1868.76827905 Ry
     estimated scf accuracy    <       0.00565738 Ry

     iteration # 19     ecut=    60.00 Ry     beta= 0.20
     Davidson diagonalization with overlap
     ethr =  2.47E-06,  avg # of iterations =  7.9

     negative rho (up, down):  1.052E-01 0.000E+00

     total cpu time spent up to now is      407.2 secs

     total energy              =   -1868.76807598 Ry
     Harris-Foulkes estimate   =   -1868.76823735 Ry
     estimated scf accuracy    <       0.00461690 Ry

     iteration # 20     ecut=    60.00 Ry     beta= 0.20
     Davidson diagonalization with overlap
     ethr =  2.02E-06,  avg # of iterations =  2.5

     negative rho (up, down):  9.567E-02 0.000E+00

     total cpu time spent up to now is      426.1 secs

     total energy              =   -1868.76747118 Ry
     Harris-Foulkes estimate   =   -1868.76809473 Ry
     estimated scf accuracy    <       0.00438899 Ry

     iteration # 21     ecut=    60.00 Ry     beta= 0.20
     Davidson diagonalization with overlap
     c_bands:  1 eigenvalues not converged
     ethr =  1.92E-06,  avg # of iterations =  6.2

     negative rho (up, down):  9.261E-02 0.000E+00

     total cpu time spent up to now is      450.0 secs

     total energy              =   -1868.76732090 Ry
     Harris-Foulkes estimate   =   -1868.76752948 Ry
     estimated scf accuracy    <       0.00439478 Ry

     iteration # 22     ecut=    60.00 Ry     beta= 0.20
     Davidson diagonalization with overlap
     ethr =  1.92E-06,  avg # of iterations =  6.6

     negative rho (up, down):  8.947E-02 0.000E+00

     total cpu time spent up to now is      475.1 secs

     total energy              =   -1868.76690648 Ry
     Harris-Foulkes estimate   =   -1868.76735687 Ry
     estimated scf accuracy    <       0.00370530 Ry

     iteration # 23     ecut=    60.00 Ry     beta= 0.20
     Davidson diagonalization with overlap
     c_bands:  1 eigenvalues not converged
     ethr =  1.62E-06,  avg # of iterations =  7.8

     negative rho (up, down):  8.944E-02 0.000E+00

     total cpu time spent up to now is      501.9 secs

     total energy              =   -1868.76660975 Ry
     Harris-Foulkes estimate   =   -1868.76694631 Ry
     estimated scf accuracy    <       0.00298335 Ry

     iteration # 24     ecut=    60.00 Ry     beta= 0.20
     Davidson diagonalization with overlap
     ethr =  1.30E-06,  avg # of iterations =  6.3

     negative rho (up, down):  8.916E-02 0.000E+00

     total cpu time spent up to now is      526.1 secs

     total energy              =   -1868.76629305 Ry
     Harris-Foulkes estimate   =   -1868.76663009 Ry
     estimated scf accuracy    <       0.00328458 Ry

     iteration # 25     ecut=    60.00 Ry     beta= 0.20
     Davidson diagonalization with overlap
     ethr =  1.30E-06,  avg # of iterations =  4.5

     negative rho (up, down):  9.143E-02 0.000E+00

     total cpu time spent up to now is      547.6 secs

     total energy              =   -1868.76569049 Ry
     Harris-Foulkes estimate   =   -1868.76632706 Ry
     estimated scf accuracy    <       0.00240829 Ry

     iteration # 26     ecut=    60.00 Ry     beta= 0.20
     Davidson diagonalization with overlap
     ethr =  1.05E-06,  avg # of iterations =  7.4

     negative rho (up, down):  9.107E-02 0.000E+00

     total cpu time spent up to now is      572.6 secs

     total energy              =   -1868.76576733 Ry
     Harris-Foulkes estimate   =   -1868.76579266 Ry
     estimated scf accuracy    <       0.00104551 Ry

     iteration # 27     ecut=    60.00 Ry     beta= 0.20
     Davidson diagonalization with overlap
     ethr =  4.57E-07,  avg # of iterations =  1.0

     negative rho (up, down):  9.168E-02 0.000E+00

     total cpu time spent up to now is      588.9 secs

     total energy              =   -1868.76582418 Ry
     Harris-Foulkes estimate   =   -1868.76577602 Ry
     estimated scf accuracy    <       0.00081310 Ry

     iteration # 28     ecut=    60.00 Ry     beta= 0.20
     Davidson diagonalization with overlap
     ethr =  3.55E-07,  avg # of iterations =  5.4

     negative rho (up, down):  9.162E-02 0.000E+00

     total cpu time spent up to now is      611.9 secs

     total energy              =   -1868.76600785 Ry
     Harris-Foulkes estimate   =   -1868.76584529 Ry
     estimated scf accuracy    <       0.00047805 Ry

     iteration # 29     ecut=    60.00 Ry     beta= 0.20
     Davidson diagonalization with overlap
     ethr =  2.09E-07,  avg # of iterations =  8.6

     negative rho (up, down):  9.111E-02 0.000E+00

     total cpu time spent up to now is      640.6 secs

     total energy              =   -1868.76606339 Ry
     Harris-Foulkes estimate   =   -1868.76602491 Ry
     estimated scf accuracy    <       0.00017955 Ry

     iteration # 30     ecut=    60.00 Ry     beta= 0.20
     Davidson diagonalization with overlap
     ethr =  7.84E-08,  avg # of iterations =  5.0

     negative rho (up, down):  9.092E-02 0.000E+00

     total cpu time spent up to now is      663.2 secs

     total energy              =   -1868.76608564 Ry
     Harris-Foulkes estimate   =   -1868.76607008 Ry
     estimated scf accuracy    <       0.00014026 Ry

     iteration # 31     ecut=    60.00 Ry     beta= 0.20
     Davidson diagonalization with overlap
     ethr =  6.13E-08,  avg # of iterations =  2.4

     negative rho (up, down):  9.064E-02 0.000E+00

     total cpu time spent up to now is      681.9 secs

     total energy              =   -1868.76607961 Ry
     Harris-Foulkes estimate   =   -1868.76608713 Ry
     estimated scf accuracy    <       0.00010069 Ry

     iteration # 32     ecut=    60.00 Ry     beta= 0.20
     Davidson diagonalization with overlap
     ethr =  4.40E-08,  avg # of iterations =  3.0

     negative rho (up, down):  9.052E-02 0.000E+00

     total cpu time spent up to now is      701.6 secs

     total energy              =   -1868.76607825 Ry
     Harris-Foulkes estimate   =   -1868.76608137 Ry
     estimated scf accuracy    <       0.00003339 Ry

     iteration # 33     ecut=    60.00 Ry     beta= 0.20
     Davidson diagonalization with overlap
     ethr =  1.46E-08,  avg # of iterations =  1.6

     negative rho (up, down):  9.047E-02 0.000E+00

     total cpu time spent up to now is      719.5 secs

     total energy              =   -1868.76608156 Ry
     Harris-Foulkes estimate   =   -1868.76607957 Ry
     estimated scf accuracy    <       0.00001872 Ry

     iteration # 34     ecut=    60.00 Ry     beta= 0.20
     Davidson diagonalization with overlap
     ethr =  8.18E-09,  avg # of iterations =  1.0

     negative rho (up, down):  9.053E-02 0.000E+00

     total cpu time spent up to now is      736.6 secs

     total energy              =   -1868.76608172 Ry
     Harris-Foulkes estimate   =   -1868.76608193 Ry
     estimated scf accuracy    <       0.00000973 Ry

     iteration # 35     ecut=    60.00 Ry     beta= 0.20
     Davidson diagonalization with overlap
     ethr =  4.25E-09,  avg # of iterations =  1.6

     negative rho (up, down):  9.049E-02 0.000E+00

     total cpu time spent up to now is      754.3 secs

     total energy              =   -1868.76608274 Ry
     Harris-Foulkes estimate   =   -1868.76608214 Ry
     estimated scf accuracy    <       0.00000156 Ry

     iteration # 36     ecut=    60.00 Ry     beta= 0.20
     Davidson diagonalization with overlap
     ethr =  6.80E-10,  avg # of iterations =  3.0

     negative rho (up, down):  9.044E-02 0.000E+00

     total cpu time spent up to now is      775.5 secs

     total energy              =   -1868.76608319 Ry
     Harris-Foulkes estimate   =   -1868.76608289 Ry
     estimated scf accuracy    <       0.00000110 Ry

     iteration # 37     ecut=    60.00 Ry     beta= 0.20
     Davidson diagonalization with overlap
     ethr =  4.80E-10,  avg # of iterations =  1.5

     negative rho (up, down):  9.048E-02 0.000E+00

     total cpu time spent up to now is      792.3 secs

     End of self-consistent calculation

          k = 0.0000 0.0000 0.0000 ( 39547 PWs)   bands (ev):

   -38.7319 -38.3615 -24.7785 -23.3845 -23.3549 -23.3005 -19.2669 -18.8678
   -18.7362 -18.7270 -18.3853 -18.3678 -16.0621 -15.7651 -15.3975 -15.1030
   -14.8815 -14.8691 -14.8474 -14.6647 -14.6542 -14.5862 -14.3869 -14.3673
   -14.3617 -14.1245 -14.0770 -10.1008  -9.6077  -9.5834  -8.6113  -8.5741
    -8.5697  -8.3768  -8.3501  -8.3496  -8.3218  -8.2541  -8.2306  -2.6907
    -2.6563  -2.5277  -2.4704  -2.4703  -2.4692  -2.4604  -2.4506  -2.4004
    -2.3258  -2.2747  -2.0531  -1.9212  -1.5948  -1.4928  -1.1862  -1.1741
    -1.1700  -1.0751  -1.0672  -1.0585  -0.7214  -0.6779  -0.6759  -0.6412
    -0.6389  -0.5511  -0.4933  -0.4838  -0.4754  -0.4613  -0.3775  -0.3246
    -0.3193  -0.2989  -0.2965  -0.2327  -0.2263  -0.2120  -0.2009  -0.1667
    -0.0956  -0.0759  -0.0722  -0.0635  -0.0538   0.0529   0.0533   0.2302
     0.2789   0.3030   0.4555   0.5018   0.6200   0.6285   0.6350   0.7438
     0.7509   0.7622   0.7947   0.7993   0.8630   0.8946   0.8994   0.9583
     1.1035   1.1055   1.3315   1.3445   1.3770   1.4375   1.4840   1.5755
     1.5823   1.6047   1.7311   1.7441   1.7714   2.0603   2.0612   3.3221
     4.5462   4.6732   4.6780   5.1677   5.2204   5.6734   6.0365   6.0853
     6.1521   6.5346   6.8481   7.0015   7.2671   7.5492   7.5669   7.6493
     7.8097   7.8813

          k = 0.0000 0.1281 0.0000 ( 39557 PWs)   bands (ev):

   -38.7296 -38.3592 -24.7605 -23.3629 -23.3333 -23.2797 -19.2309 -18.8317
   -18.8313 -18.7330 -18.4726 -18.3820 -15.9532 -15.6663 -15.3526 -15.1115
   -14.8963 -14.8786 -14.8168 -14.6744 -14.6321 -14.6188 -14.4561 -14.3727
   -14.3681 -14.1888 -14.1032 -10.0865  -9.6192  -9.5508  -8.5932  -8.5636
    -8.5533  -8.3696  -8.3414  -8.3356  -8.3082  -8.2505  -8.2154  -2.7921
    -2.7678  -2.7134  -2.6413  -2.4761  -2.4669  -2.4489  -2.4299  -2.3490
    -2.3308  -2.3103  -2.1005  -2.0729  -1.9062  -1.5922  -1.5869  -1.5155
    -1.4392  -1.1224  -1.1163  -1.0701  -1.0426  -0.9844  -0.9075  -0.7911
    -0.7294  -0.7263  -0.7099  -0.6779  -0.6208  -0.6005  -0.5369  -0.4544
    -0.3602  -0.3210  -0.3141  -0.1680  -0.1672  -0.0827  -0.0661  -0.0657
    -0.0635  -0.0414  -0.0342   0.0150   0.1282   0.1412   0.2382   0.2391
     0.3082   0.3146   0.4258   0.4834   0.5038   0.5301   0.6068   0.6805
     0.7331   0.8054   0.8619   0.8871   0.9239   1.0250   1.0438   1.0624
     1.1083   1.2096   1.2113   1.3351   1.3529   1.3720   1.4490   1.4951
     1.5609   1.5891   1.8284   1.9980   2.2549   2.3824   2.3904   3.4960
     4.8475   5.0451   5.0479   5.4277   5.4904   5.8347   6.2592   6.3925
     6.4420   6.7666   7.0644   7.2438   7.3466   7.5064   7.5724   7.7281
     7.8245   7.8721

          k = 0.0000 0.2563 0.0000 ( 39594 PWs)   bands (ev):

   -38.7240 -38.3536 -24.7164 -23.3098 -23.2802 -23.2287 -19.1398 -19.0564
   -18.7462 -18.7252 -18.6922 -18.3742 -15.7049 -15.4520 -15.2362 -15.1872
   -14.9803 -14.9365 -14.7516 -14.7369 -14.6979 -14.6245 -14.5060 -14.3520
   -14.3500 -14.3404 -14.1399 -10.0461  -9.6467  -9.4697  -8.5518  -8.5346
    -8.5133  -8.4107  -8.3826  -8.2938  -8.2324  -8.2048  -8.1189  -3.2243
    -3.1308  -3.1201  -3.0018  -2.6873  -2.6185  -2.6107  -2.4996  -2.4467
    -2.3516  -2.3480  -2.3135  -2.2743  -2.2575  -2.0266  -1.9559  -1.8584
    -1.4887  -1.3886  -1.3883  -1.3185  -1.2595  -1.1089  -1.0930  -1.0565
    -1.0354  -1.0097  -0.9577  -0.9524  -0.9054  -0.7532  -0.6866  -0.6632
    -0.6579  -0.5504  -0.4804  -0.3503  -0.2878  -0.2288  -0.2248  -0.0963
    -0.0286  -0.0233  -0.0094   0.0006   0.0879   0.1512   0.2913   0.3512
     0.4396   0.4979   0.5776   0.5834   0.7156   0.7276   0.7525   0.8496
     0.8882   0.8994   0.9015   0.9300   1.0027   1.1050   1.1195   1.1215
     1.2011   1.2095   1.2105   1.3382   1.4335   1.5330   1.6448   1.6449
     1.6508   1.6544   2.0021   2.1417   2.6741   2.6880   3.0764   3.9759
     5.6275   5.9369   5.9382   6.0141   6.1147   6.1859   6.6675   7.1212
     7.2441   7.2801   7.3763   7.4281   7.6912   7.7226   7.7426   8.0264
     8.1322   8.2071

          k = 0.0000 0.3844 0.0000 ( 39506 PWs)   bands (ev):

   -38.7184 -38.3479 -24.6714 -23.2553 -23.2256 -23.1763 -19.2543 -19.0415
   -18.9001 -18.7174 -18.6376 -18.3664 -15.4547 -15.3302 -15.2839 -15.1022
   -15.0814 -15.0365 -14.8328 -14.8033 -14.7281 -14.6950 -14.4775 -14.3712
   -14.2973 -14.2910 -14.1674  -9.9944  -9.6783  -9.3856  -8.5147  -8.4980
    -8.4731  -8.4437  -8.4159  -8.3334  -8.1233  -8.0955  -8.0173  -3.7607
    -3.5769  -3.5061  -3.3523  -3.1771  -3.1748  -3.0177  -2.5264  -2.5223
    -2.4981  -2.4392  -2.2928  -2.2084  -2.1629  -2.1491  -2.1352  -1.8093
    -1.6658  -1.5710  -1.5301  -1.4557  -1.4388  -1.3645  -1.3573  -1.3238
    -1.1990  -1.1915  -1.0925  -1.0724  -1.0623  -1.0390  -0.9066  -0.9016
    -0.8247  -0.7093  -0.6579  -0.5371  -0.5133  -0.5035  -0.2681  -0.1808
    -0.0506  -0.0402  -0.0321   0.0145   0.0234   0.2752   0.3070   0.4315
     0.5188   0.5431   0.6237   0.6625   0.7786   0.7865   0.8337   0.8514
     0.9200   0.9328   0.9726   1.0672   1.0876   1.1244   1.2963   1.3659
     1.3787   1.5079   1.5346   1.5669   1.6152   1.6352   1.6660   1.6760
     1.9850   2.0572   2.0619   2.0796   2.6470   2.6570   3.6104   4.6292
     5.7320   6.5458   6.8041   6.8264   6.8893   7.0243   7.2638   7.3355
     7.4288   7.5761   7.6674   8.0138   8.0941   8.2113   8.3310   8.3933
     8.4492   8.5783

          k = 0.0000-0.5125 0.0000 ( 39630 PWs)   bands (ev):

   -38.7160 -38.3456 -24.6525 -23.2323 -23.2025 -23.1542 -19.3303 -18.9983
   -18.9760 -18.7142 -18.5943 -18.3631 -15.4103 -15.3229 -15.2705 -15.1145
   -15.0737 -15.0104 -14.8885 -14.8846 -14.7516 -14.6819 -14.5201 -14.2903
   -14.2598 -14.2557 -14.2102  -9.9679  -9.6947  -9.3497  -8.5004  -8.4794
    -8.4564  -8.4553  -8.4276  -8.3504  -8.0763  -8.0483  -7.9737  -4.0029
    -3.7240  -3.6579  -3.4858  -3.4129  -3.4065  -3.1509  -2.5611  -2.5566
    -2.5513  -2.5179  -2.2928  -2.2362  -2.1462  -2.0924  -1.9383  -1.9101
    -1.7321  -1.6699  -1.6408  -1.5734  -1.5437  -1.5070  -1.3455  -1.3033
    -1.2873  -1.2782  -1.2208  -1.1404  -1.0738  -1.0138  -0.9938  -0.9886
    -0.9304  -0.9153  -0.7083  -0.6258  -0.5871  -0.5235  -0.3364  -0.1700
    -0.1084  -0.0631  -0.0609   0.0204   0.0290   0.2626   0.4091   0.4886
     0.5291   0.5441   0.6225   0.7457   0.7500   0.8437   0.8993   0.9143
     0.9259   0.9289   0.9368   1.0543   1.0853   1.1245   1.4252   1.4470
     1.5241   1.5291   1.5310   1.6793   1.7513   1.7887   1.8596   1.9210
     1.9259   1.9350   2.2193   2.2243   2.5108   2.5197   3.8008   5.2328
     5.2792   6.8725   7.0797   7.2212   7.3177   7.3276   7.3621   7.4846
     7.5326   7.7203   7.9618   8.1342   8.3163   8.4267   8.5383   8.5937
     8.6094   8.6615

          k = 0.1250 0.0000 0.0000 ( 39572 PWs)   bands (ev):

   -38.7301 -38.3597 -24.7636 -23.3661 -23.3365 -23.2828 -19.2344 -18.8362
   -18.8345 -18.7245 -18.4873 -18.3653 -15.9468 -15.6569 -15.4237 -15.1289
   -14.9365 -14.9170 -14.8254 -14.7005 -14.6200 -14.6160 -14.4401 -14.3679
   -14.3646 -14.1617 -14.0856 -10.1216  -9.5812  -9.5422  -8.6219  -8.5928
    -8.5802  -8.3418  -8.3159  -8.3145  -8.2874  -8.2168  -8.1984  -2.7807
    -2.6962  -2.6717  -2.6069  -2.4635  -2.4362  -2.4318  -2.4214  -2.3896
    -2.3477  -2.2572  -2.0564  -2.0404  -1.6208  -1.4815  -1.2460  -1.2137
    -1.1719  -1.1184  -1.0696  -1.0617  -0.9229  -0.7682  -0.7625  -0.7566
    -0.7506  -0.7065  -0.6679  -0.6579  -0.5408  -0.5268  -0.4938  -0.4649
    -0.4306  -0.2773  -0.2093  -0.2022  -0.1950  -0.1350  -0.0963  -0.0883
    -0.0864  -0.0706  -0.0634  -0.0504   0.0474   0.0539   0.0685   0.1036
     0.3444   0.3802   0.3814   0.4029   0.5011   0.5528   0.6186   0.6356
     0.6378   0.6490   0.8023   0.8307   0.8962   0.8978   1.0056   1.0261
     1.1090   1.1461   1.1648   1.3377   1.4779   1.4787   1.4971   1.5223
     1.5730   1.6560   1.7270   1.8194   2.0205   2.1041   2.1043   3.4833
     4.7535   4.8653   4.8695   5.3952   5.4489   5.8048   6.2284   6.3178
     6.3676   6.7333   7.0962   7.2104   7.4633   7.5475   7.6980   7.7467
     7.8650   7.9257

          k = 0.1250 0.1281 0.0000 ( 39598 PWs)   bands (ev):

   -38.7278 -38.3574 -24.7461 -23.3452 -23.3156 -23.2627 -19.1989 -18.8402
   -18.8193 -18.7989 -18.4882 -18.4635 -15.8388 -15.5617 -15.3761 -15.1269
   -14.9363 -14.9136 -14.7977 -14.6691 -14.6585 -14.6385 -14.4901 -14.3673
   -14.3644 -14.2139 -14.1106 -10.1010  -9.7294  -9.4270  -8.6059  -8.5815
    -8.5686  -8.4895  -8.4613  -8.3695  -8.1920  -8.1642  -8.0787  -2.8872
    -2.8323  -2.8009  -2.6390  -2.5054  -2.4908  -2.4682  -2.4308  -2.4258
    -2.3513  -2.2708  -2.1152  -2.1078  -2.0007  -1.5877  -1.5812  -1.5690
    -1.3921  -1.2511  -1.2033  -1.1456  -1.0548  -1.0530  -1.0361  -0.9994
    -0.9402  -0.9269  -0.7348  -0.7240  -0.6922  -0.5447  -0.4778  -0.4433
    -0.3841  -0.3302  -0.2968  -0.2012  -0.1666  -0.1498  -0.0956  -0.0926
    -0.0427  -0.0149  -0.0110   0.0000   0.1098   0.1313   0.1760   0.2391
     0.2393   0.3779   0.4377   0.5332   0.5876   0.6038   0.6175   0.6511
     0.6779   0.7369   0.8497   0.8651   0.8989   0.9295   0.9731   1.1212
     1.1633   1.1736   1.2345   1.2642   1.2917   1.3212   1.4462   1.5414
     1.8707   1.9264   2.0800   2.2711   2.3043   2.4016   2.4022   3.6424
     5.0288   5.1891   5.1915   5.6187   5.6763   5.9325   6.3871   6.6203
     6.6615   6.9542   7.1445   7.3552   7.3929   7.4619   7.6829   7.7584
     7.8689   7.9204

          k = 0.1250 0.2563 0.0000 ( 39622 PWs)   bands (ev):

   -38.7222 -38.3518 -24.7032 -23.2941 -23.2644 -23.2133 -19.1090 -19.0519
   -18.8205 -18.7209 -18.6813 -18.4714 -15.5929 -15.3611 -15.2506 -15.1720
   -14.9684 -14.9375 -14.7538 -14.7346 -14.7143 -14.6193 -14.5418 -14.3432
   -14.3425 -14.3396 -14.1411 -10.0519  -9.8348  -9.3925  -8.6135  -8.5850
    -8.5531  -8.5427  -8.5143  -8.4800  -8.1479  -8.1202  -8.0422  -3.3232
    -3.2058  -3.1334  -3.0133  -2.7095  -2.6381  -2.6163  -2.5478  -2.4796
    -2.4361  -2.4175  -2.3419  -2.3396  -2.2137  -2.0708  -1.9656  -1.9610
    -1.5704  -1.4510  -1.4286  -1.4087  -1.3510  -1.3462  -1.3073  -1.2372
    -1.0876  -1.0499  -1.0461  -0.8958  -0.8753  -0.8070  -0.7077  -0.6561
    -0.4982  -0.4832  -0.4350  -0.2943  -0.2216  -0.2000  -0.1464  -0.1398
    -0.0792  -0.0085   0.0223   0.0228   0.1286   0.1667   0.1893   0.3742
     0.5748   0.6062   0.6214   0.6430   0.6895   0.7828   0.7934   0.8291
     0.8426   0.9005   0.9263   0.9733   1.0100   1.0240   1.1088   1.1103
     1.1551   1.2429   1.3042   1.3767   1.4368   1.5862   1.6232   1.6255
     2.1125   2.1833   2.3528   2.5291   2.6788   2.7091   3.0812   4.1043
     5.6968   5.9904   5.9935   5.9963   6.2248   6.2874   6.7462   7.1635
     7.2243   7.4092   7.4508   7.4728   7.5238   7.7857   7.8918   7.9488
     8.1939   8.1981

          k = 0.1250 0.3844 0.0000 ( 39621 PWs)   bands (ev):

   -38.7166 -38.3462 -24.6595 -23.2415 -23.2118 -23.1627 -19.2483 -19.0121
   -18.8940 -18.8107 -18.6075 -18.4614 -15.3527 -15.2858 -15.2274 -15.0930
   -15.0095 -15.0041 -14.8136 -14.7789 -14.7544 -14.7050 -14.4588 -14.4024
   -14.2929 -14.2870 -14.1578 -10.0009  -9.8441  -9.4465  -8.6181  -8.5902
    -8.5219  -8.5106  -8.4967  -8.4833  -8.1959  -8.1682  -8.0896  -3.7605
    -3.6762  -3.5941  -3.4050  -3.1701  -3.1646  -3.0586  -2.5587  -2.5411
    -2.5198  -2.3971  -2.3771  -2.3039  -2.3023  -2.1278  -2.0561  -1.9834
    -1.8728  -1.7848  -1.7312  -1.6447  -1.5344  -1.4839  -1.4083  -1.3665
    -1.2629  -1.1098  -1.0898  -1.0489  -1.0249  -0.9885  -0.9345  -0.9017
    -0.7576  -0.5725  -0.4865  -0.3931  -0.3549  -0.2193  -0.1858  -0.1211
    -0.0285  -0.0169   0.0178   0.0437   0.1048   0.1409   0.2827   0.4645
     0.5146   0.6444   0.6601   0.6933   0.8406   0.8621   0.9056   0.9078
     0.9449   0.9801   0.9809   1.0473   1.0956   1.2012   1.2828   1.3158
     1.4076   1.5503   1.5841   1.6340   1.6533   1.6710   2.0322   2.0359
     2.1411   2.2216   2.3742   2.4948   2.6711   2.7148   3.6134   4.7319
     5.5966   6.4897   6.7052   6.7444   6.8487   6.9188   7.1253   7.1763
     7.2212   7.5909   7.8913   7.9962   8.0351   8.2404   8.3092   8.4752
     8.5649   8.5950

          k = 0.1250-0.5125 0.0000 ( 39612 PWs)   bands (ev):

   -38.7143 -38.3438 -24.6411 -23.2194 -23.1896 -23.1414 -19.3239 -18.9696
   -18.9695 -18.8065 -18.5649 -18.4572 -15.3697 -15.2255 -15.2056 -15.0787
   -14.9762 -14.9652 -14.8871 -14.8644 -14.7432 -14.7225 -14.4951 -14.3221
   -14.2619 -14.2585 -14.1836  -9.9760  -9.8238  -9.4944  -8.5928  -8.5651
    -8.5103  -8.4928  -8.4807  -8.4690  -8.2439  -8.2162  -8.1326  -3.9921
    -3.8386  -3.7488  -3.5449  -3.4090  -3.4009  -3.2008  -2.5763  -2.5650
    -2.5312  -2.4269  -2.3299  -2.2542  -2.1900  -2.1413  -2.1307  -2.0261
    -2.0178  -2.0004  -1.7313  -1.7204  -1.6138  -1.5901  -1.5191  -1.4327
    -1.2235  -1.1798  -1.1582  -1.1008  -1.0341  -1.0234  -0.9920  -0.9133
    -0.8768  -0.6080  -0.4914  -0.4885  -0.3924  -0.2300  -0.2170  -0.1038
    -0.0314   0.0042   0.0044   0.0189   0.0935   0.1456   0.1713   0.5823
     0.5862   0.6476   0.7087   0.7288   0.8193   0.8264   0.9198   0.9471
     0.9616   1.0002   1.0132   1.0392   1.0891   1.2418   1.3826   1.4945
     1.5345   1.6517   1.7257   1.7756   1.9131   1.9190   2.1061   2.1865
     2.1988   2.2033   2.2918   2.3762   2.5678   2.6297   3.8009   5.1655
     5.3984   6.5043   6.8875   6.9446   6.9906   7.0225   7.0362   7.3600
     7.7187   7.8105   8.0829   8.1440   8.5051   8.5466   8.6386   8.6718
     8.8002   8.8069

          k = 0.2500 0.0000 0.0000 ( 39674 PWs)   bands (ev):

   -38.7257 -38.3553 -24.7271 -23.3209 -23.2912 -23.2394 -19.1527 -19.0510
   -18.7517 -18.7184 -18.7043 -18.3591 -15.6829 -15.5001 -15.4310 -15.2361
   -15.0671 -15.0281 -14.8064 -14.7887 -14.6521 -14.5667 -14.5296 -14.3648
   -14.3622 -14.2330 -14.0954 -10.1489  -9.5159  -9.4667  -8.6330  -8.6145
    -8.5915  -8.2718  -8.2448  -8.2305  -8.2018  -8.1540  -8.1186  -3.0884
    -3.0098  -2.9995  -2.5330  -2.5003  -2.4839  -2.4684  -2.4625  -2.3542
    -2.3131  -2.2639  -2.0189  -1.9948  -1.6958  -1.5764  -1.4190  -1.3271
    -1.3200  -1.3080  -1.1622  -1.1473  -1.0731  -1.0496  -1.0484  -1.0248
    -0.9632  -0.9631  -0.9083  -0.7721  -0.7527  -0.5922  -0.5754  -0.5160
    -0.4790  -0.3551  -0.3313  -0.3191  -0.2504  -0.2146  -0.1541  -0.1469
    -0.0956  -0.0873   0.0084   0.0634   0.0793   0.0799   0.0888   0.1708
     0.1761   0.2442   0.4393   0.4824   0.5205   0.5316   0.5499   0.6771
     0.6796   0.7903   0.8029   0.8839   0.9298   0.9573   0.9829   0.9859
     1.0684   1.1078   1.2196   1.2702   1.4025   1.4132   1.5028   1.5856
     1.6085   1.6796   1.8672   2.0122   2.1562   2.2407   2.2903   3.9123
     5.2775   5.3160   5.3172   5.9710   6.0455   6.1669   6.6570   6.9471
     6.9808   7.0211   7.3510   7.5020   7.5972   7.8148   7.8551   7.9655
     8.0210   8.1725

          k = 0.2500 0.1281 0.0000 ( 39646 PWs)   bands (ev):

   -38.7234 -38.3530 -24.7108 -23.3019 -23.2722 -23.2209 -19.1186 -19.0452
   -18.8185 -18.7201 -18.6959 -18.4595 -15.5777 -15.4440 -15.3528 -15.2089
   -15.0281 -15.0033 -14.7652 -14.7588 -14.7173 -14.5758 -14.5428 -14.3537
   -14.3519 -14.2608 -14.1176 -10.1291  -9.7676  -9.3636  -8.6340  -8.6170
    -8.6009  -8.5170  -8.4876  -8.4015  -8.1178  -8.0900  -8.0149  -3.2273
    -3.1080  -3.0447  -2.5895  -2.5825  -2.5476  -2.5131  -2.4742  -2.4600
    -2.4374  -2.1952  -2.1907  -2.1395  -1.9374  -1.6875  -1.5952  -1.5831
    -1.5771  -1.4501  -1.4377  -1.4084  -1.3531  -1.2739  -1.2567  -1.1093
    -1.0641  -1.0513  -0.9932  -0.8541  -0.7493  -0.6167  -0.4700  -0.4322
    -0.3841  -0.3592  -0.3502  -0.2786  -0.2231  -0.2119  -0.1607  -0.1415
    -0.1110  -0.0552   0.1066   0.1095   0.1152   0.1393   0.2359   0.2471
     0.2529   0.3217   0.4339   0.6221   0.6288   0.6576   0.7024   0.7204
     0.7742   0.7880   0.8219   0.8284   0.9171   0.9407   0.9496   1.0449
     1.1362   1.1375   1.2241   1.3443   1.3947   1.4065   1.4286   1.5688
     2.1659   2.2401   2.3128   2.3971   2.4405   2.4906   2.6531   4.0535
     5.4656   5.5573   5.5584   6.0304   6.1827   6.2145   6.7173   7.0368
     7.1943   7.2416   7.2823   7.4135   7.5155   7.6983   7.8372   8.0694
     8.1879   8.2273

          k = 0.2500 0.2563 0.0000 ( 39669 PWs)   bands (ev):

   -38.7179 -38.3474 -24.6710 -23.2554 -23.2257 -23.1757 -19.0521 -19.0324
   -19.0154 -18.7040 -18.6680 -18.6212 -15.3451 -15.2910 -15.2061 -15.1578
   -14.9534 -14.9399 -14.8596 -14.6968 -14.6923 -14.6112 -14.5657 -14.3371
   -14.3217 -14.3193 -14.1316 -10.0897 -10.0154  -9.4525  -8.8196  -8.7916
    -8.6956  -8.5663  -8.5526  -8.5325  -8.2151  -8.1873  -8.1117  -3.6477
    -3.4801  -3.2715  -3.0086  -2.8365  -2.7223  -2.6690  -2.6531  -2.5709
    -2.5591  -2.4527  -2.3527  -2.3504  -2.3346  -2.0899  -2.0323  -1.9856
    -1.9226  -1.8572  -1.8468  -1.4920  -1.4619  -1.3476  -1.3414  -1.3348
    -1.2303  -1.1253  -1.0228  -0.9327  -0.8191  -0.7756  -0.7507  -0.6770
    -0.6328  -0.4752  -0.3786  -0.3328  -0.3045  -0.1403  -0.0707  -0.0267
     0.0794   0.1039   0.1068   0.1507   0.2040   0.2435   0.4719   0.6354
     0.6449   0.6859   0.7350   0.7817   0.7864   0.7897   0.8019   0.8768
     0.9021   0.9099   0.9480   0.9745   1.0140   1.0984   1.1736   1.2054
     1.2825   1.3492   1.4017   1.4338   1.5272   1.5511   1.5610   1.6595
     2.6487   2.6536   2.7794   2.8619   2.9684   3.0938   3.1648   4.4715
     5.4623   6.0691   6.0810   6.1197   6.5363   6.5731   6.8334   7.0196
     7.2426   7.3856   7.6711   7.7281   7.7516   7.9923   8.1891   8.2118
     8.3279   8.4126

          k = 0.2500 0.3844 0.0000 ( 39707 PWs)   bands (ev):

   -38.7123 -38.3418 -24.6304 -23.2078 -23.1781 -23.1295 -19.2338 -19.0155
   -18.9371 -18.8792 -18.6691 -18.5309 -15.2219 -15.1187 -15.1010 -15.0727
   -14.9324 -14.9094 -14.8646 -14.7727 -14.6997 -14.6493 -14.4360 -14.4136
   -14.2810 -14.2758 -14.1178 -10.1448 -10.0191  -9.6702  -8.9263  -8.8983
    -8.7939  -8.5473  -8.5382  -8.5109  -8.4518  -8.4243  -8.3351  -4.0620
    -3.8927  -3.7066  -3.5809  -3.2248  -3.1382  -3.1365  -2.7483  -2.6912
    -2.6528  -2.4710  -2.4568  -2.4503  -2.4497  -2.3175  -2.2754  -2.2401
    -2.0734  -1.9281  -1.8656  -1.7111  -1.6116  -1.4650  -1.4283  -1.3267
    -1.2391  -1.1656  -1.1234  -0.9883  -0.9868  -0.9359  -0.9146  -0.8493
    -0.6974  -0.6786  -0.4481  -0.3118  -0.2112  -0.1632  -0.0053   0.0612
     0.1194   0.1658   0.2475   0.2992   0.3452   0.4518   0.6660   0.7073
     0.7224   0.7281   0.7597   0.9596   0.9722   0.9891   1.0062   1.0662
     1.1047   1.1274   1.1434   1.1583   1.2142   1.2256   1.2874   1.3667
     1.4716   1.5152   1.5571   1.6500   1.6826   1.6847   1.9661   1.9698
     2.5785   2.5803   3.0572   3.1550   3.2360   3.4093   3.6124   4.8717
     5.2441   6.2303   6.2535   6.3526   6.5273   6.5492   7.0012   7.3087
     7.4023   7.8292   8.0772   8.1118   8.1375   8.2800   8.5741   8.6452
     8.8074   8.8713

          k = 0.2500-0.5125 0.0000 ( 39726 PWs)   bands (ev):

   -38.7100 -38.3395 -24.6133 -23.1878 -23.1580 -23.1101 -19.3083 -19.0097
   -18.9537 -18.8963 -18.6634 -18.4898 -15.2664 -15.1064 -14.9903 -14.9442
   -14.8962 -14.8811 -14.8488 -14.8266 -14.8209 -14.6510 -14.4327 -14.3535
   -14.2597 -14.2550 -14.1179 -10.1325 -10.0006  -9.8091  -8.9109  -8.8829
    -8.7854  -8.6112  -8.5836  -8.5406  -8.5255  -8.4967  -8.4724  -4.2259
    -4.0591  -3.9440  -3.7438  -3.4074  -3.3771  -3.3558  -2.7416  -2.6831
    -2.6245  -2.6189  -2.4752  -2.4515  -2.4351  -2.4317  -2.3563  -2.2697
    -2.1026  -1.9447  -1.9439  -1.7446  -1.6813  -1.4845  -1.4679  -1.3022
    -1.2727  -1.2015  -1.1690  -1.0626  -1.0178  -0.9933  -0.9232  -0.8769
    -0.7555  -0.6937  -0.4619  -0.3092  -0.1579  -0.1407   0.0723   0.0920
     0.1299   0.1753   0.2934   0.3084   0.4132   0.4674   0.5846   0.7887
     0.7969   0.8361   0.8482   0.9911   1.0124   1.0671   1.0672   1.0676
     1.1069   1.1749   1.1844   1.1977   1.2741   1.2921   1.3562   1.4659
     1.5029   1.6159   1.6736   1.7272   1.9093   1.9138   2.1442   2.1484
     2.4209   2.4220   3.1147   3.2173   3.2904   3.4551   3.7904   4.7584
     5.6832   6.1396   6.1888   6.1991   6.4493   6.4672   6.8227   7.5161
     7.8202   8.0064   8.1759   8.4742   8.6968   8.7126   8.7543   8.9033
     8.9979   9.0630

          k = 0.3750 0.0000 0.0000 ( 39698 PWs)   bands (ev):

   -38.7213 -38.3509 -24.6899 -23.2746 -23.2448 -23.1949 -19.2401 -19.0641
   -18.8975 -18.7123 -18.6587 -18.3530 -15.5949 -15.4407 -15.3567 -15.3451
   -15.1449 -15.0843 -14.9276 -14.8042 -14.6781 -14.6437 -14.4357 -14.3527
   -14.3507 -14.2797 -14.1074 -10.1552  -9.4486  -9.4148  -8.6335  -8.6165
    -8.5931  -8.2125  -8.1859  -8.1412  -8.1146  -8.1122  -8.0353  -3.4118
    -3.3246  -3.2635  -2.8469  -2.5680  -2.5589  -2.4793  -2.2995  -2.2374
    -2.2346  -2.1718  -2.0171  -1.9015  -1.7886  -1.6378  -1.5677  -1.5352
    -1.4889  -1.4381  -1.4006  -1.3701  -1.3487  -1.3244  -1.1868  -1.1840
    -1.0526  -1.0413  -1.0329  -1.0140  -0.8388  -0.8109  -0.7127  -0.6200
    -0.5776  -0.5448  -0.5335  -0.4179  -0.2386  -0.2022  -0.1351  -0.1294
    -0.1092  -0.1008  -0.0422   0.1035   0.1227   0.1361   0.1441   0.1691
     0.1981   0.3030   0.3344   0.4819   0.5988   0.6273   0.6395   0.6874
     0.7418   0.7863   0.8731   0.8867   0.9208   0.9422   0.9702   1.0137
     1.2074   1.2536   1.3060   1.3136   1.3206   1.3799   1.5796   1.6417
     1.6720   1.7393   1.8937   2.0502   2.1387   2.3466   2.3672   4.5329
     5.7023   5.9522   5.9540   6.2016   6.6521   6.8227   6.8908   7.1953
     7.4527   7.4582   7.4661   7.7671   7.8969   8.0760   8.1001   8.1212
     8.2442   8.3803

          k = 0.3750 0.1281 0.0000 ( 39650 PWs)   bands (ev):

   -38.7191 -38.3486 -24.6749 -23.2576 -23.2278 -23.1782 -19.2328 -19.0311
   -18.8901 -18.8107 -18.6260 -18.4514 -15.5278 -15.3762 -15.2945 -15.2734
   -15.1011 -15.0154 -14.8741 -14.7684 -14.7123 -14.6536 -14.4251 -14.3379
   -14.3343 -14.2881 -14.1333 -10.1372  -9.7074  -9.4211  -8.6301  -8.6194
    -8.5949  -8.4594  -8.4311  -8.3444  -8.1738  -8.1460  -8.0763  -3.5601
    -3.4334  -3.3184  -2.9025  -2.6002  -2.5719  -2.5229  -2.4595  -2.3923
    -2.3730  -2.1906  -2.1229  -2.1059  -1.9169  -1.8966  -1.8367  -1.7838
    -1.7607  -1.5813  -1.5805  -1.4875  -1.3999  -1.3850  -1.3480  -1.2408
    -1.1632  -1.1466  -1.1294  -0.9596  -0.9091  -0.6979  -0.6048  -0.5247
    -0.4493  -0.4313  -0.3704  -0.3062  -0.2700  -0.2272  -0.1837  -0.1664
    -0.0912  -0.0027   0.0668   0.1903   0.1908   0.2510   0.2779   0.2964
     0.3025   0.4048   0.5002   0.5495   0.5791   0.6449   0.7048   0.7285
     0.7929   0.8259   0.8600   0.8933   0.9470   1.0020   1.0212   1.0364
     1.1863   1.2309   1.3041   1.3360   1.3585   1.5551   1.5654   1.6142
     2.2732   2.3315   2.3416   2.4253   2.4810   2.6454   2.7667   4.6618
     5.6886   5.9713   6.0753   6.0808   6.7417   6.8403   7.0005   7.1120
     7.1188   7.4887   7.5276   7.5883   7.8903   8.2158   8.2530   8.3259
     8.4110   8.4758

          k = 0.3750 0.2563 0.0000 ( 39655 PWs)   bands (ev):

   -38.7136 -38.3431 -24.6382 -23.2160 -23.1862 -23.1374 -19.2154 -19.0260
   -18.9478 -18.8722 -18.6713 -18.5386 -15.3432 -15.2530 -15.1685 -15.0857
   -14.9632 -14.9039 -14.8773 -14.7657 -14.6818 -14.6059 -14.4068 -14.3226
   -14.2999 -14.2966 -14.1382 -10.1269 -10.0459  -9.6566  -8.8687  -8.8406
    -8.7491  -8.5849  -8.5674  -8.5507  -8.4425  -8.4151  -8.3329  -3.9997
    -3.8158  -3.5488  -3.1260  -2.9791  -2.7860  -2.7264  -2.6825  -2.5757
    -2.5705  -2.4640  -2.4566  -2.4189  -2.3618  -2.3568  -2.2783  -2.2073
    -1.9538  -1.8533  -1.8273  -1.6331  -1.4342  -1.3951  -1.3049  -1.2481
    -1.2236  -1.2082  -1.0793  -0.9822  -0.8518  -0.8281  -0.7880  -0.7679
    -0.6216  -0.5949  -0.4893  -0.2218  -0.1398  -0.1240  -0.0259   0.1119
     0.1750   0.2422   0.2814   0.3454   0.3485   0.4744   0.6272   0.6876
     0.6964   0.7465   0.7793   0.8154   0.8441   0.8467   0.9059   0.9065
     0.9379   1.0145   1.0695   1.0818   1.0885   1.1263   1.1761   1.2754
     1.3899   1.4308   1.4483   1.4571   1.5419   1.5488   1.6103   1.6205
     2.6498   2.6522   3.0986   3.1758   3.2485   3.3224   3.5012   4.9792
     5.0801   6.0443   6.0638   6.0814   6.5217   6.5262   7.1696   7.2630
     7.3987   7.7433   7.7688   7.8258   8.0398   8.3238   8.3908   8.5547
     8.6227   8.7444

          k = 0.3750 0.3844 0.0000 ( 39761 PWs)   bands (ev):

   -38.7080 -38.3375 -24.6009 -23.1736 -23.1438 -23.0958 -19.2206 -19.1950
   -18.8671 -18.8584 -18.8499 -18.4496 -15.1507 -15.0808 -15.0389 -15.0260
   -14.9507 -14.8369 -14.7848 -14.7751 -14.6165 -14.6023 -14.3651 -14.3071
   -14.2676 -14.2630 -14.0824 -10.3606 -10.0420  -9.9501  -9.1351  -9.1068
    -8.9997  -8.7713  -8.7442  -8.6411  -8.5775  -8.5606  -8.5383  -4.4516
    -4.2570  -3.9119  -3.6353  -3.4928  -3.1148  -3.1105  -2.8839  -2.8566
    -2.8346  -2.7707  -2.6369  -2.5130  -2.4697  -2.4640  -2.4616  -2.3558
    -2.0188  -1.9953  -1.7346  -1.5788  -1.5388  -1.5031  -1.4046  -1.3375
    -1.3007  -1.1799  -1.1281  -1.0723  -1.0142  -0.9969  -0.9389  -0.8197
    -0.7257  -0.5685  -0.5625  -0.1798  -0.1052  -0.0506   0.2379   0.2584
     0.3526   0.4201   0.5449   0.6211   0.6598   0.8276   0.8478   0.8659
     0.8782   0.9325   0.9403   1.0456   1.0991   1.1017   1.1314   1.1340
     1.1652   1.2467   1.2568   1.3147   1.3512   1.3689   1.4425   1.4455
     1.5055   1.5378   1.6297   1.6889   1.6991   1.7574   1.8879   1.8910
     2.5693   2.5720   3.5960   3.7240   3.8078   3.8197   3.9968   4.4054
     5.5533   5.6848   5.6971   6.1581   6.1804   6.2641   6.9834   7.5526
     7.8087   7.9699   8.1500   8.3412   8.4109   8.4161   8.6951   8.7639
     8.7926   8.9247

          k = 0.3750-0.5125 0.0000 ( 39806 PWs)   bands (ev):

   -38.7058 -38.3352 -24.5852 -23.1558 -23.1260 -23.0783 -19.2928 -19.1896
   -18.9379 -18.8460 -18.8193 -18.4102 -15.1548 -15.0517 -14.9590 -14.8992
   -14.8858 -14.8446 -14.7977 -14.7198 -14.6977 -14.5789 -14.3657 -14.2573
   -14.2513 -14.2439 -14.0498 -10.4411 -10.1140 -10.0037  -9.2141  -9.1857
    -9.0800  -8.9265  -8.8996  -8.7825  -8.5767  -8.5522  -8.5327  -4.6326
    -4.4384  -4.0815  -3.8777  -3.6620  -3.3532  -3.3487  -2.9976  -2.8999
    -2.8540  -2.7835  -2.7686  -2.5243  -2.4692  -2.4600  -2.4567  -2.4054
    -2.0562  -2.0372  -1.7573  -1.6457  -1.5829  -1.4665  -1.3919  -1.3908
    -1.3449  -1.2044  -1.1931  -1.0998  -1.0924  -1.0785  -0.9164  -0.8778
    -0.7545  -0.5356  -0.5351  -0.1722  -0.0839  -0.0184   0.2510   0.3437
     0.5134   0.5218   0.6128   0.7340   0.7723   0.8559   0.9082   0.9309
     0.9621   0.9913   1.0583   1.1172   1.1766   1.1843   1.2007   1.2888
     1.3270   1.3299   1.3428   1.3621   1.4084   1.4298   1.4579   1.5270
     1.6229   1.6399   1.7444   1.7461   1.9301   1.9326   2.0834   2.0875
     2.3973   2.4025   3.7423   3.8900   3.9807   3.9825   4.1537   4.1733
     5.4875   5.4990   5.9189   6.0597   6.1301   6.1556   6.7595   7.6744
     7.6978   8.1912   8.3916   8.4516   8.6095   8.6143   8.6627   8.8460
     8.9686   9.0493

          k =-0.5000 0.0000 0.0000 ( 39626 PWs)   bands (ev):

   -38.7195 -38.3491 -24.6744 -23.2551 -23.2252 -23.1762 -19.3122 -19.0257
   -18.9704 -18.7098 -18.6190 -18.3504 -15.6393 -15.4687 -15.3848 -15.2552
   -15.2103 -15.0267 -14.9732 -14.8454 -14.7097 -14.6330 -14.4038 -14.3452
   -14.3327 -14.2924 -14.1210 -10.1532  -9.4200  -9.3990  -8.6324  -8.6127
    -8.5922  -8.1898  -8.1633  -8.1030  -8.1029  -8.0737  -7.9997  -3.5353
    -3.4495  -3.3781  -2.9760  -2.5947  -2.5865  -2.4750  -2.2671  -2.2657
    -2.0956  -2.0652  -2.0155  -1.8322  -1.8083  -1.7945  -1.6926  -1.6145
    -1.5995  -1.4954  -1.4895  -1.4499  -1.4204  -1.2827  -1.2782  -1.2407
    -1.1414  -1.1284  -1.0473  -1.0353  -1.0271  -0.8568  -0.7384  -0.7241
    -0.6462  -0.6044  -0.5389  -0.4883  -0.2276  -0.1750  -0.1213  -0.1173
    -0.1148  -0.1064  -0.0702   0.1189   0.1366   0.1510   0.1510   0.2169
     0.2175   0.2245   0.3525   0.5727   0.5744   0.6532   0.6747   0.7420
     0.7614   0.8279   0.8448   0.9131   0.9234   0.9602   0.9672   1.0244
     1.2704   1.2769   1.2935   1.3203   1.3214   1.4366   1.6558   1.6698
     1.7194   1.7644   1.8978   2.0378   2.0961   2.3583   2.3596   5.1969
     5.3178   6.1670   6.6937   6.7279   6.8025   6.8061   6.9697   7.1208
     7.3771   7.4405   7.4794   7.7479   8.0772   8.1318   8.2259   8.2825
     8.4205   8.5532

          k =-0.5000 0.1281 0.0000 ( 39660 PWs)   bands (ev):

   -38.7173 -38.3468 -24.6599 -23.2389 -23.2091 -23.1603 -19.3044 -18.9934
   -18.9625 -18.8074 -18.5872 -18.4479 -15.5673 -15.4190 -15.3296 -15.1686
   -15.1392 -14.9939 -14.8850 -14.8075 -14.6997 -14.6773 -14.3732 -14.3269
   -14.3146 -14.2939 -14.1581 -10.1346  -9.6124  -9.5221  -8.6258  -8.6117
    -8.5885  -8.3249  -8.3143  -8.2985  -8.2851  -8.2284  -8.2035  -3.6889
    -3.5643  -3.4412  -3.0380  -2.6143  -2.5938  -2.5188  -2.4500  -2.3553
    -2.1911  -2.1743  -2.1421  -2.1252  -2.0060  -1.9933  -1.9666  -1.9144
    -1.7997  -1.5879  -1.5826  -1.5158  -1.5129  -1.3852  -1.3400  -1.2074
    -1.2018  -1.1907  -1.1164  -1.0381  -0.9891  -0.7469  -0.6621  -0.5412
    -0.5035  -0.4767  -0.4216  -0.3274  -0.2989  -0.2079  -0.2060  -0.1552
    -0.1078   0.0383   0.0782   0.1830   0.1841   0.2440   0.2938   0.3789
     0.3861   0.4451   0.4688   0.5172   0.5838   0.6725   0.7213   0.7622
     0.8256   0.8589   0.8675   0.8828   0.9718   0.9814   1.0131   1.0278
     1.2246   1.2769   1.3001   1.3545   1.4238   1.5307   1.6388   1.7532
     2.2986   2.3393   2.3434   2.4192   2.4757   2.6685   2.7658   5.3080
     5.4159   5.7074   6.5237   6.5429   6.9302   6.9735   7.0643   7.1500
     7.1537   7.1928   7.6058   7.6915   8.1414   8.3552   8.4104   8.5188
     8.5709   8.7502

          k =-0.5000 0.2563 0.0000 ( 39694 PWs)   bands (ev):

   -38.7118 -38.3413 -24.6245 -23.1995 -23.1696 -23.1213 -19.2857 -19.0215
   -18.9434 -18.9117 -18.6663 -18.5016 -15.3703 -15.2912 -15.1830 -15.0591
   -14.9159 -14.8804 -14.8635 -14.7604 -14.7165 -14.6019 -14.3128 -14.3020
   -14.2867 -14.2711 -14.1834 -10.0979 -10.0281  -9.8139  -8.7909  -8.7619
    -8.6865  -8.6361  -8.6097  -8.5909  -8.5638  -8.5568  -8.5182  -4.1414
    -3.9568  -3.6843  -3.2706  -2.9654  -2.8009  -2.7376  -2.6732  -2.6133
    -2.5705  -2.5697  -2.4594  -2.4183  -2.4171  -2.3620  -2.3582  -2.2903
    -1.9519  -1.8880  -1.8295  -1.6228  -1.4240  -1.3874  -1.2647  -1.2294
    -1.1959  -1.1952  -1.1319  -0.9787  -0.8998  -0.8294  -0.8143  -0.8107
    -0.6272  -0.6078  -0.5193  -0.1758  -0.1387  -0.0163   0.0507   0.1814
     0.1976   0.2332   0.3560   0.3839   0.3850   0.5489   0.6305   0.7251
     0.7408   0.7632   0.7956   0.8419   0.9318   0.9375   0.9439   0.9495
     0.9873   1.0150   1.0390   1.0505   1.0832   1.1660   1.2904   1.3597
     1.3928   1.3978   1.4207   1.4414   1.4739   1.5814   1.6067   1.7168
     2.6468   2.6477   3.1054   3.2846   3.3564   3.4178   3.5894   4.8394
     5.6191   5.6561   6.0080   6.0208   6.4371   6.4392   7.2363   7.4665
     7.8468   7.8655   7.9064   7.9227   8.1870   8.3398   8.5569   8.5971
     8.8168   8.8601

          k =-0.5000 0.3844 0.0000 ( 39830 PWs)   bands (ev):

   -38.7063 -38.3357 -24.5885 -23.1593 -23.1294 -23.0817 -19.2669 -19.2125
   -18.9243 -18.8573 -18.8240 -18.4141 -15.1758 -15.0807 -15.0334 -15.0023
   -14.9277 -14.8498 -14.7861 -14.6434 -14.6316 -14.5757 -14.3416 -14.2618
   -14.2573 -14.2054 -14.0857 -10.4226 -10.1007 -10.0379  -9.1845  -9.1558
    -9.0523  -8.9300  -8.9033  -8.7913  -8.5925  -8.5706  -8.5513  -4.6121
    -4.4126  -4.0514  -3.6334  -3.6232  -3.1040  -3.0988  -3.0000  -2.9171
    -2.8721  -2.7990  -2.7678  -2.5560  -2.4667  -2.4617  -2.4615  -2.3923
    -2.0414  -2.0119  -1.6621  -1.5654  -1.5584  -1.4687  -1.4567  -1.2965
    -1.2854  -1.2473  -1.1033  -1.0530  -1.0361  -1.0311  -0.9417  -0.8574
    -0.7665  -0.5167  -0.5156  -0.1797  -0.0603   0.0546   0.2785   0.3998
     0.4686   0.6316   0.6639   0.7659   0.7989   0.8300   0.8910   0.9280
     0.9399   0.9838   1.0002   1.0785   1.0957   1.1798   1.1966   1.2230
     1.2762   1.2815   1.3208   1.3214   1.3814   1.3887   1.4042   1.4644
     1.6386   1.6438   1.6821   1.6996   1.7265   1.7434   1.8517   1.8531
     2.5654   2.5701   3.5947   3.9475   4.0246   4.0306   4.1686   4.1979
     5.4462   5.4586   5.8758   5.9963   6.0535   6.1303   6.9944   7.6831
     7.7130   8.1899   8.2002   8.3828   8.4284   8.5896   8.6457   8.8142
     8.9442   8.9818

          k =-0.5000-0.5125 0.0000 ( 39764 PWs)   bands (ev):

   -38.7040 -38.3334 -24.5735 -23.1424 -23.1126 -23.0650 -19.2863 -19.2592
   -18.9314 -18.9164 -18.7857 -18.3755 -15.1173 -15.1054 -14.8871 -14.8854
   -14.8607 -14.8558 -14.8278 -14.6611 -14.6021 -14.5505 -14.3358 -14.2557
   -14.2495 -14.1721 -14.0209 -10.5703 -10.2189 -10.0185  -9.3365  -9.3078
    -9.2000  -9.0474  -9.0207  -8.8998  -8.5943  -8.5632  -8.5478  -4.8014
    -4.6010  -4.2201  -3.8694  -3.8024  -3.3419  -3.3365  -3.1314  -2.9449
    -2.9021  -2.8958  -2.8225  -2.5789  -2.4611  -2.4524  -2.4499  -2.4277
    -2.0917  -2.0269  -1.6900  -1.6370  -1.5531  -1.5351  -1.4205  -1.3513
    -1.3291  -1.2764  -1.1933  -1.1188  -1.1144  -1.0088  -0.9520  -0.8703
    -0.8463  -0.4759  -0.4725  -0.1706  -0.0186   0.0748   0.2956   0.4671
     0.6477   0.7807   0.7978   0.8937   0.9299   0.9576   0.9806   0.9864
     0.9947   1.0220   1.0638   1.1501   1.1566   1.2316   1.2334   1.4031
     1.4200   1.4313   1.4484   1.4497   1.4579   1.4920   1.5107   1.5322
     1.5474   1.7606   1.8562   1.9062   1.9481   1.9526   2.0561   2.0602
     2.3895   2.3973   3.7293   3.9132   4.1637   4.2515   4.2595   4.4107
     5.1968   5.2090   5.9227   5.9677   6.0233   6.1828   6.8399   7.5589
     7.7976   8.1122   8.3020   8.3848   8.5068   8.5289   8.5760   8.6174
     8.8825   9.0062

     the Fermi energy is     2.3587 ev

!    total energy              =   -1868.76608357 Ry
     Harris-Foulkes estimate   =   -1868.76608323 Ry
     estimated scf accuracy    <       0.00000048 Ry

     The total energy is the sum of the following terms:

     one-electron contribution =  -23365.15799791 Ry
     hartree contribution      =   11831.33572741 Ry
     xc contribution           =    -642.20273010 Ry
     ewald contribution        =   10307.26736928 Ry
     smearing contrib. (-TS)   =      -0.00845224 Ry

     convergence has been achieved in  37 iterations

     negative rho (up, down):  9.048E-02 0.000E+00

     Forces acting on atoms (cartesian axes, Ry/au):

     atom    1 type  3   force =     0.00000000    0.00000000   -0.00000695
     atom    2 type  2   force =     0.00000000    0.00000000   -0.00105563
     atom    3 type  3   force =     0.00000000    0.00000000    0.00005748
     atom    4 type  1   force =     0.00000000    0.00000000   -0.00011989
     atom    5 type  2   force =     0.00000000    0.00000000   -0.00040474
     atom    6 type  3   force =     0.00000000    0.00000000    0.00058609
     atom    7 type  3   force =     0.00000000    0.00000000    0.00005379
     atom    8 type  4   force =     0.00000000    0.00000000   -0.00090657
     atom    9 type  3   force =     0.00000000    0.00000000    0.00146486
     atom   10 type  3   force =     0.00000000    0.00000000    0.00177394
     atom   11 type  2   force =     0.00000000    0.00000000   -0.00144923
     atom   12 type  1   force =     0.00000000    0.00000000   -0.00570319
     atom   13 type  3   force =     0.00000000    0.00000000    0.00313211
     atom   14 type  3   force =     0.00000000    0.00000000    0.01792443
     atom   15 type  2   force =     0.00000000    0.00000000   -0.01742606
     atom   16 type  3   force =     0.00000000    0.00000000    0.04628291
     atom   17 type  1   force =     0.00000000    0.00000000   -0.04415026
     atom   18 type  2   force =     0.00000000    0.00000000   -0.00144414
     atom   19 type  3   force =     0.00000000    0.00000000    0.02032954
     atom   20 type  3   force =     0.00000000    0.00000000    0.01139643
     atom   21 type  4   force =     0.00000000    0.00000000   -0.04332679
     atom   22 type  3   force =     0.00000000    0.00000000    0.00423796
     atom   23 type  3   force =     0.00000000    0.00000000    0.00721611
     atom   24 type  2   force =     0.00000000    0.00000000    0.00175012
     atom   25 type  1   force =     0.00000000    0.00000000   -0.00186254
     atom   26 type  3   force =     0.00000000    0.00000000    0.00133099
     atom   27 type  2   force =     0.00000000    0.00000000   -0.00016715
     atom   28 type  3   force =     0.00000000    0.00000000    0.00048639

     Total force =     0.085262     Total SCF correction =     0.002272


     Computing stress (Cartesian axis) and pressure


     negative rho (up, down):  9.048E-02 0.000E+00
          total   stress  (Ry/bohr**3)                   (kbar)     P=       -6.14
  -0.00007727   0.00000000   0.00000000          -11.37        0.00        0.00
   0.00000000  -0.00003441   0.00000000            0.00       -5.06        0.00
   0.00000000   0.00000000  -0.00001357            0.00        0.00       -2.00

 
     init_run     :     10.38s CPU     11.16s WALL (       1 calls)
     electrons    :    738.46s CPU    780.12s WALL (       1 calls)
     forces       :      4.39s CPU      4.78s WALL (       1 calls)
     stress       :     46.98s CPU     48.05s WALL (       1 calls)

     Called by init_run:
     wfcinit      :      7.44s CPU      7.62s WALL (       1 calls)
     potinit      :      0.72s CPU      0.74s WALL (       1 calls)
     hinit0       :      1.06s CPU      1.21s WALL (       1 calls)

     Called by electrons:
     c_bands      :    581.65s CPU    596.82s WALL (      37 calls)
     sum_band     :    105.25s CPU    120.26s WALL (      37 calls)
     v_of_rho     :      4.32s CPU      4.36s WALL (      38 calls)
     newd         :     22.40s CPU     33.98s WALL (      38 calls)
     mix_rho      :     24.99s CPU     25.18s WALL (      37 calls)

     Called by c_bands:
     init_us_2    :      4.24s CPU      4.28s WALL (    1925 calls)
     cegterg      :    549.57s CPU    564.17s WALL (     925 calls)

     Called by sum_band:
     sum_band:bec :      0.26s CPU      0.27s WALL (     925 calls)
     addusdens    :     23.31s CPU     37.41s WALL (      37 calls)

     Called by *egterg:
     h_psi        :    247.73s CPU    256.74s WALL (    4617 calls)
     s_psi        :     26.36s CPU     26.66s WALL (    4617 calls)
     g_psi        :      0.79s CPU      0.79s WALL (    3667 calls)
     cdiaghg      :    138.64s CPU    139.26s WALL (    4592 calls)

     Called by h_psi:
     h_psi:calbec :     33.54s CPU     34.82s WALL (    4617 calls)
     vloc_psi     :    185.47s CPU    188.65s WALL (    4617 calls)
     add_vuspsi   :     27.46s CPU     29.94s WALL (    4617 calls)

     General routines
     calbec       :     73.93s CPU     75.34s WALL (    5667 calls)
     fft          :      4.22s CPU      4.33s WALL (     517 calls)
     ffts         :     11.63s CPU     11.73s WALL (   17171 calls)
     fftw         :    213.13s CPU    216.65s WALL (  668914 calls)
     interpolate  :      0.28s CPU      0.28s WALL (      38 calls)
 
     Parallel routines
     fft_scatt_xy :     27.71s CPU     28.13s WALL (  686602 calls)
     fft_scatt_yz :    136.75s CPU    138.95s WALL (  686602 calls)
 
     PWSCF        :  13m21.02s CPU  14m 5.19s WALL

 
   This run was terminated on:  18:10:47   5May2021            

=------------------------------------------------------------------------------=
   JOB DONE.
=------------------------------------------------------------------------------=
[1620252647.173062] [holy7c06302:23917:0]          mpool.c:43   UCX  WARN  object 0x4448040 was not returned to mpool ucp_requests
[1620252647.173079] [holy7c06302:23917:0]          mpool.c:43   UCX  WARN  object 0x4448580 was not returned to mpool ucp_requests
[1620252647.172789] [holy7c06305:7757 :0]          mpool.c:43   UCX  WARN  object 0x4648f40 was not returned to mpool ucp_requests
[1620252647.172804] [holy7c06305:7757 :0]          mpool.c:43   UCX  WARN  object 0x4649100 was not returned to mpool ucp_requests
[1620252647.172543] [holy7c06301:148186:0]          mpool.c:43   UCX  WARN  object 0x31758c0 was not returned to mpool ucp_requests
[1620252647.174242] [holy7c06409:121317:0]          mpool.c:43   UCX  WARN  object 0x3d28780 was not returned to mpool ucp_requests
[1620252647.176274] [holy7c06406:155866:0]          mpool.c:43   UCX  WARN  object 0x2941ac0 was not returned to mpool ucp_requests
[1620252647.176309] [holy7c06406:155866:0]          mpool.c:43   UCX  WARN  object 0x2941c80 was not returned to mpool ucp_requests
[1620252647.179622] [holy7c06303:275241:0]          mpool.c:43   UCX  WARN  object 0x4693f80 was not returned to mpool ucp_requests
[1620252647.176467] [holy7c06311:196995:0]          mpool.c:43   UCX  WARN  object 0x36e9d00 was not returned to mpool ucp_requests
[1620252647.175806] [holy7c06409:121316:0]          mpool.c:43   UCX  WARN  object 0x3072200 was not returned to mpool ucp_requests
