
     Program PWSCF v.6.5 starts on  5May2021 at 17:23:47 

     This program is part of the open-source Quantum ESPRESSO suite
     for quantum simulation of materials; please cite
         "P. Giannozzi et al., J. Phys.:Condens. Matter 21 395502 (2009);
         "P. Giannozzi et al., J. Phys.:Condens. Matter 29 465901 (2017);
          URL http://www.quantum-espresso.org", 
     in publications or presentations arising from this work. More details at
     http://www.quantum-espresso.org/quote

     Parallel version (MPI), running on    20 processors

     MPI processes distributed on    16 nodes
     R & G space division:  proc/nbgrp/npool/nimage =      20
     Reading input from YBCO_Y_cleave_0.5_sep_scf.pwi
Warning: card &IONS ignored
Warning: card     ION_DYNAMICS = 'BFGS' ignored
Warning: card / ignored
Warning: card &CELL ignored
Warning: card     CELL_DYNAMICS = 'BFGS' ignored
Warning: card / ignored

     Current dimensions of program PWSCF are:
     Max number of different atomic species (ntypx) = 10
     Max number of k-points (npk) =  40000
     Max angular momentum in pseudopotentials (lmaxx) =  3

     Subspace diagonalization in iterative solution of the eigenvalue problem:
     one sub-group per band group will be used
     scalapack distributed-memory algorithm (size of sub-group:  4*  4 procs)

     Message from routine setup:
     using ibrav=0 with symmetry is DISCOURAGED, use correct ibrav instead
 
     Parallelization info
     --------------------
     sticks:   dense  smooth     PW     G-vecs:    dense   smooth      PW
     Min         150      50     14                71866    13826    2156
     Max         151      51     15                71905    13849    2201
     Sum        3015    1011    293              1437693   276691   43587
 


     bravais-lattice index     =            0
     lattice parameter (alat)  =       7.3477  a.u.
     unit-cell volume          =    4406.5316 (a.u.)^3
     number of atoms/cell      =           28
     number of atomic types    =            4
     number of electrons       =       229.00
     number of Kohn-Sham states=          138
     kinetic-energy cutoff     =      60.0000  Ry
     charge density cutoff     =     720.0000  Ry
     convergence threshold     =      1.0E-06
     mixing beta               =       0.2000
     number of iterations used =           10  local-TF  mixing
     Exchange-correlation= SLA PW PBE PBE
                           (   1   4   3   4   0   0   0)

     celldm(1)=   7.347715  celldm(2)=   0.000000  celldm(3)=   0.000000
     celldm(4)=   0.000000  celldm(5)=   0.000000  celldm(6)=   0.000000

     crystal axes: (cart. coord. in units of alat)
               a(1) = (   1.000000   0.000000   0.000000 )  
               a(2) = (   0.000000   0.975577   0.000000 )  
               a(3) = (   0.000000   0.000000  11.386186 )  

     reciprocal axes: (cart. coord. in units 2 pi/alat)
               b(1) = (  1.000000  0.000000  0.000000 )  
               b(2) = (  0.000000  1.025034  0.000000 )  
               b(3) = (  0.000000  0.000000  0.087826 )  


     PseudoPot. # 1 for Ba read from file:
     /n/holyscratch01/hoffman_lab/ruizhe/YBCO_Project/pseudo/Ba.pbe-nsp-van.UPF
     MD5 check sum: 2b9c31dd849566dd297d80989662b7a0
     Pseudo is Ultrasoft + core correction, Zval = 10.0
     Generated by new atomic code, or converted to UPF format
     Using radial grid of  907 points,  6 beta functions with: 
                l(1) =   0
                l(2) =   0
                l(3) =   1
                l(4) =   1
                l(5) =   2
                l(6) =   2
     Q(r) pseudized with  6 coefficients,  rinner =    1.200   1.200   1.200
                                                       1.200   1.200

     PseudoPot. # 2 for Cu read from file:
     /n/holyscratch01/hoffman_lab/ruizhe/YBCO_Project/pseudo/Cu.pbe-n-van_ak.UPF
     MD5 check sum: 34e3282627ffb533726feb647e090d62
     Pseudo is Ultrasoft + core correction, Zval = 11.0
     Generated by new atomic code, or converted to UPF format
     Using radial grid of  867 points,  6 beta functions with: 
                l(1) =   0
                l(2) =   0
                l(3) =   1
                l(4) =   1
                l(5) =   2
                l(6) =   2
     Q(r) pseudized with  8 coefficients,  rinner =    1.400   1.400   1.400
                                                       1.400   1.400

     PseudoPot. # 3 for O  read from file:
     /n/holyscratch01/hoffman_lab/ruizhe/YBCO_Project/pseudo/O.pbe-van_ak.UPF
     MD5 check sum: 783ce7fe4c79b6a4916957118fed0856
     Pseudo is Ultrasoft, Zval =  6.0
     Generated by new atomic code, or converted to UPF format
     Using radial grid of  737 points,  4 beta functions with: 
                l(1) =   0
                l(2) =   0
                l(3) =   1
                l(4) =   1
     Q(r) pseudized with  8 coefficients,  rinner =    0.800   0.800   0.800


     PseudoPot. # 4 for Y  read from file:
     /n/holyscratch01/hoffman_lab/ruizhe/YBCO_Project/pseudo/Y.pbe-nsp-van.UPF
     MD5 check sum: 4412fed3ab108fed87a1b7d6a69a4a38
     Pseudo is Ultrasoft + core correction, Zval = 11.0
     Generated by new atomic code, or converted to UPF format
     Using radial grid of  885 points,  6 beta functions with: 
                l(1) =   0
                l(2) =   0
                l(3) =   1
                l(4) =   1
                l(5) =   2
                l(6) =   2
     Q(r) pseudized with  6 coefficients,  rinner =    1.200   1.200   1.200
                                                       1.200   1.200

     atomic species   valence    mass     pseudopotential
        Ba            10.00   137.32700     Ba( 1.00)
        Cu            11.00    63.54600     Cu( 1.00)
        O              6.00    15.99900     O ( 1.00)
        Y             11.00    88.90584     Y ( 1.00)

      4 Sym. Ops. (no inversion) found



   Cartesian axes

     site n.     atom                  positions (alat units)
         1           O   tau(   1) = (   0.0000000   0.4877884  -0.0257983  )
         2           Cu  tau(   2) = (   0.0000000   0.0000000   0.0215779  )
         3           O   tau(   3) = (   0.0000000   0.0000000   0.5073114  )
         4           Ba  tau(   4) = (   0.4999996   0.4877884   0.5319677  )
         5           Cu  tau(   5) = (   0.0000000   0.0000000   1.0495845  )
         6           O   tau(   6) = (   0.4999996   0.0000000   1.1181579  )
         7           O   tau(   7) = (   0.0000000   0.4877884   1.1273137  )
         8           Y   tau(   8) = (   0.4999996   0.4877884   1.4938777  )
         9           O   tau(   9) = (   0.0000000   0.4877884   1.8497402  )
        10           O   tau(  10) = (   0.4999996   0.0000000   1.8692709  )
        11           Cu  tau(  11) = (   0.0000000   0.0000000   1.9417560  )
        12           Ba  tau(  12) = (   0.4999996   0.4877884   2.4526063  )
        13           O   tau(  13) = (   0.0000000   0.0000000   2.5103470  )
        14           O   tau(  14) = (   0.0000000   0.4877884   2.9968469  )
        15           Cu  tau(  15) = (   0.0000000   0.0000000   2.9968521  )
        16           O   tau(  16) = (   0.0000000   0.0000000   3.4833288  )
        17           Ba  tau(  17) = (   0.4999996   0.4877884   3.5410618  )
        18           Cu  tau(  18) = (   0.0000000   0.0000000   4.0519352  )
        19           O   tau(  19) = (   0.4999996   0.0000000   4.1244075  )
        20           O   tau(  20) = (   0.0000000   0.4877884   4.1439202  )
        21           Y   tau(  21) = (   0.4999996   0.4877884   4.4997853  )
        22           O   tau(  22) = (   0.0000000   0.4877884   4.9949420  )
        23           O   tau(  23) = (   0.4999996   0.0000000   5.0041107  )
        24           Cu  tau(  24) = (   0.0000000   0.0000000   5.0726892  )
        25           Ba  tau(  25) = (   0.4999996   0.4877884   5.5902906  )
        26           O   tau(  26) = (   0.0000000   0.0000000   5.6149469  )
        27           Cu  tau(  27) = (   0.0000000   0.0000000   6.1006521  )
        28           O   tau(  28) = (   0.0000000   0.4877884   6.1480334  )

     number of k points=    25  Gaussian smearing, width (Ry)=  0.0100
                       cart. coord. in units 2pi/alat
        k(    1) = (   0.0000000   0.0000000   0.0000000), wk =   0.0312500
        k(    2) = (   0.0000000   0.1281293   0.0000000), wk =   0.0625000
        k(    3) = (   0.0000000   0.2562585   0.0000000), wk =   0.0625000
        k(    4) = (   0.0000000   0.3843878   0.0000000), wk =   0.0625000
        k(    5) = (   0.0000000  -0.5125170   0.0000000), wk =   0.0312500
        k(    6) = (   0.1250000   0.0000000   0.0000000), wk =   0.0625000
        k(    7) = (   0.1250000   0.1281293   0.0000000), wk =   0.1250000
        k(    8) = (   0.1250000   0.2562585   0.0000000), wk =   0.1250000
        k(    9) = (   0.1250000   0.3843878   0.0000000), wk =   0.1250000
        k(   10) = (   0.1250000  -0.5125170   0.0000000), wk =   0.0625000
        k(   11) = (   0.2500000   0.0000000   0.0000000), wk =   0.0625000
        k(   12) = (   0.2500000   0.1281293   0.0000000), wk =   0.1250000
        k(   13) = (   0.2500000   0.2562585   0.0000000), wk =   0.1250000
        k(   14) = (   0.2500000   0.3843878   0.0000000), wk =   0.1250000
        k(   15) = (   0.2500000  -0.5125170   0.0000000), wk =   0.0625000
        k(   16) = (   0.3750000   0.0000000   0.0000000), wk =   0.0625000
        k(   17) = (   0.3750000   0.1281293   0.0000000), wk =   0.1250000
        k(   18) = (   0.3750000   0.2562585   0.0000000), wk =   0.1250000
        k(   19) = (   0.3750000   0.3843878   0.0000000), wk =   0.1250000
        k(   20) = (   0.3750000  -0.5125170   0.0000000), wk =   0.0625000
        k(   21) = (  -0.5000000   0.0000000   0.0000000), wk =   0.0312500
        k(   22) = (  -0.5000000   0.1281293   0.0000000), wk =   0.0625000
        k(   23) = (  -0.5000000   0.2562585   0.0000000), wk =   0.0625000
        k(   24) = (  -0.5000000   0.3843878   0.0000000), wk =   0.0625000
        k(   25) = (  -0.5000000  -0.5125170   0.0000000), wk =   0.0312500

     Dense  grid:  1437693 G-vectors     FFT dimensions: (  64,  64, 720)

     Smooth grid:   276691 G-vectors     FFT dimensions: (  40,  36, 432)

     Estimated max dynamical RAM per process >     459.32 MB

     Estimated total dynamical RAM >       8.97 GB

     Initial potential from superposition of free atoms

     starting charge  228.84827, renormalised to  229.00000

     negative rho (up, down):  8.989E-02 0.000E+00
     Starting wfcs are  201 randomized atomic wfcs

     total cpu time spent up to now is       10.5 secs

     Self-consistent Calculation

     iteration #  1     ecut=    60.00 Ry     beta= 0.20
     Davidson diagonalization with overlap
     ethr =  1.00E-02,  avg # of iterations =  2.0

     negative rho (up, down):  8.755E-02 0.000E+00

     total cpu time spent up to now is       26.7 secs

     total energy              =   -1869.53450401 Ry
     Harris-Foulkes estimate   =   -1871.06129868 Ry
     estimated scf accuracy    <      13.16264527 Ry

     iteration #  2     ecut=    60.00 Ry     beta= 0.20
     Davidson diagonalization with overlap
     ethr =  5.75E-03,  avg # of iterations =  1.0

     negative rho (up, down):  8.613E-02 0.000E+00

     total cpu time spent up to now is       41.3 secs

     total energy              =   -1868.99290248 Ry
     Harris-Foulkes estimate   =   -1869.86766526 Ry
     estimated scf accuracy    <       5.71804826 Ry

     iteration #  3     ecut=    60.00 Ry     beta= 0.20
     Davidson diagonalization with overlap
     ethr =  2.50E-03,  avg # of iterations =  1.0

     negative rho (up, down):  8.545E-02 0.000E+00

     total cpu time spent up to now is       56.1 secs

     total energy              =   -1868.71755075 Ry
     Harris-Foulkes estimate   =   -1869.21836737 Ry
     estimated scf accuracy    <       4.07863601 Ry

     iteration #  4     ecut=    60.00 Ry     beta= 0.20
     Davidson diagonalization with overlap
     ethr =  1.78E-03,  avg # of iterations =  1.3

     negative rho (up, down):  8.547E-02 0.000E+00

     total cpu time spent up to now is       70.9 secs

     total energy              =   -1868.91198977 Ry
     Harris-Foulkes estimate   =   -1868.94968171 Ry
     estimated scf accuracy    <       3.32323208 Ry

     iteration #  5     ecut=    60.00 Ry     beta= 0.20
     Davidson diagonalization with overlap
     ethr =  1.45E-03,  avg # of iterations =  1.0

     negative rho (up, down):  8.633E-02 0.000E+00

     total cpu time spent up to now is       85.7 secs

     total energy              =   -1868.80801110 Ry
     Harris-Foulkes estimate   =   -1868.93723448 Ry
     estimated scf accuracy    <       2.26029036 Ry

     iteration #  6     ecut=    60.00 Ry     beta= 0.20
     Davidson diagonalization with overlap
     ethr =  9.87E-04,  avg # of iterations =  1.0

     negative rho (up, down):  8.696E-02 0.000E+00

     total cpu time spent up to now is      100.1 secs

     total energy              =   -1868.81065055 Ry
     Harris-Foulkes estimate   =   -1868.85622193 Ry
     estimated scf accuracy    <       0.45563777 Ry

     iteration #  7     ecut=    60.00 Ry     beta= 0.20
     Davidson diagonalization with overlap
     ethr =  1.99E-04,  avg # of iterations =  5.6

     negative rho (up, down):  8.781E-02 0.000E+00

     total cpu time spent up to now is      120.9 secs

     total energy              =   -1868.79666336 Ry
     Harris-Foulkes estimate   =   -1868.82463041 Ry
     estimated scf accuracy    <       0.24158830 Ry

     iteration #  8     ecut=    60.00 Ry     beta= 0.20
     Davidson diagonalization with overlap
     ethr =  1.05E-04,  avg # of iterations =  5.6

     negative rho (up, down):  8.940E-02 0.000E+00

     total cpu time spent up to now is      141.4 secs

     total energy              =   -1868.78913824 Ry
     Harris-Foulkes estimate   =   -1868.80752861 Ry
     estimated scf accuracy    <       0.20679924 Ry

     iteration #  9     ecut=    60.00 Ry     beta= 0.20
     Davidson diagonalization with overlap
     ethr =  9.03E-05,  avg # of iterations =  5.6

     negative rho (up, down):  8.946E-02 0.000E+00

     total cpu time spent up to now is      162.1 secs

     total energy              =   -1868.80718168 Ry
     Harris-Foulkes estimate   =   -1868.80755736 Ry
     estimated scf accuracy    <       0.93955657 Ry

     iteration # 10     ecut=    60.00 Ry     beta= 0.20
     Davidson diagonalization with overlap
     ethr =  9.03E-05,  avg # of iterations =  1.0

     negative rho (up, down):  8.983E-02 0.000E+00

     total cpu time spent up to now is      176.7 secs

     total energy              =   -1868.80202130 Ry
     Harris-Foulkes estimate   =   -1868.80804323 Ry
     estimated scf accuracy    <       0.87350456 Ry

     iteration # 11     ecut=    60.00 Ry     beta= 0.20
     Davidson diagonalization with overlap
     ethr =  9.03E-05,  avg # of iterations =  1.0

     negative rho (up, down):  8.988E-02 0.000E+00

     total cpu time spent up to now is      191.3 secs

     total energy              =   -1868.79027799 Ry
     Harris-Foulkes estimate   =   -1868.80344365 Ry
     estimated scf accuracy    <       0.52274228 Ry

     iteration # 12     ecut=    60.00 Ry     beta= 0.20
     Davidson diagonalization with overlap
     ethr =  9.03E-05,  avg # of iterations =  1.0

     negative rho (up, down):  9.042E-02 0.000E+00

     total cpu time spent up to now is      205.8 secs

     total energy              =   -1868.78782785 Ry
     Harris-Foulkes estimate   =   -1868.79413428 Ry
     estimated scf accuracy    <       0.13893784 Ry

     iteration # 13     ecut=    60.00 Ry     beta= 0.20
     Davidson diagonalization with overlap
     ethr =  6.07E-05,  avg # of iterations =  2.0

     negative rho (up, down):  9.024E-02 0.000E+00

     total cpu time spent up to now is      221.8 secs

     total energy              =   -1868.78723191 Ry
     Harris-Foulkes estimate   =   -1868.78984466 Ry
     estimated scf accuracy    <       0.02613351 Ry

     iteration # 14     ecut=    60.00 Ry     beta= 0.20
     Davidson diagonalization with overlap
     ethr =  1.14E-05,  avg # of iterations =  9.0

     negative rho (up, down):  9.012E-02 0.000E+00

     total cpu time spent up to now is      247.3 secs

     total energy              =   -1868.78700659 Ry
     Harris-Foulkes estimate   =   -1868.78796444 Ry
     estimated scf accuracy    <       0.01743446 Ry

     iteration # 15     ecut=    60.00 Ry     beta= 0.20
     Davidson diagonalization with overlap
     ethr =  7.61E-06,  avg # of iterations =  3.0

     negative rho (up, down):  8.994E-02 0.000E+00

     total cpu time spent up to now is      264.1 secs

     total energy              =   -1868.78616125 Ry
     Harris-Foulkes estimate   =   -1868.78718384 Ry
     estimated scf accuracy    <       0.01706142 Ry

     iteration # 16     ecut=    60.00 Ry     beta= 0.20
     Davidson diagonalization with overlap
     ethr =  7.45E-06,  avg # of iterations =  2.0

     negative rho (up, down):  8.941E-02 0.000E+00

     total cpu time spent up to now is      279.5 secs

     total energy              =   -1868.78636352 Ry
     Harris-Foulkes estimate   =   -1868.78675669 Ry
     estimated scf accuracy    <       0.03107188 Ry

     iteration # 17     ecut=    60.00 Ry     beta= 0.20
     Davidson diagonalization with overlap
     ethr =  7.45E-06,  avg # of iterations =  1.1

     negative rho (up, down):  8.929E-02 0.000E+00

     total cpu time spent up to now is      294.2 secs

     total energy              =   -1868.78609499 Ry
     Harris-Foulkes estimate   =   -1868.78657948 Ry
     estimated scf accuracy    <       0.04532704 Ry

     iteration # 18     ecut=    60.00 Ry     beta= 0.20
     Davidson diagonalization with overlap
     ethr =  7.45E-06,  avg # of iterations =  1.0

     negative rho (up, down):  9.873E-02 0.000E+00

     total cpu time spent up to now is      308.5 secs

     total energy              =   -1868.78339896 Ry
     Harris-Foulkes estimate   =   -1868.78614239 Ry
     estimated scf accuracy    <       0.03789270 Ry

     iteration # 19     ecut=    60.00 Ry     beta= 0.20
     Davidson diagonalization with overlap
     ethr =  7.45E-06,  avg # of iterations =  6.3

     negative rho (up, down):  1.173E-01 0.000E+00

     total cpu time spent up to now is      330.0 secs

     total energy              =   -1868.78281028 Ry
     Harris-Foulkes estimate   =   -1868.78415643 Ry
     estimated scf accuracy    <       0.00988444 Ry

     iteration # 20     ecut=    60.00 Ry     beta= 0.20
     Davidson diagonalization with overlap
     ethr =  4.32E-06,  avg # of iterations =  7.9

     negative rho (up, down):  1.117E-01 0.000E+00

     total cpu time spent up to now is      354.2 secs

     total energy              =   -1868.78268885 Ry
     Harris-Foulkes estimate   =   -1868.78325178 Ry
     estimated scf accuracy    <       0.00533784 Ry

     iteration # 21     ecut=    60.00 Ry     beta= 0.20
     Davidson diagonalization with overlap
     c_bands:  1 eigenvalues not converged
     ethr =  2.33E-06,  avg # of iterations =  4.0

     negative rho (up, down):  1.103E-01 0.000E+00

     total cpu time spent up to now is      372.1 secs

     total energy              =   -1868.78188793 Ry
     Harris-Foulkes estimate   =   -1868.78278556 Ry
     estimated scf accuracy    <       0.00429602 Ry

     iteration # 22     ecut=    60.00 Ry     beta= 0.20
     Davidson diagonalization with overlap
     ethr =  1.88E-06,  avg # of iterations =  7.0

     negative rho (up, down):  1.050E-01 0.000E+00

     total cpu time spent up to now is      395.0 secs

     total energy              =   -1868.78184851 Ry
     Harris-Foulkes estimate   =   -1868.78204902 Ry
     estimated scf accuracy    <       0.00155794 Ry

     iteration # 23     ecut=    60.00 Ry     beta= 0.20
     Davidson diagonalization with overlap
     ethr =  6.80E-07,  avg # of iterations =  3.1

     negative rho (up, down):  1.037E-01 0.000E+00

     total cpu time spent up to now is      411.9 secs

     total energy              =   -1868.78151554 Ry
     Harris-Foulkes estimate   =   -1868.78187100 Ry
     estimated scf accuracy    <       0.00124902 Ry

     iteration # 24     ecut=    60.00 Ry     beta= 0.20
     Davidson diagonalization with overlap
     ethr =  5.45E-07,  avg # of iterations =  6.6

     negative rho (up, down):  1.017E-01 0.000E+00

     total cpu time spent up to now is      434.1 secs

     total energy              =   -1868.78149577 Ry
     Harris-Foulkes estimate   =   -1868.78156581 Ry
     estimated scf accuracy    <       0.00068122 Ry

     iteration # 25     ecut=    60.00 Ry     beta= 0.20
     Davidson diagonalization with overlap
     ethr =  2.97E-07,  avg # of iterations =  2.0

     negative rho (up, down):  9.179E-02 0.000E+00

     total cpu time spent up to now is      450.1 secs

     total energy              =   -1868.78131660 Ry
     Harris-Foulkes estimate   =   -1868.78150425 Ry
     estimated scf accuracy    <       0.00069708 Ry

     iteration # 26     ecut=    60.00 Ry     beta= 0.20
     Davidson diagonalization with overlap
     c_bands:  1 eigenvalues not converged
     ethr =  2.97E-07,  avg # of iterations =  7.8

     negative rho (up, down):  9.044E-02 0.000E+00

     total cpu time spent up to now is      473.9 secs

     total energy              =   -1868.78134056 Ry
     Harris-Foulkes estimate   =   -1868.78133475 Ry
     estimated scf accuracy    <       0.00025016 Ry

     iteration # 27     ecut=    60.00 Ry     beta= 0.20
     Davidson diagonalization with overlap
     c_bands:  1 eigenvalues not converged
     ethr =  1.09E-07,  avg # of iterations =  3.7

     negative rho (up, down):  9.046E-02 0.000E+00

     total cpu time spent up to now is      491.8 secs

     total energy              =   -1868.78135676 Ry
     Harris-Foulkes estimate   =   -1868.78134903 Ry
     estimated scf accuracy    <       0.00005158 Ry

     iteration # 28     ecut=    60.00 Ry     beta= 0.20
     Davidson diagonalization with overlap
     c_bands:  1 eigenvalues not converged
     ethr =  2.25E-08,  avg # of iterations =  4.0

     negative rho (up, down):  9.026E-02 0.000E+00

     total cpu time spent up to now is      510.2 secs

     total energy              =   -1868.78136823 Ry
     Harris-Foulkes estimate   =   -1868.78135923 Ry
     estimated scf accuracy    <       0.00002856 Ry

     iteration # 29     ecut=    60.00 Ry     beta= 0.20
     Davidson diagonalization with overlap
     ethr =  1.25E-08,  avg # of iterations =  2.8

     negative rho (up, down):  9.022E-02 0.000E+00

     total cpu time spent up to now is      526.9 secs

     total energy              =   -1868.78138574 Ry
     Harris-Foulkes estimate   =   -1868.78136903 Ry
     estimated scf accuracy    <       0.00002005 Ry

     iteration # 30     ecut=    60.00 Ry     beta= 0.20
     Davidson diagonalization with overlap
     ethr =  8.76E-09,  avg # of iterations =  3.4

     negative rho (up, down):  9.026E-02 0.000E+00

     total cpu time spent up to now is      544.4 secs

     total energy              =   -1868.78138694 Ry
     Harris-Foulkes estimate   =   -1868.78138661 Ry
     estimated scf accuracy    <       0.00000793 Ry

     iteration # 31     ecut=    60.00 Ry     beta= 0.20
     Davidson diagonalization with overlap
     ethr =  3.46E-09,  avg # of iterations =  2.0

     negative rho (up, down):  9.042E-02 0.000E+00

     total cpu time spent up to now is      560.3 secs

     total energy              =   -1868.78138859 Ry
     Harris-Foulkes estimate   =   -1868.78138726 Ry
     estimated scf accuracy    <       0.00000320 Ry

     iteration # 32     ecut=    60.00 Ry     beta= 0.20
     Davidson diagonalization with overlap
     ethr =  1.40E-09,  avg # of iterations =  1.5

     negative rho (up, down):  9.052E-02 0.000E+00

     total cpu time spent up to now is      575.6 secs

     total energy              =   -1868.78138878 Ry
     Harris-Foulkes estimate   =   -1868.78138871 Ry
     estimated scf accuracy    <       0.00000240 Ry

     iteration # 33     ecut=    60.00 Ry     beta= 0.20
     Davidson diagonalization with overlap
     ethr =  1.05E-09,  avg # of iterations =  1.0

     negative rho (up, down):  9.059E-02 0.000E+00

     total cpu time spent up to now is      589.7 secs

     End of self-consistent calculation

          k = 0.0000 0.0000 0.0000 ( 34453 PWs)   bands (ev):

   -39.1101 -37.9030 -22.5630 -22.5458 -22.4103 -22.3837 -19.2461 -19.0453
   -19.0437 -18.4379 -17.9079 -17.8975 -15.2429 -15.2337 -14.5426 -14.3241
   -14.3078 -14.2692 -14.0474 -14.0273 -14.0193 -13.7574 -13.5456 -13.5307
   -13.3604 -13.2983 -13.1921  -7.8373  -7.7832  -7.6573  -7.5757  -7.5553
    -7.5286  -7.4937  -7.4766  -7.4195  -7.3902  -7.3348  -7.3190  -2.0571
    -2.0497  -1.8623  -1.8298  -1.7728  -1.6838  -1.6465  -1.6395  -1.6294
    -1.5761  -1.4969  -1.2166  -1.1476  -0.6646  -0.6600  -0.5462  -0.5302
    -0.3011  -0.2494  -0.2470  -0.2453  -0.1117   0.1143   0.1437   0.1677
     0.1802   0.2013   0.3455   0.3543   0.3659   0.3716   0.4246   0.4416
     0.4744   0.4988   0.4996   0.5075   0.5944   0.6097   0.6099   0.6195
     0.7337   0.7509   0.7516   0.7580   0.7587   0.7743   0.8749   0.8768
     0.8825   1.1504   1.2937   1.3302   1.3649   1.3968   1.4522   1.5092
     1.5284   1.5813   1.6077   1.6741   1.7125   1.7182   1.7808   1.9671
     2.0136   2.0432   2.0712   2.1568   2.1994   2.3739   2.3970   2.4602
     2.5093   2.5622   2.5761   2.6452   2.6458   2.8828   2.8879   5.0506
     5.4893   5.6221   5.9639   6.3000   6.8824   6.8960   7.1097   7.2342
     7.5341   7.5763   7.8640   8.2718   8.3923   8.3952   8.5588   8.6511
     8.8719   8.9287

          k = 0.0000 0.1281 0.0000 ( 34501 PWs)   bands (ev):

   -39.1083 -37.9007 -22.5414 -22.5251 -22.3886 -22.3629 -19.2393 -19.0877
   -19.0411 -18.4020 -18.0018 -17.9047 -15.1817 -15.1253 -14.5048 -14.3253
   -14.2904 -14.2603 -14.0561 -14.0337 -13.9889 -13.8040 -13.5509 -13.5385
   -13.3928 -13.3548 -13.2586  -7.8266  -7.7662  -7.6464  -7.5586  -7.5481
    -7.5141  -7.4959  -7.4554  -7.4104  -7.3778  -7.3383  -7.2958  -2.2185
    -2.0119  -1.9686  -1.9429  -1.8131  -1.7394  -1.7082  -1.6470  -1.5946
    -1.5020  -1.4814  -1.4087  -1.1186  -1.1082  -0.7649  -0.7629  -0.6696
    -0.6165  -0.5898  -0.4569  -0.3292  -0.2166  -0.1665  -0.0414   0.0225
     0.0382   0.0920   0.1048   0.1117   0.1189   0.2029   0.2309   0.3744
     0.4687   0.4867   0.5062   0.5075   0.5990   0.6561   0.7250   0.7393
     0.7581   0.7661   0.7827   0.7966   0.8359   0.8760   0.9610   1.0622
     1.0740   1.1335   1.1361   1.2649   1.3071   1.4011   1.4768   1.4976
     1.6527   1.6779   1.7013   1.7289   1.7471   1.8713   1.8966   1.9650
     1.9898   2.0368   2.0640   2.1755   2.1803   2.3557   2.3575   2.3986
     2.4868   2.5096   2.5778   2.8325   3.1656   3.2176   3.2466   5.3372
     5.8641   5.9373   6.2221   6.4863   7.1448   7.2143   7.4098   7.4560
     7.5150   7.7831   8.0492   8.3349   8.3565   8.5449   8.7143   8.8951
     8.9466   9.1028

          k = 0.0000 0.2563 0.0000 ( 34540 PWs)   bands (ev):

   -39.1038 -37.8951 -22.4884 -22.4740 -22.3351 -22.3118 -19.2747 -19.1325
   -19.0349 -18.3110 -18.2268 -17.8969 -15.0271 -14.8781 -14.4485 -14.3570
   -14.3407 -14.1490 -14.1107 -14.0665 -13.9220 -13.8711 -13.5281 -13.5248
   -13.4903 -13.4791 -13.4195  -7.7997  -7.7254  -7.6162  -7.5892  -7.5390
    -7.5161  -7.4534  -7.4109  -7.3803  -7.3600  -7.2732  -7.1984  -2.5392
    -2.3944  -2.2580  -2.0935  -2.0893  -1.8764  -1.7968  -1.7513  -1.6865
    -1.6721  -1.5262  -1.5225  -1.4561  -1.4285  -1.3948  -1.0362  -0.9747
    -0.7279  -0.6855  -0.6406  -0.5584  -0.4597  -0.4249  -0.3421  -0.2873
    -0.2703  -0.1946  -0.1772  -0.1363  -0.1111  -0.0719  -0.0463   0.1637
     0.1684   0.2068   0.3103   0.3379   0.4180   0.5401   0.6122   0.6385
     0.7387   0.7936   0.8117   0.8437   0.8845   0.9342   0.9904   1.1049
     1.3950   1.3978   1.4544   1.4789   1.5348   1.5408   1.6143   1.6254
     1.7038   1.7265   1.7519   1.8132   1.8241   1.8381   1.9752   2.0022
     2.0264   2.0633   2.1972   2.3029   2.3331   2.3667   2.4254   2.4761
     2.4850   2.6195   2.7291   2.9531   3.5001   3.5305   4.0625   5.9575
     6.7584   6.7899   6.8804   7.0164   7.2080   7.7112   8.0648   8.0908
     8.2049   8.2259   8.4065   8.4744   8.7404   8.8264   8.9859   9.1241
     9.1933   9.3037

          k = 0.0000 0.3844 0.0000 ( 34436 PWs)   bands (ev):

   -39.0993 -37.8895 -22.4338 -22.4216 -22.2801 -22.2593 -19.3710 -19.1092
   -19.0288 -18.4246 -18.2128 -17.8892 -14.8410 -14.6301 -14.5244 -14.4986
   -14.3342 -14.2157 -14.0166 -13.9953 -13.8842 -13.8676 -13.6509 -13.6270
   -13.5711 -13.4692 -13.4584  -7.7675  -7.6853  -7.6223  -7.5883  -7.5721
    -7.4893  -7.4721  -7.4198  -7.3018  -7.2597  -7.1626  -7.0958  -2.8811
    -2.7681  -2.7328  -2.5255  -2.4953  -2.3530  -2.3145  -1.7570  -1.7048
    -1.6845  -1.6515  -1.5854  -1.4666  -1.4255  -1.3336  -1.2151  -1.0141
    -0.9785  -0.8115  -0.7449  -0.6624  -0.6277  -0.6147  -0.5337  -0.5301
    -0.4538  -0.4526  -0.3776  -0.3557  -0.3348  -0.3342  -0.2020  -0.1115
    -0.0800  -0.0741   0.0849   0.1233   0.1828   0.3810   0.3950   0.6533
     0.7441   0.7889   0.8356   0.8677   0.9284   1.0376   1.0945   1.2596
     1.4019   1.4823   1.4882   1.5210   1.6062   1.6169   1.6706   1.6791
     1.7109   1.7988   1.8028   1.8820   1.9210   2.0799   2.1345   2.1607
     2.2046   2.3374   2.3755   2.3839   2.4249   2.4465   2.4628   2.6706
     2.7313   2.8836   2.8907   2.8946   3.4707   3.4946   4.6264   6.6928
     7.0008   7.4762   7.6538   7.7529   7.8639   8.0162   8.0925   8.1962
     8.5489   8.8408   9.0124   9.0507   9.1361   9.2601   9.3023   9.3770
     9.5328   9.6384

          k = 0.0000-0.5125 0.0000 ( 34590 PWs)   bands (ev):

   -39.0974 -37.8872 -22.4108 -22.3995 -22.2569 -22.2372 -19.4143 -19.0941
   -19.0262 -18.5006 -18.1697 -17.8859 -14.6986 -14.6337 -14.5807 -14.4984
   -14.3629 -14.2808 -13.9280 -13.8683 -13.8364 -13.8261 -13.7909 -13.7892
   -13.6188 -13.4379 -13.4270  -7.7509  -7.6689  -7.6338  -7.6013  -7.5596
    -7.5021  -7.4537  -7.4374  -7.2548  -7.2167  -7.1148  -7.0517  -3.0889
    -2.9049  -2.8914  -2.6794  -2.6613  -2.5846  -2.5216  -1.7804  -1.7394
    -1.7190  -1.6771  -1.4866  -1.3625  -1.3253  -1.3155  -1.3072  -1.2638
    -1.0518  -0.8608  -0.8098  -0.7692  -0.6512  -0.6460  -0.6050  -0.5885
    -0.5366  -0.4819  -0.4530  -0.4296  -0.4160  -0.3736  -0.2917  -0.1852
    -0.1670  -0.1621  -0.0958  -0.0486   0.1300   0.2828   0.3888   0.7248
     0.7571   0.7605   0.8416   0.8741   0.9215   1.0220   1.0425   1.3212
     1.3998   1.4982   1.5286   1.5697   1.6417   1.6459   1.6594   1.7471
     1.7502   1.7710   1.7845   1.8614   2.0961   2.1561   2.1629   2.2487
     2.2690   2.3239   2.3538   2.4522   2.5326   2.5859   2.6984   2.7479
     2.7527   2.8296   3.0460   3.0525   3.3339   3.3558   4.8054   6.9236
     7.3256   7.6160   7.8581   7.9314   8.0499   8.1394   8.1625   8.2686
     8.7827   8.9927   9.1413   9.3276   9.3918   9.4167   9.4418   9.5509
     9.6129   9.7667

          k = 0.1250 0.0000 0.0000 ( 34512 PWs)   bands (ev):

   -39.1087 -37.9012 -22.5446 -22.5281 -22.3917 -22.3661 -19.2404 -19.0833
   -19.0433 -18.4055 -18.0080 -17.8950 -15.1804 -15.1182 -14.5135 -14.3494
   -14.3150 -14.3000 -14.0951 -14.0751 -13.9975 -13.7861 -13.5461 -13.5312
   -13.3944 -13.3572 -13.2168  -7.8637  -7.7933  -7.6849  -7.5883  -7.5203
    -7.4944  -7.4447  -7.4439  -7.3821  -7.3554  -7.2986  -7.2869  -2.1938
    -2.0090  -1.9544  -1.8731  -1.7804  -1.7199  -1.6912  -1.6278  -1.5807
    -1.5655  -1.5198  -1.3478  -1.1879  -0.6618  -0.6551  -0.5752  -0.5731
    -0.3470  -0.3389  -0.2415  -0.2398  -0.1863  -0.0625   0.0108   0.0593
     0.0712   0.0897   0.1256   0.1657   0.1734   0.2278   0.3568   0.3824
     0.4035   0.4825   0.6197   0.6211   0.6432   0.6892   0.7224   0.7254
     0.7419   0.7583   0.7848   0.8106   0.8280   0.8303   0.8645   0.8703
     0.8962   0.9201   1.1924   1.2255   1.3787   1.4082   1.4214   1.4557
     1.4593   1.4718   1.6240   1.6692   1.7107   1.7595   1.7608   1.9389
     1.9885   2.0362   2.1880   2.2535   2.3436   2.3899   2.4031   2.4675
     2.5468   2.5605   2.5659   2.6424   2.6963   2.9284   2.9514   5.2810
     5.6836   5.7705   6.1600   6.4372   7.0979   7.1368   7.3177   7.4610
     7.5027   7.7588   8.0607   8.2948   8.3758   8.5353   8.6995   8.9087
     8.9982   9.1159

          k = 0.1250 0.1281 0.0000 ( 34530 PWs)   bands (ev):

   -39.1069 -37.8989 -22.5238 -22.5080 -22.3707 -22.3459 -19.2344 -19.0947
   -19.0705 -18.3700 -18.0116 -17.9903 -15.1222 -15.0107 -14.4734 -14.3353
   -14.3015 -14.2887 -14.0915 -14.0715 -13.9698 -13.8399 -13.5455 -13.5325
   -13.4236 -13.3976 -13.2718  -7.8493  -7.7806  -7.6863  -7.6678  -7.5901
    -7.5853  -7.5190  -7.4543  -7.3705  -7.3165  -7.2330  -7.1636  -2.3202
    -2.0625  -2.0162  -2.0028  -1.8132  -1.7707  -1.7159  -1.6614  -1.6131
    -1.5427  -1.4404  -1.3900  -1.3254  -1.1207  -0.7591  -0.7581  -0.6705
    -0.6101  -0.5728  -0.5606  -0.4763  -0.3877  -0.2791  -0.2306  -0.1724
    -0.1133  -0.0281   0.0280   0.0982   0.1005   0.1714   0.2970   0.3829
     0.4325   0.4786   0.4934   0.5119   0.6334   0.6665   0.7003   0.7082
     0.7331   0.8074   0.8102   0.8114   0.8339   0.8962   0.9419   1.0607
     1.0639   1.1536   1.2089   1.2309   1.3582   1.4072   1.4587   1.4756
     1.5699   1.6721   1.6830   1.7259   1.7550   1.7663   1.8469   1.8518
     2.0552   2.0862   2.0965   2.1335   2.1940   2.2154   2.4246   2.6286
     2.6774   2.7673   2.9270   2.9711   3.1853   3.2291   3.2621   5.5030
     6.0093   6.0611   6.3757   6.5977   7.3273   7.3721   7.4423   7.6008
     7.7115   7.9817   8.1710   8.2765   8.4218   8.6941   8.8104   8.9202
     9.0909   9.2102

          k = 0.1250 0.2563 0.0000 ( 34558 PWs)   bands (ev):

   -39.1024 -37.8933 -22.4726 -22.4586 -22.3192 -22.2965 -19.2703 -19.1407
   -19.0619 -18.2802 -18.2223 -17.9924 -14.9753 -14.7660 -14.4152 -14.3431
   -14.3420 -14.1647 -14.1129 -14.0704 -13.9287 -13.9037 -13.5272 -13.5195
   -13.4962 -13.4899 -13.4116  -7.8152  -7.7919  -7.7420  -7.7255  -7.6517
    -7.6136  -7.5625  -7.5209  -7.3264  -7.2780  -7.1893  -7.1257  -2.6359
    -2.4950  -2.2864  -2.1191  -2.0846  -1.9506  -1.8160  -1.7449  -1.7259
    -1.6850  -1.6180  -1.5290  -1.5200  -1.3892  -1.3435  -1.2733  -1.0100
    -0.8977  -0.7380  -0.7101  -0.5948  -0.5799  -0.5721  -0.5062  -0.4496
    -0.3412  -0.3223  -0.2780  -0.1069  -0.0720  -0.0393   0.0304   0.1557
     0.1732   0.2797   0.3913   0.4318   0.4898   0.5719   0.6039   0.6849
     0.6934   0.7388   0.8199   0.8441   0.8632   0.9874   1.1987   1.2492
     1.2879   1.4229   1.4303   1.4986   1.5098   1.6004   1.6235   1.6502
     1.6566   1.6866   1.8302   1.8828   1.9030   1.9298   1.9553   2.0114
     2.0222   2.0383   2.1021   2.1681   2.4345   2.4537   2.4606   2.6595
     2.9276   2.9882   3.1848   3.2061   3.5050   3.5368   4.0624   6.0196
     6.8121   6.8439   6.8782   7.0804   7.1171   7.8507   8.0546   8.1598
     8.2680   8.3703   8.5624   8.6192   8.7207   8.8394   9.0144   9.1329
     9.2142   9.3173

          k = 0.1250 0.3844 0.0000 ( 34567 PWs)   bands (ev):

   -39.0979 -37.8878 -22.4200 -22.4080 -22.2663 -22.2458 -19.3669 -19.1270
   -19.0451 -18.4186 -18.1834 -17.9825 -14.7995 -14.5290 -14.4977 -14.4526
   -14.3066 -14.1874 -13.9996 -13.9923 -13.9338 -13.8613 -13.6462 -13.6165
   -13.5517 -13.4652 -13.4544  -7.7966  -7.7816  -7.7519  -7.6953  -7.6625
    -7.6031  -7.5773  -7.4836  -7.3744  -7.3168  -7.2371  -7.1705  -2.9563
    -2.8790  -2.7629  -2.5756  -2.5226  -2.3429  -2.3124  -1.8442  -1.7414
    -1.7345  -1.6895  -1.5569  -1.5559  -1.4513  -1.3383  -1.3145  -1.1485
    -1.1155  -1.0497  -0.9627  -0.9177  -0.7640  -0.6737  -0.5911  -0.5565
    -0.4369  -0.4205  -0.3819  -0.3248  -0.2530  -0.2385  -0.2117  -0.0857
    -0.0769   0.1045   0.2606   0.3009   0.4377   0.4720   0.4880   0.6937
     0.7022   0.8044   0.8221   0.8392   0.8816   1.1858   1.2775   1.3186
     1.3483   1.4821   1.5190   1.5747   1.6477   1.6702   1.7125   1.7290
     1.7666   1.8025   1.8139   1.9493   1.9848   2.0667   2.1040   2.1303
     2.3152   2.3444   2.3696   2.4646   2.4724   2.7468   2.8577   2.8669
     2.9620   2.9946   3.1865   3.2035   3.4945   3.5165   4.6048   6.5073
     7.0210   7.2688   7.5304   7.6170   7.7475   7.9936   8.0941   8.3083
     8.5691   8.8165   8.9867   9.0330   9.2355   9.2536   9.3866   9.5000
     9.6855   9.7193

          k = 0.1250-0.5125 0.0000 ( 34552 PWs)   bands (ev):

   -39.0960 -37.8854 -22.3979 -22.3866 -22.2439 -22.2244 -19.4103 -19.1180
   -19.0363 -18.4941 -18.1409 -17.9784 -14.6667 -14.6005 -14.5398 -14.3809
   -14.3188 -14.2468 -13.9239 -13.8987 -13.8284 -13.8135 -13.7955 -13.7636
   -13.5903 -13.4367 -13.4263  -7.7713  -7.7647  -7.7306  -7.6816  -7.6397
    -7.5992  -7.5684  -7.4672  -7.4224  -7.3516  -7.2844  -7.2102  -3.1197
    -3.0245  -2.9696  -2.7187  -2.6973  -2.5790  -2.5339  -1.8063  -1.7542
    -1.7201  -1.6240  -1.6208  -1.5075  -1.4638  -1.4293  -1.3245  -1.2180
    -1.2029  -1.1209  -1.0184  -1.0081  -0.8803  -0.7933  -0.6580  -0.5819
    -0.4496  -0.4154  -0.3990  -0.3575  -0.3236  -0.3196  -0.2705  -0.1750
    -0.1687   0.1212   0.1442   0.2404   0.3439   0.4264   0.4684   0.6957
     0.7152   0.8255   0.8265   0.8404   0.9244   1.2131   1.2780   1.2963
     1.4170   1.4967   1.5451   1.5999   1.6328   1.6829   1.6942   1.7744
     1.7840   1.7876   1.8372   1.9673   2.0454   2.1631   2.2056   2.2611
     2.3388   2.4632   2.5238   2.7410   2.7457   2.8053   2.9283   2.9476
     3.0250   3.0329   3.1000   3.1155   3.3849   3.3996   4.7733   6.5768
     7.3625   7.3670   7.7043   7.7164   7.8142   8.0537   8.1717   8.2728
     8.8510   8.9505   9.2388   9.3253   9.4840   9.5342   9.5625   9.6792
     9.7273   9.7370

          k = 0.2500 0.0000 0.0000 ( 34588 PWs)   bands (ev):

   -39.1053 -37.8969 -22.4994 -22.4847 -22.3460 -22.3228 -19.2673 -19.1330
   -19.0386 -18.3236 -18.2231 -17.8890 -15.0239 -14.8537 -14.4800 -14.4286
   -14.4017 -14.3368 -14.2050 -14.1640 -13.9600 -13.8197 -13.5404 -13.5272
   -13.4970 -13.4872 -13.2629  -7.9231  -7.8035  -7.6741  -7.5981  -7.4503
    -7.4091  -7.3904  -7.3657  -7.3130  -7.2687  -7.2302  -7.2070  -2.4597
    -2.2635  -2.1665  -1.9643  -1.8882  -1.7318  -1.6773  -1.6359  -1.6092
    -1.5307  -1.4353  -1.4231  -1.1063  -0.7974  -0.7329  -0.6702  -0.6534
    -0.5515  -0.4674  -0.4418  -0.4165  -0.3243  -0.2281  -0.2262  -0.1995
    -0.1784  -0.1414  -0.1173  -0.0675  -0.0425   0.0876   0.2000   0.3273
     0.3371   0.3612   0.4490   0.4910   0.4955   0.6508   0.6670   0.7280
     0.7343   0.7443   0.8070   0.8850   0.9062   0.9358   0.9605   0.9823
     1.0318   1.0654   1.1380   1.3053   1.3254   1.3769   1.4925   1.4927
     1.5100   1.5273   1.5716   1.6219   1.7772   1.7805   1.8081   1.8359
     1.8925   2.0847   2.1383   2.2308   2.2506   2.3905   2.4061   2.4263
     2.4597   2.6391   2.7195   2.8039   2.8521   3.0676   3.0995   5.8251
     6.1365   6.1715   6.5889   6.8861   7.3443   7.5997   7.7671   7.8691
     8.0175   8.2617   8.3300   8.3385   8.5382   8.9452   8.9886   9.1333
     9.1760   9.3856

          k = 0.2500 0.1281 0.0000 ( 34584 PWs)   bands (ev):

   -39.1034 -37.8946 -22.4804 -22.4663 -22.3270 -22.3044 -19.2619 -19.1412
   -19.0676 -18.2895 -18.2173 -17.9890 -14.9735 -14.7491 -14.4376 -14.3905
   -14.3647 -14.3322 -14.1803 -14.1367 -13.9315 -13.8845 -13.5301 -13.5168
   -13.5103 -13.5003 -13.2940  -7.9201  -7.8111  -7.6959  -7.6756  -7.6378
    -7.6335  -7.5282  -7.4874  -7.2963  -7.2496  -7.1591  -7.1002  -2.5791
    -2.3999  -2.2134  -2.0138  -1.9625  -1.7606  -1.7342  -1.7018  -1.6512
    -1.6064  -1.4221  -1.3533  -1.3135  -1.1434  -0.9634  -0.8163  -0.7766
    -0.7553  -0.7542  -0.6148  -0.6096  -0.5805  -0.5791  -0.5047  -0.4145
    -0.3243  -0.2065  -0.1212  -0.0460   0.0181   0.1528   0.2226   0.3230
     0.3858   0.3948   0.4414   0.4685   0.5482   0.5872   0.6211   0.6623
     0.6992   0.7287   0.9067   0.9250   0.9345   0.9948   1.0542   1.0706
     1.1461   1.2678   1.3177   1.3495   1.3979   1.4545   1.5385   1.5444
     1.6099   1.6393   1.6589   1.6955   1.7542   1.7676   1.7924   1.9482
     1.9592   2.0471   2.0532   2.1321   2.2011   2.2471   2.4308   2.7040
     2.9881   3.0199   3.2032   3.2205   3.2475   3.3372   3.3639   5.9343
     6.3787   6.4053   6.6650   7.0135   7.1326   7.7852   8.0213   8.0967
     8.1172   8.1972   8.4208   8.5269   8.6615   8.8944   9.0293   9.1782
     9.2526   9.3684

          k = 0.2500 0.2563 0.0000 ( 34583 PWs)   bands (ev):

   -39.0990 -37.8890 -22.4339 -22.4210 -22.2802 -22.2591 -19.2691 -19.2112
   -19.0621 -18.2231 -18.2038 -18.1867 -14.8476 -14.5185 -14.3892 -14.3315
   -14.3190 -14.2036 -14.1305 -14.0612 -14.0311 -13.8632 -13.5717 -13.5173
   -13.4976 -13.4824 -13.3871  -7.9981  -7.9631  -7.8635  -7.8611  -7.7443
    -7.7374  -7.6272  -7.5362  -7.3935  -7.3421  -7.2580  -7.1939  -2.9226
    -2.8198  -2.4400  -2.2663  -2.0586  -2.0297  -1.9001  -1.8267  -1.7492
    -1.7300  -1.6973  -1.6472  -1.5286  -1.5115  -1.4534  -1.2610  -1.2002
    -1.1634  -1.1288  -0.9283  -0.8355  -0.6594  -0.6195  -0.5309  -0.5137
    -0.4446  -0.3539  -0.2479  -0.1970  -0.0947  -0.0389   0.0485   0.1051
     0.1491   0.1863   0.2178   0.5400   0.5460   0.6069   0.6794   0.7856
     0.8043   0.9257   0.9582   0.9820   1.0332   1.1895   1.2544   1.4599
     1.4704   1.5144   1.5280   1.5488   1.6034   1.6151   1.6261   1.6575
     1.7110   1.7626   1.7954   1.9175   1.9971   2.0203   2.0433   2.0534
     2.0727   2.1055   2.2136   2.2365   2.3693   2.3872   2.5679   2.7086
     3.4726   3.4967   3.5702   3.6033   3.7924   3.8629   4.0628   6.1310
     6.7511   6.8910   6.8943   6.9610   7.3749   7.8525   8.0511   8.3955
     8.5510   8.6167   8.7515   8.8368   8.9817   9.0294   9.1690   9.2706
     9.3451   9.5443

          k = 0.2500 0.3844 0.0000 ( 34619 PWs)   bands (ev):

   -39.0945 -37.8835 -22.3864 -22.3747 -22.2324 -22.2128 -19.3572 -19.2186
   -19.0314 -18.4041 -18.1875 -18.1082 -14.6987 -14.4536 -14.3944 -14.2621
   -14.2324 -14.1094 -14.0851 -13.9929 -13.9437 -13.8140 -13.6626 -13.5628
   -13.5043 -13.4540 -13.4431  -8.1048  -8.0470  -7.9709  -7.9128  -7.8087
    -7.7229  -7.6507  -7.6302  -7.5319  -7.5174  -7.4906  -7.4001  -3.2798
    -3.2325  -2.8105  -2.7032  -2.6573  -2.3165  -2.2996  -2.0281  -1.9257
    -1.8341  -1.8000  -1.7472  -1.7006  -1.6344  -1.6231  -1.5379  -1.3927
    -1.1862  -1.1385  -1.0907  -0.9936  -0.7342  -0.6696  -0.5815  -0.5531
    -0.4973  -0.4451  -0.4294  -0.3044  -0.2211  -0.2015  -0.1204  -0.1184
    -0.0877   0.1381   0.1505   0.5622   0.6262   0.6720   0.7331   0.8687
     0.8936   0.9778   1.0073   1.1223   1.2693   1.2963   1.4729   1.5242
     1.5426   1.5726   1.6435   1.7057   1.7680   1.8196   1.8340   1.8471
     1.9457   1.9831   1.9915   2.0333   2.0568   2.0696   2.1063   2.2278
     2.3422   2.4007   2.4359   2.4826   2.5137   2.7460   2.7915   2.8021
     3.4009   3.4219   3.8284   3.8812   4.0599   4.1232   4.5457   6.1634
     6.5716   7.0602   7.0925   7.2369   7.3647   8.1349   8.2858   8.6400
     8.7058   8.9016   8.9370   9.0199   9.1571   9.4572   9.6499   9.7158
     9.9305   9.9683

          k = 0.2500-0.5125 0.0000 ( 34634 PWs)   bands (ev):

   -39.0926 -37.8812 -22.3663 -22.3553 -22.2122 -22.1933 -19.4005 -19.2147
   -19.0171 -18.4786 -18.1817 -18.0676 -14.5878 -14.5356 -14.4358 -14.2042
   -14.1627 -14.1200 -14.0688 -13.8262 -13.8259 -13.8005 -13.7628 -13.6953
   -13.5179 -13.4332 -13.4240  -8.0894  -8.0342  -7.9576  -7.8744  -7.8388
    -7.7897  -7.7722  -7.7084  -7.6539  -7.5733  -7.5071  -7.4974  -3.4292
    -3.3931  -3.0148  -2.9003  -2.8264  -2.5554  -2.5376  -1.9875  -1.9569
    -1.9187  -1.8067  -1.7861  -1.7551  -1.6925  -1.6196  -1.5116  -1.5095
    -1.3114  -1.1364  -1.1060  -1.0114  -0.7494  -0.6826  -0.6315  -0.5785
    -0.5274  -0.4742  -0.4686  -0.3675  -0.2660  -0.2076  -0.1991  -0.1952
    -0.1308   0.1243   0.1394   0.5714   0.6736   0.6924   0.7519   0.9041
     0.9056   0.9712   1.0158   1.1479   1.3947   1.4095   1.5483   1.6127
     1.6314   1.6740   1.6890   1.7211   1.7988   1.8348   1.8494   1.8734
     1.8922   1.9255   1.9840   2.1010   2.1470   2.1583   2.2391   2.3178
     2.3452   2.5011   2.5660   2.7357   2.7436   2.7615   2.9701   2.9790
     3.2428   3.2643   3.8827   3.9391   4.1138   4.1609   4.6837   6.1453
     6.4563   7.0099   7.0461   7.2974   7.5219   8.2962   8.3338   8.5546
     8.8455   8.9274   9.1178   9.5351   9.5503   9.7294   9.8169   9.8429
     9.8999   9.9353

          k = 0.3750 0.0000 0.0000 ( 34606 PWs)   bands (ev):

   -39.1018 -37.8925 -22.4531 -22.4404 -22.2992 -22.2785 -19.3512 -19.1190
   -19.0339 -18.4123 -18.2349 -17.8829 -14.8451 -14.6166 -14.5636 -14.5281
   -14.4736 -14.4190 -14.3166 -14.0984 -13.9617 -13.8118 -13.6355 -13.6207
   -13.5288 -13.5139 -13.2929  -7.9625  -7.8050  -7.6380  -7.5944  -7.3910
    -7.3577  -7.3197  -7.2833  -7.2582  -7.1903  -7.1779  -7.1237  -2.7094
    -2.5862  -2.4310  -2.2797  -1.7468  -1.7412  -1.7080  -1.6965  -1.4764
    -1.4083  -1.4049  -1.3741  -1.0429  -0.9271  -0.8344  -0.8116  -0.7441
    -0.7377  -0.7080  -0.6823  -0.6431  -0.5521  -0.4956  -0.3652  -0.3380
    -0.3145  -0.2807  -0.2538  -0.2130  -0.2111  -0.0356   0.0252   0.0611
     0.1311   0.1743   0.3220   0.4723   0.6240   0.6846   0.6922   0.7055
     0.7144   0.7208   0.8142   0.9444   0.9661   0.9719   0.9872   1.0444
     1.0578   1.1040   1.1353   1.2289   1.3363   1.3495   1.5082   1.5995
     1.6074   1.6337   1.6974   1.7109   1.7839   1.8072   1.9332   1.9532
     2.0309   2.0930   2.1111   2.1254   2.1583   2.2583   2.3714   2.4926
     2.5318   2.6123   2.7403   2.8495   2.9039   3.1667   3.1755   6.4496
     6.7732   6.7984   6.9459   7.2057   7.4906   7.8256   8.1061   8.2742
     8.2860   8.3836   8.7297   8.7762   8.9952   9.1401   9.1715   9.3411
     9.3630   9.7314

          k = 0.3750 0.1281 0.0000 ( 34566 PWs)   bands (ev):

   -39.1000 -37.8902 -22.4361 -22.4236 -22.2822 -22.2618 -19.3462 -19.1355
   -19.0537 -18.4050 -18.2020 -17.9812 -14.8042 -14.5567 -14.5075 -14.4643
   -14.4089 -14.3818 -14.2745 -14.0661 -13.9290 -13.8787 -13.6398 -13.5988
   -13.5124 -13.4989 -13.3053  -7.9595  -7.8061  -7.6400  -7.6339  -7.6069
    -7.5934  -7.4902  -7.4371  -7.3523  -7.3081  -7.2163  -7.1609  -2.8422
    -2.7327  -2.4871  -2.3257  -1.8797  -1.7785  -1.7343  -1.7085  -1.6707
    -1.5539  -1.3491  -1.3086  -1.2948  -1.2449  -1.1600  -1.0744  -0.9991
    -0.9341  -0.7809  -0.7590  -0.7285  -0.6517  -0.6278  -0.5710  -0.5496
    -0.4474  -0.3162  -0.2981  -0.1918  -0.0320   0.0740   0.1308   0.1684
     0.2568   0.2994   0.3893   0.3948   0.4861   0.6198   0.6449   0.6522
     0.7032   0.8274   0.8949   0.9834   0.9976   1.0121   1.1240   1.1245
     1.2800   1.2904   1.3523   1.3651   1.4572   1.4850   1.5774   1.6133
     1.6397   1.6520   1.6942   1.7188   1.8429   1.8536   1.9324   1.9980
     2.0132   2.0442   2.0761   2.1904   2.2237   2.2812   2.2846   2.6752
     3.1037   3.1433   3.2106   3.2476   3.2992   3.4521   3.4894   6.4131
     6.8508   6.8986   6.9099   6.9888   7.5799   7.9401   7.9741   8.3192
     8.3491   8.3942   8.8460   9.0310   9.0623   9.1310   9.1979   9.3591
     9.4236   9.6942

          k = 0.3750 0.2563 0.0000 ( 34593 PWs)   bands (ev):

   -39.0956 -37.8847 -22.3945 -22.3827 -22.2405 -22.2209 -19.3345 -19.2345
   -19.0367 -18.3876 -18.1964 -18.1188 -14.7028 -14.4475 -14.4349 -14.2905
   -14.2854 -14.2186 -14.1368 -14.0460 -13.9759 -13.8477 -13.6588 -13.5401
   -13.4748 -13.4629 -13.3577  -8.0472  -8.0181  -7.9144  -7.9108  -7.7973
    -7.7626  -7.6293  -7.6208  -7.5527  -7.5499  -7.4883  -7.4066  -3.2372
    -3.1716  -2.7186  -2.5436  -2.0482  -2.0230  -1.9636  -1.8588  -1.8178
    -1.7773  -1.7541  -1.7085  -1.6979  -1.6287  -1.5349  -1.5279  -1.3744
    -1.1656  -1.0506  -1.0236  -0.9757  -0.6206  -0.5887  -0.5572  -0.5133
    -0.3982  -0.3622  -0.3209  -0.2613  -0.1784  -0.1637  -0.0031   0.0455
     0.0549   0.2012   0.2185   0.5888   0.6650   0.7023   0.7720   0.8907
     0.9356   1.0341   1.1291   1.1599   1.2113   1.3029   1.4628   1.5196
     1.5374   1.5456   1.5961   1.6226   1.6603   1.6860   1.7222   1.7573
     1.8687   1.8783   1.8966   1.9124   1.9802   2.0221   2.0780   2.1248
     2.1693   2.2657   2.2684   2.2924   2.3220   2.3564   2.5429   2.6211
     3.4729   3.4915   3.9361   3.9909   4.0569   4.1533   4.1982   6.1361
     6.4220   6.8724   6.9344   7.0941   7.3498   8.0425   8.1813   8.5529
     8.5919   8.6926   8.8233   9.0887   9.2298   9.3753   9.4585   9.6590
     9.7700   9.8077

          k = 0.3750 0.3844 0.0000 ( 34673 PWs)   bands (ev):

   -39.0911 -37.8792 -22.3521 -22.3410 -22.1980 -22.1792 -19.3482 -19.3183
   -19.0032 -18.3910 -18.3671 -18.0295 -14.5883 -14.4497 -14.3225 -14.2107
   -14.1465 -14.1288 -14.0039 -13.9415 -13.8653 -13.7740 -13.6935 -13.5022
   -13.4538 -13.4412 -13.4311  -8.3136  -8.2522  -8.1797  -8.1052  -7.9499
    -7.9215  -7.8913  -7.8188  -7.7507  -7.6762  -7.5905  -7.5389  -3.6544
    -3.6227  -3.0811  -2.9157  -2.6928  -2.2888  -2.2799  -2.1322  -2.0957
    -2.0610  -2.0252  -1.9456  -1.8919  -1.7169  -1.6443  -1.6168  -1.5214
    -1.4401  -1.0627  -0.9036  -0.8499  -0.6803  -0.6760  -0.5956  -0.5516
    -0.5155  -0.5084  -0.4117  -0.3947  -0.3332  -0.2632  -0.1749  -0.1715
    -0.1237   0.2523   0.2694   0.6576   0.8003   0.8343   1.0317   1.0837
     1.1531   1.2402   1.3039   1.4493   1.4772   1.6205   1.6609   1.6751
     1.6933   1.7380   1.7576   1.8352   1.8543   1.8737   1.9326   1.9558
     1.9704   2.0143   2.0827   2.1683   2.1931   2.2211   2.2367   2.3215
     2.3916   2.4915   2.5026   2.5548   2.6589   2.7128   2.7260   2.7730
     3.3921   3.4078   4.4170   4.4902   4.5532   4.6432   4.7501   5.8819
     5.9743   6.5072   6.5525   7.0611   7.4949   8.3524   8.3853   8.5150
     8.6987   9.0884   9.1774   9.2605   9.3631   9.4588   9.5704   9.7243
     9.7824   9.8443

          k = 0.3750-0.5125 0.0000 ( 34698 PWs)   bands (ev):

   -39.0893 -37.8769 -22.3343 -22.3235 -22.1801 -22.1617 -19.3907 -19.3155
   -18.9882 -18.4630 -18.3618 -17.9904 -14.5057 -14.4942 -14.3230 -14.2276
   -14.0758 -14.0733 -13.8746 -13.8102 -13.8024 -13.7501 -13.7222 -13.6242
   -13.4395 -13.4295 -13.4206  -8.3927  -8.3289  -8.2598  -8.1697  -8.1051
    -8.0918  -7.9743  -7.9265  -7.7728  -7.7450  -7.5876  -7.5328  -3.8252
    -3.8020  -3.2483  -3.0888  -2.9407  -2.5269  -2.5191  -2.2351  -2.1636
    -2.1072  -2.0781  -1.9582  -1.9111  -1.7168  -1.6398  -1.6114  -1.5716
    -1.5397  -1.0744  -0.9085  -0.8300  -0.7237  -0.6653  -0.6388  -0.6051
    -0.5684  -0.5419  -0.4679  -0.4372  -0.3739  -0.3370  -0.2564  -0.2529
    -0.0926   0.2859   0.3002   0.6779   0.8332   0.8624   1.1231   1.1678
     1.1984   1.3515   1.3870   1.5638   1.5784   1.7008   1.7246   1.7393
     1.7510   1.8193   1.8840   1.8923   1.9347   1.9850   2.0029   2.0189
     2.0817   2.1054   2.1729   2.1752   2.1958   2.1981   2.2784   2.4812
     2.4930   2.6305   2.7455   2.7546   2.7973   2.8410   2.9093   2.9180
     3.2198   3.2372   4.5224   4.6298   4.7170   4.8070   4.9194   5.7065
     5.8918   6.3092   6.3464   6.9722   7.8026   8.2738   8.4215   8.5211
     8.7940   8.8961   9.2170   9.4225   9.6093   9.6684   9.6691   9.6965
     9.8355   9.8713

          k =-0.5000 0.0000 0.0000 ( 34574 PWs)   bands (ev):

   -39.1004 -37.8907 -22.4336 -22.4217 -22.2794 -22.2599 -19.3903 -19.1071
   -19.0319 -18.4845 -18.1965 -17.8804 -14.7504 -14.6567 -14.5822 -14.5287
   -14.4923 -14.4227 -14.3735 -13.9934 -13.9854 -13.8002 -13.7412 -13.6715
   -13.5229 -13.5087 -13.3012  -7.9741  -7.8042  -7.6201  -7.5904  -7.3683
    -7.3466  -7.2814  -7.2481  -7.2382  -7.1801  -7.1389  -7.0880  -2.8120
    -2.7099  -2.5457  -2.4063  -1.7732  -1.7411  -1.7351  -1.5360  -1.4431
    -1.4335  -1.3871  -1.1887  -1.1871  -0.9864  -0.9719  -0.9285  -0.8112
    -0.7982  -0.7851  -0.6418  -0.6231  -0.6004  -0.5938  -0.4679  -0.4612
    -0.4296  -0.3455  -0.2925  -0.2076  -0.2052  -0.1957  -0.1600   0.0478
     0.0820   0.1025   0.3175   0.4520   0.6885   0.6901   0.7049   0.7051
     0.7089   0.7152   0.7904   0.9522   0.9605   1.0021   1.0416   1.0432
     1.0460   1.0522   1.0697   1.2102   1.3547   1.5079   1.5710   1.5921
     1.6514   1.6805   1.6937   1.6968   1.8026   1.8360   1.9045   2.0623
     2.0927   2.1101   2.1208   2.1481   2.1923   2.2663   2.3733   2.4771
     2.5184   2.5942   2.7285   2.8298   2.9131   3.1650   3.1894   6.8539
     7.1023   7.1526   7.5177   7.5285   7.6016   7.6279   7.7104   7.8020
     8.1586   8.2682   8.9073   9.1075   9.1879   9.3376   9.4600   9.5491
     9.6022   9.6255

          k =-0.5000 0.1281 0.0000 ( 34580 PWs)   bands (ev):

   -39.0986 -37.8884 -22.4174 -22.4057 -22.2633 -22.2439 -19.3854 -19.1286
   -19.0463 -18.4767 -18.1642 -17.9779 -14.7105 -14.6071 -14.5546 -14.4647
   -14.4366 -14.3322 -14.3069 -13.9596 -13.9529 -13.8668 -13.7439 -13.6363
   -13.5046 -13.4913 -13.3072  -7.9682  -7.8002  -7.6186  -7.5886  -7.5034
    -7.4927  -7.4782  -7.4522  -7.3739  -7.3506  -7.2998  -7.2920  -2.9521
    -2.8617  -2.6100  -2.4569  -1.8182  -1.7925  -1.7393  -1.7155  -1.6546
    -1.5117  -1.3622  -1.3146  -1.2932  -1.2539  -1.2093  -1.1834  -1.1554
    -0.9846  -0.8359  -0.7608  -0.7567  -0.7556  -0.6369  -0.5451  -0.5136
    -0.4395  -0.3793  -0.3645  -0.2508  -0.0520   0.0551   0.0814   0.1173
     0.1739   0.2818   0.3202   0.3625   0.4107   0.6260   0.6410   0.6680
     0.7668   0.8824   0.8951   0.9394   1.0058   1.0140   1.2044   1.2078
     1.2252   1.3298   1.3431   1.3445   1.4419   1.5863   1.6085   1.6343
     1.6637   1.6862   1.7015   1.7084   1.8076   1.8202   1.9983   2.0178
     2.1044   2.1076   2.1297   2.1935   2.2017   2.2526   2.3780   2.6493
     3.1251   3.1589   3.2059   3.2413   3.2958   3.4492   3.5127   6.6572
     6.7732   7.0526   7.3466   7.4234   7.7575   7.8969   7.9161   7.9770
     8.0594   8.1755   9.1176   9.1823   9.3295   9.3457   9.5976   9.6315
     9.6579   9.7684

          k =-0.5000 0.2563 0.0000 ( 34618 PWs)   bands (ev):

   -39.0941 -37.8829 -22.3780 -22.3666 -22.2238 -22.2049 -19.3734 -19.2323
   -19.0247 -18.4580 -18.1919 -18.0826 -14.6162 -14.5036 -14.4814 -14.2939
   -14.2799 -14.2194 -14.0533 -14.0255 -13.8794 -13.8748 -13.7408 -13.5481
   -13.4650 -13.4540 -13.3444  -7.9806  -7.9692  -7.8743  -7.8295  -7.8146
    -7.7899  -7.7688  -7.7539  -7.6857  -7.5872  -7.5710  -7.5591  -3.3688
    -3.3133  -2.8543  -2.6769  -2.0428  -2.0072  -1.9785  -1.9429  -1.8507
    -1.8007  -1.7820  -1.7494  -1.7074  -1.6857  -1.5365  -1.5297  -1.4565
    -1.2723  -1.0530  -1.0053  -0.9700  -0.5828  -0.5653  -0.5464  -0.4729
    -0.3740  -0.3640  -0.3472  -0.3144  -0.2075  -0.1804  -0.0080   0.0110
     0.0182   0.1950   0.2217   0.6111   0.7014   0.7250   0.8330   0.9620
     0.9864   1.0636   1.1817   1.2106   1.2383   1.4403   1.4616   1.5701
     1.6081   1.6177   1.6339   1.6796   1.7544   1.7614   1.7704   1.7736
     1.7939   1.8165   1.8950   1.8979   2.0184   2.0807   2.0885   2.2090
     2.2286   2.2359   2.2601   2.3092   2.3355   2.3913   2.4929   2.5701
     3.4692   3.4853   4.0064   4.0853   4.1098   4.2440   4.2769   6.1434
     6.2303   6.8301   6.8806   7.2676   7.3022   8.1857   8.2063   8.4389
     8.6876   8.7659   8.9263   9.1575   9.3939   9.4468   9.6405   9.7892
     9.8784   9.8823

          k =-0.5000 0.3844 0.0000 ( 34742 PWs)   bands (ev):

   -39.0897 -37.8774 -22.3378 -22.3269 -22.1835 -22.1651 -19.3614 -19.3421
   -18.9905 -18.4392 -18.3828 -17.9950 -14.5230 -14.4757 -14.3489 -14.2011
   -14.1090 -14.1077 -14.0039 -13.8114 -13.8106 -13.8012 -13.7229 -13.4759
   -13.4355 -13.4307 -13.4264  -8.3630  -8.3017  -8.2283  -8.1425  -8.1085
    -8.0958  -7.9794  -7.9229  -7.8194  -7.7639  -7.5883  -7.5516  -3.8102
    -3.7831  -3.2219  -3.0482  -2.6805  -2.2771  -2.2706  -2.2385  -2.1622
    -2.1210  -2.0952  -1.9746  -1.9359  -1.7143  -1.6434  -1.6210  -1.5599
    -1.5288  -1.0852  -0.8449  -0.7832  -0.7365  -0.6735  -0.5899  -0.5448
    -0.5360  -0.4744  -0.4316  -0.4091  -0.3802  -0.2764  -0.2094  -0.2003
    -0.0987   0.3059   0.3194   0.6832   0.8316   0.9143   1.1787   1.1936
     1.2382   1.3996   1.4547   1.5898   1.5905   1.6390   1.7069   1.7221
     1.7611   1.8196   1.8315   1.8446   1.8640   1.9267   1.9992   2.0311
     2.0396   2.0969   2.1377   2.1542   2.1986   2.2142   2.2651   2.3194
     2.4808   2.5223   2.5372   2.6459   2.6750   2.6825   2.7038   2.8084
     3.3882   3.4027   4.4326   4.6680   4.7707   4.8473   4.9634   5.6574
     5.8720   6.2683   6.3067   6.9540   7.7243   8.1149   8.4549   8.5730
     8.7865   8.9710   9.1829   9.2719   9.4909   9.6061   9.6550   9.6625
     9.7448   9.9046

          k =-0.5000-0.5125 0.0000 ( 34692 PWs)   bands (ev):

   -39.0879 -37.8752 -22.3209 -22.3102 -22.1666 -22.1485 -19.3867 -19.3564
   -18.9755 -18.4566 -18.4314 -17.9568 -14.4842 -14.4708 -14.2931 -14.2730
   -14.0393 -14.0111 -13.8121 -13.7985 -13.7715 -13.7179 -13.7111 -13.5940
   -13.4277 -13.4187 -13.4049  -8.5150  -8.4493  -8.3816  -8.2899  -8.2259
    -8.2216  -8.0966  -7.9212  -7.9161  -7.7609  -7.5865  -7.5476  -3.9901
    -3.9708  -3.3902  -3.2237  -2.9309  -2.5148  -2.5091  -2.3440  -2.2874
    -2.1347  -2.1231  -1.9978  -1.9668  -1.7120  -1.6316  -1.6240  -1.6106
    -1.5870  -1.0968  -0.8152  -0.7957  -0.7301  -0.7076  -0.6783  -0.6419
    -0.5382  -0.5279  -0.4781  -0.4410  -0.4169  -0.3658  -0.2928  -0.2852
    -0.0581   0.3489   0.3584   0.7071   0.8747   0.9363   1.2302   1.3301
     1.3903   1.6042   1.6264   1.6305   1.7064   1.7427   1.7437   1.7710
     1.7802   1.8433   1.8721   1.8812   1.9120   2.0109   2.0309   2.0653
     2.1567   2.2495   2.2512   2.2723   2.2775   2.3062   2.3663   2.4735
     2.5252   2.7732   2.7745   2.7788   2.8739   2.8820   2.8880   2.9788
     3.2110   3.2292   4.5084   4.8722   4.9869   5.0738   5.2043   5.4146
     5.8097   6.0185   6.0488   6.8579   8.0540   8.1278   8.2143   8.6307
     8.7785   8.8955   9.1960   9.3301   9.3492   9.4309   9.5878   9.6649
     9.6699   9.7512

     the Fermi energy is     3.1804 ev

!    total energy              =   -1868.78138813 Ry
     Harris-Foulkes estimate   =   -1868.78138885 Ry
     estimated scf accuracy    <       0.00000082 Ry

     The total energy is the sum of the following terms:

     one-electron contribution =  -32028.17467945 Ry
     hartree contribution      =   16169.55635600 Ry
     xc contribution           =    -642.17947439 Ry
     ewald contribution        =   14632.02493159 Ry
     smearing contrib. (-TS)   =      -0.00852188 Ry

     convergence has been achieved in  33 iterations

     negative rho (up, down):  9.059E-02 0.000E+00

     Forces acting on atoms (cartesian axes, Ry/au):

     atom    1 type  3   force =     0.00000000    0.00000000   -0.00009761
     atom    2 type  2   force =     0.00000000    0.00000000   -0.00019108
     atom    3 type  3   force =     0.00000000    0.00000000    0.00004429
     atom    4 type  1   force =     0.00000000    0.00000000   -0.00016714
     atom    5 type  2   force =     0.00000000    0.00000000    0.00080735
     atom    6 type  3   force =     0.00000000    0.00000000    0.00013364
     atom    7 type  3   force =     0.00000000    0.00000000    0.00013808
     atom    8 type  4   force =     0.00000000    0.00000000   -0.00038418
     atom    9 type  3   force =     0.00000000    0.00000000    0.00029316
     atom   10 type  3   force =     0.00000000    0.00000000    0.00038289
     atom   11 type  2   force =     0.00000000    0.00000000    0.00049462
     atom   12 type  1   force =     0.00000000    0.00000000   -0.00063705
     atom   13 type  3   force =     0.00000000    0.00000000    0.00103517
     atom   14 type  3   force =     0.00000000    0.00000000    0.00222684
     atom   15 type  2   force =     0.00000000    0.00000000   -0.00277889
     atom   16 type  3   force =     0.00000000    0.00000000    0.00477960
     atom   17 type  1   force =     0.00000000    0.00000000   -0.00874489
     atom   18 type  2   force =     0.00000000    0.00000000    0.00121751
     atom   19 type  3   force =     0.00000000    0.00000000    0.03824644
     atom   20 type  3   force =     0.00000000    0.00000000    0.04023412
     atom   21 type  4   force =     0.00000000    0.00000000    0.04481299
     atom   22 type  3   force =     0.00000000    0.00000000   -0.04464903
     atom   23 type  3   force =     0.00000000    0.00000000   -0.04313851
     atom   24 type  2   force =     0.00000000    0.00000000   -0.01509062
     atom   25 type  1   force =     0.00000000    0.00000000   -0.02013875
     atom   26 type  3   force =     0.00000000    0.00000000    0.00166243
     atom   27 type  2   force =     0.00000000    0.00000000   -0.00224276
     atom   28 type  3   force =     0.00000000    0.00000000    0.00175138

     Total force =     0.098513     Total SCF correction =     0.004922


     Computing stress (Cartesian axis) and pressure


     negative rho (up, down):  9.059E-02 0.000E+00
          total   stress  (Ry/bohr**3)                   (kbar)     P=      -11.11
  -0.00003126   0.00000000   0.00000000           -4.60        0.00        0.00
   0.00000000  -0.00002607   0.00000000            0.00       -3.83        0.00
   0.00000000   0.00000000  -0.00016925            0.00        0.00      -24.90

 
     init_run     :      9.10s CPU      9.37s WALL (       1 calls)
     electrons    :    559.70s CPU    579.28s WALL (       1 calls)
     forces       :      3.85s CPU      4.02s WALL (       1 calls)
     stress       :     19.87s CPU     20.29s WALL (       1 calls)

     Called by init_run:
     wfcinit      :      6.34s CPU      6.43s WALL (       1 calls)
     potinit      :      0.62s CPU      0.63s WALL (       1 calls)
     hinit0       :      1.09s CPU      1.10s WALL (       1 calls)

     Called by electrons:
     c_bands      :    436.81s CPU    446.96s WALL (      33 calls)
     sum_band     :     81.43s CPU     86.60s WALL (      33 calls)
     v_of_rho     :      2.46s CPU      2.49s WALL (      34 calls)
     newd         :     23.51s CPU     27.65s WALL (      34 calls)
     mix_rho      :     16.03s CPU     16.20s WALL (      33 calls)

     Called by c_bands:
     init_us_2    :      3.31s CPU      3.33s WALL (    1725 calls)
     cegterg      :    411.23s CPU    420.82s WALL (     825 calls)

     Called by sum_band:
     sum_band:bec :      0.23s CPU      0.23s WALL (     825 calls)
     addusdens    :     21.32s CPU     25.70s WALL (      33 calls)

     Called by *egterg:
     h_psi        :    198.71s CPU    205.46s WALL (    3558 calls)
     s_psi        :     20.73s CPU     20.86s WALL (    3558 calls)
     g_psi        :      0.62s CPU      0.62s WALL (    2708 calls)
     cdiaghg      :    107.50s CPU    107.90s WALL (    3533 calls)

     Called by h_psi:
     h_psi:calbec :     23.52s CPU     24.73s WALL (    3558 calls)
     vloc_psi     :    153.21s CPU    155.86s WALL (    3558 calls)
     add_vuspsi   :     21.15s CPU     22.69s WALL (    3558 calls)

     General routines
     calbec       :     36.11s CPU     37.36s WALL (    4508 calls)
     fft          :      2.14s CPU      2.15s WALL (     465 calls)
     ffts         :      8.20s CPU      8.29s WALL (   14617 calls)
     fftw         :    176.17s CPU    179.21s WALL (  592096 calls)
     interpolate  :      0.14s CPU      0.15s WALL (      34 calls)
 
     Parallel routines
     fft_scatt_xy :     21.59s CPU     21.94s WALL (  607178 calls)
     fft_scatt_yz :    110.59s CPU    112.51s WALL (  607178 calls)
 
     PWSCF        :   9m53.61s CPU  10m14.09s WALL

 
   This run was terminated on:  17:34: 1   5May2021            

=------------------------------------------------------------------------------=
   JOB DONE.
=------------------------------------------------------------------------------=
[1620250441.321965] [holy7c04409:152253:0]          mpool.c:43   UCX  WARN  object 0x435a140 was not returned to mpool ucp_requests
[1620250441.323098] [holy7c04408:102534:0]          mpool.c:43   UCX  WARN  object 0x443da80 was not returned to mpool ucp_requests
[1620250441.323117] [holy7c04408:102534:0]          mpool.c:43   UCX  WARN  object 0x443dc40 was not returned to mpool ucp_requests
[1620250441.323380] [holy7c04404:123324:0]          mpool.c:43   UCX  WARN  object 0x2c83e40 was not returned to mpool ucp_requests
[1620250441.323397] [holy7c04404:123324:0]          mpool.c:43   UCX  WARN  object 0x2c841c0 was not returned to mpool ucp_requests
[1620250441.323779] [holy7c02601:69764:0]          mpool.c:43   UCX  WARN  object 0x3b94d40 was not returned to mpool ucp_requests
[1620250441.326732] [holy7c02502:118677:0]          mpool.c:43   UCX  WARN  object 0x45354c0 was not returned to mpool ucp_requests
[1620250441.322626] [holy7c04406:105976:0]          mpool.c:43   UCX  WARN  object 0x3912180 was not returned to mpool ucp_requests
[1620250441.341398] [holy7c04502:150765:0]          mpool.c:43   UCX  WARN  object 0x4685d40 was not returned to mpool ucp_requests
[1620250441.330032] [holy7c02601:69763:0]          mpool.c:43   UCX  WARN  object 0x3aae740 was not returned to mpool ucp_requests
