
     Program PWSCF v.6.5 starts on  5May2021 at 18:57: 5 

     This program is part of the open-source Quantum ESPRESSO suite
     for quantum simulation of materials; please cite
         "P. Giannozzi et al., J. Phys.:Condens. Matter 21 395502 (2009);
         "P. Giannozzi et al., J. Phys.:Condens. Matter 29 465901 (2017);
          URL http://www.quantum-espresso.org", 
     in publications or presentations arising from this work. More details at
     http://www.quantum-espresso.org/quote

     Parallel version (MPI), running on    16 processors

     MPI processes distributed on     1 nodes
     R & G space division:  proc/nbgrp/npool/nimage =      16
     Reading input from YBCO_BaO_cleave_0.5_sep_scf.pwi
Warning: card &IONS ignored
Warning: card     ION_DYNAMICS = 'BFGS' ignored
Warning: card / ignored
Warning: card &CELL ignored
Warning: card     CELL_DYNAMICS = 'BFGS' ignored
Warning: card / ignored

     Current dimensions of program PWSCF are:
     Max number of different atomic species (ntypx) = 10
     Max number of k-points (npk) =  40000
     Max angular momentum in pseudopotentials (lmaxx) =  3

     Subspace diagonalization in iterative solution of the eigenvalue problem:
     one sub-group per band group will be used
     scalapack distributed-memory algorithm (size of sub-group:  4*  4 procs)

     Message from routine setup:
     using ibrav=0 with symmetry is DISCOURAGED, use correct ibrav instead
 
     Parallelization info
     --------------------
     sticks:   dense  smooth     PW     G-vecs:    dense   smooth      PW
     Min         188      63     18                89838    17278    2714
     Max         189      66     19                89873    17305    2745
     Sum        3015    1011    293              1437693   276691   43587
 


     bravais-lattice index     =            0
     lattice parameter (alat)  =       7.3477  a.u.
     unit-cell volume          =    4406.5316 (a.u.)^3
     number of atoms/cell      =           28
     number of atomic types    =            4
     number of electrons       =       229.00
     number of Kohn-Sham states=          138
     kinetic-energy cutoff     =      60.0000  Ry
     charge density cutoff     =     720.0000  Ry
     convergence threshold     =      1.0E-06
     mixing beta               =       0.2000
     number of iterations used =           10  local-TF  mixing
     Exchange-correlation= SLA PW PBE PBE
                           (   1   4   3   4   0   0   0)

     celldm(1)=   7.347715  celldm(2)=   0.000000  celldm(3)=   0.000000
     celldm(4)=   0.000000  celldm(5)=   0.000000  celldm(6)=   0.000000

     crystal axes: (cart. coord. in units of alat)
               a(1) = (   1.000000   0.000000   0.000000 )  
               a(2) = (   0.000000   0.975577   0.000000 )  
               a(3) = (   0.000000   0.000000  11.386186 )  

     reciprocal axes: (cart. coord. in units 2 pi/alat)
               b(1) = (  1.000000  0.000000  0.000000 )  
               b(2) = (  0.000000  1.025034  0.000000 )  
               b(3) = (  0.000000  0.000000  0.087826 )  


     PseudoPot. # 1 for Ba read from file:
     /n/holyscratch01/hoffman_lab/ruizhe/YBCO_Project/pseudo/Ba.pbe-nsp-van.UPF
     MD5 check sum: 2b9c31dd849566dd297d80989662b7a0
     Pseudo is Ultrasoft + core correction, Zval = 10.0
     Generated by new atomic code, or converted to UPF format
     Using radial grid of  907 points,  6 beta functions with: 
                l(1) =   0
                l(2) =   0
                l(3) =   1
                l(4) =   1
                l(5) =   2
                l(6) =   2
     Q(r) pseudized with  6 coefficients,  rinner =    1.200   1.200   1.200
                                                       1.200   1.200

     PseudoPot. # 2 for Cu read from file:
     /n/holyscratch01/hoffman_lab/ruizhe/YBCO_Project/pseudo/Cu.pbe-n-van_ak.UPF
     MD5 check sum: 34e3282627ffb533726feb647e090d62
     Pseudo is Ultrasoft + core correction, Zval = 11.0
     Generated by new atomic code, or converted to UPF format
     Using radial grid of  867 points,  6 beta functions with: 
                l(1) =   0
                l(2) =   0
                l(3) =   1
                l(4) =   1
                l(5) =   2
                l(6) =   2
     Q(r) pseudized with  8 coefficients,  rinner =    1.400   1.400   1.400
                                                       1.400   1.400

     PseudoPot. # 3 for O  read from file:
     /n/holyscratch01/hoffman_lab/ruizhe/YBCO_Project/pseudo/O.pbe-van_ak.UPF
     MD5 check sum: 783ce7fe4c79b6a4916957118fed0856
     Pseudo is Ultrasoft, Zval =  6.0
     Generated by new atomic code, or converted to UPF format
     Using radial grid of  737 points,  4 beta functions with: 
                l(1) =   0
                l(2) =   0
                l(3) =   1
                l(4) =   1
     Q(r) pseudized with  8 coefficients,  rinner =    0.800   0.800   0.800


     PseudoPot. # 4 for Y  read from file:
     /n/holyscratch01/hoffman_lab/ruizhe/YBCO_Project/pseudo/Y.pbe-nsp-van.UPF
     MD5 check sum: 4412fed3ab108fed87a1b7d6a69a4a38
     Pseudo is Ultrasoft + core correction, Zval = 11.0
     Generated by new atomic code, or converted to UPF format
     Using radial grid of  885 points,  6 beta functions with: 
                l(1) =   0
                l(2) =   0
                l(3) =   1
                l(4) =   1
                l(5) =   2
                l(6) =   2
     Q(r) pseudized with  6 coefficients,  rinner =    1.200   1.200   1.200
                                                       1.200   1.200

     atomic species   valence    mass     pseudopotential
        Ba            10.00   137.32700     Ba( 1.00)
        Cu            11.00    63.54600     Cu( 1.00)
        O              6.00    15.99900     O ( 1.00)
        Y             11.00    88.90584     Y ( 1.00)

      4 Sym. Ops. (no inversion) found



   Cartesian axes

     site n.     atom                  positions (alat units)
         1           O   tau(   1) = (   0.0000000   0.4877884  -0.0257983  )
         2           Cu  tau(   2) = (   0.0000000   0.0000000   0.0215779  )
         3           O   tau(   3) = (   0.0000000   0.0000000   0.5073114  )
         4           Ba  tau(   4) = (   0.4999996   0.4877884   0.5319677  )
         5           Cu  tau(   5) = (   0.0000000   0.0000000   1.0495845  )
         6           O   tau(   6) = (   0.4999996   0.0000000   1.1181579  )
         7           O   tau(   7) = (   0.0000000   0.4877884   1.1273137  )
         8           Y   tau(   8) = (   0.4999996   0.4877884   1.4938777  )
         9           O   tau(   9) = (   0.0000000   0.4877884   1.8497402  )
        10           O   tau(  10) = (   0.4999996   0.0000000   1.8692709  )
        11           Cu  tau(  11) = (   0.0000000   0.0000000   1.9417560  )
        12           Ba  tau(  12) = (   0.4999996   0.4877884   2.4526063  )
        13           O   tau(  13) = (   0.0000000   0.0000000   2.5103470  )
        14           O   tau(  14) = (   0.0000000   0.4877884   2.9968469  )
        15           Cu  tau(  15) = (   0.0000000   0.0000000   2.9968521  )
        16           O   tau(  16) = (   0.0000000   0.0000000   3.4833288  )
        17           Ba  tau(  17) = (   0.4999996   0.4877884   3.5410618  )
        18           Cu  tau(  18) = (   0.0000000   0.0000000   4.1805280  )
        19           O   tau(  19) = (   0.4999996   0.0000000   4.2530003  )
        20           O   tau(  20) = (   0.0000000   0.4877884   4.2725130  )
        21           Y   tau(  21) = (   0.4999996   0.4877884   4.6283780  )
        22           O   tau(  22) = (   0.0000000   0.4877884   4.9949420  )
        23           O   tau(  23) = (   0.4999996   0.0000000   5.0041107  )
        24           Cu  tau(  24) = (   0.0000000   0.0000000   5.0726892  )
        25           Ba  tau(  25) = (   0.4999996   0.4877884   5.5902906  )
        26           O   tau(  26) = (   0.0000000   0.0000000   5.6149469  )
        27           Cu  tau(  27) = (   0.0000000   0.0000000   6.1006521  )
        28           O   tau(  28) = (   0.0000000   0.4877884   6.1480334  )

     number of k points=    25  Gaussian smearing, width (Ry)=  0.0100
                       cart. coord. in units 2pi/alat
        k(    1) = (   0.0000000   0.0000000   0.0000000), wk =   0.0312500
        k(    2) = (   0.0000000   0.1281293   0.0000000), wk =   0.0625000
        k(    3) = (   0.0000000   0.2562585   0.0000000), wk =   0.0625000
        k(    4) = (   0.0000000   0.3843878   0.0000000), wk =   0.0625000
        k(    5) = (   0.0000000  -0.5125170   0.0000000), wk =   0.0312500
        k(    6) = (   0.1250000   0.0000000   0.0000000), wk =   0.0625000
        k(    7) = (   0.1250000   0.1281293   0.0000000), wk =   0.1250000
        k(    8) = (   0.1250000   0.2562585   0.0000000), wk =   0.1250000
        k(    9) = (   0.1250000   0.3843878   0.0000000), wk =   0.1250000
        k(   10) = (   0.1250000  -0.5125170   0.0000000), wk =   0.0625000
        k(   11) = (   0.2500000   0.0000000   0.0000000), wk =   0.0625000
        k(   12) = (   0.2500000   0.1281293   0.0000000), wk =   0.1250000
        k(   13) = (   0.2500000   0.2562585   0.0000000), wk =   0.1250000
        k(   14) = (   0.2500000   0.3843878   0.0000000), wk =   0.1250000
        k(   15) = (   0.2500000  -0.5125170   0.0000000), wk =   0.0625000
        k(   16) = (   0.3750000   0.0000000   0.0000000), wk =   0.0625000
        k(   17) = (   0.3750000   0.1281293   0.0000000), wk =   0.1250000
        k(   18) = (   0.3750000   0.2562585   0.0000000), wk =   0.1250000
        k(   19) = (   0.3750000   0.3843878   0.0000000), wk =   0.1250000
        k(   20) = (   0.3750000  -0.5125170   0.0000000), wk =   0.0625000
        k(   21) = (  -0.5000000   0.0000000   0.0000000), wk =   0.0312500
        k(   22) = (  -0.5000000   0.1281293   0.0000000), wk =   0.0625000
        k(   23) = (  -0.5000000   0.2562585   0.0000000), wk =   0.0625000
        k(   24) = (  -0.5000000   0.3843878   0.0000000), wk =   0.0625000
        k(   25) = (  -0.5000000  -0.5125170   0.0000000), wk =   0.0312500

     Dense  grid:  1437693 G-vectors     FFT dimensions: (  64,  64, 720)

     Smooth grid:   276691 G-vectors     FFT dimensions: (  40,  36, 432)

     Estimated max dynamical RAM per process >     571.40 MB

     Estimated total dynamical RAM >       8.93 GB

     Initial potential from superposition of free atoms

     starting charge  228.84827, renormalised to  229.00000

     negative rho (up, down):  8.966E-02 0.000E+00
     Starting wfcs are  201 randomized atomic wfcs

     total cpu time spent up to now is       10.2 secs

     Self-consistent Calculation

     iteration #  1     ecut=    60.00 Ry     beta= 0.20
     Davidson diagonalization with overlap
     ethr =  1.00E-02,  avg # of iterations =  2.0

     negative rho (up, down):  8.749E-02 0.000E+00

     total cpu time spent up to now is       26.0 secs

     total energy              =   -1869.54686284 Ry
     Harris-Foulkes estimate   =   -1871.10059281 Ry
     estimated scf accuracy    <      12.99819319 Ry

     iteration #  2     ecut=    60.00 Ry     beta= 0.20
     Davidson diagonalization with overlap
     ethr =  5.68E-03,  avg # of iterations =  1.0

     negative rho (up, down):  8.626E-02 0.000E+00

     total cpu time spent up to now is       40.5 secs

     total energy              =   -1868.99331751 Ry
     Harris-Foulkes estimate   =   -1869.89474415 Ry
     estimated scf accuracy    <       5.71755606 Ry

     iteration #  3     ecut=    60.00 Ry     beta= 0.20
     Davidson diagonalization with overlap
     ethr =  2.50E-03,  avg # of iterations =  1.0

     negative rho (up, down):  8.584E-02 0.000E+00

     total cpu time spent up to now is       54.7 secs

     total energy              =   -1868.77291511 Ry
     Harris-Foulkes estimate   =   -1869.23886142 Ry
     estimated scf accuracy    <       3.71722342 Ry

     iteration #  4     ecut=    60.00 Ry     beta= 0.20
     Davidson diagonalization with overlap
     ethr =  1.62E-03,  avg # of iterations =  1.5

     negative rho (up, down):  8.589E-02 0.000E+00

     total cpu time spent up to now is       69.5 secs

     total energy              =   -1868.94727970 Ry
     Harris-Foulkes estimate   =   -1868.98275813 Ry
     estimated scf accuracy    <       2.65789723 Ry

     iteration #  5     ecut=    60.00 Ry     beta= 0.20
     Davidson diagonalization with overlap
     ethr =  1.16E-03,  avg # of iterations =  1.0

     negative rho (up, down):  8.681E-02 0.000E+00

     total cpu time spent up to now is       83.7 secs

     total energy              =   -1868.85653373 Ry
     Harris-Foulkes estimate   =   -1868.97114229 Ry
     estimated scf accuracy    <       1.48716741 Ry

     iteration #  6     ecut=    60.00 Ry     beta= 0.20
     Davidson diagonalization with overlap
     ethr =  6.49E-04,  avg # of iterations =  1.2

     negative rho (up, down):  8.749E-02 0.000E+00

     total cpu time spent up to now is       98.1 secs

     total energy              =   -1868.86418708 Ry
     Harris-Foulkes estimate   =   -1868.89327040 Ry
     estimated scf accuracy    <       0.26566481 Ry

     iteration #  7     ecut=    60.00 Ry     beta= 0.20
     Davidson diagonalization with overlap
     ethr =  1.16E-04,  avg # of iterations =  6.4

     negative rho (up, down):  8.820E-02 0.000E+00

     total cpu time spent up to now is      117.7 secs

     total energy              =   -1868.84997235 Ry
     Harris-Foulkes estimate   =   -1868.87350713 Ry
     estimated scf accuracy    <       0.16437257 Ry

     iteration #  8     ecut=    60.00 Ry     beta= 0.20
     Davidson diagonalization with overlap
     ethr =  7.18E-05,  avg # of iterations =  3.7

     negative rho (up, down):  8.951E-02 0.000E+00

     total cpu time spent up to now is      134.6 secs

     total energy              =   -1868.84656143 Ry
     Harris-Foulkes estimate   =   -1868.86187509 Ry
     estimated scf accuracy    <       0.16322215 Ry

     iteration #  9     ecut=    60.00 Ry     beta= 0.20
     Davidson diagonalization with overlap
     ethr =  7.13E-05,  avg # of iterations =  2.6

     negative rho (up, down):  8.970E-02 0.000E+00

     total cpu time spent up to now is      150.6 secs

     total energy              =   -1868.85566556 Ry
     Harris-Foulkes estimate   =   -1868.85798098 Ry
     estimated scf accuracy    <       0.72901803 Ry

     iteration # 10     ecut=    60.00 Ry     beta= 0.20
     Davidson diagonalization with overlap
     ethr =  7.13E-05,  avg # of iterations =  1.0

     negative rho (up, down):  9.023E-02 0.000E+00

     total cpu time spent up to now is      164.8 secs

     total energy              =   -1868.84582811 Ry
     Harris-Foulkes estimate   =   -1868.85669394 Ry
     estimated scf accuracy    <       0.55690425 Ry

     iteration # 11     ecut=    60.00 Ry     beta= 0.20
     Davidson diagonalization with overlap
     ethr =  7.13E-05,  avg # of iterations =  1.1

     negative rho (up, down):  9.029E-02 0.000E+00

     total cpu time spent up to now is      178.9 secs

     total energy              =   -1868.84280511 Ry
     Harris-Foulkes estimate   =   -1868.84882704 Ry
     estimated scf accuracy    <       0.16467189 Ry

     iteration # 12     ecut=    60.00 Ry     beta= 0.20
     Davidson diagonalization with overlap
     ethr =  7.13E-05,  avg # of iterations =  1.1

     negative rho (up, down):  9.032E-02 0.000E+00

     total cpu time spent up to now is      193.2 secs

     total energy              =   -1868.84254532 Ry
     Harris-Foulkes estimate   =   -1868.84576621 Ry
     estimated scf accuracy    <       0.06925475 Ry

     iteration # 13     ecut=    60.00 Ry     beta= 0.20
     Davidson diagonalization with overlap
     ethr =  3.02E-05,  avg # of iterations =  5.3

     negative rho (up, down):  9.042E-02 0.000E+00

     total cpu time spent up to now is      211.3 secs

     total energy              =   -1868.83966486 Ry
     Harris-Foulkes estimate   =   -1868.84315177 Ry
     estimated scf accuracy    <       0.03797335 Ry

     iteration # 14     ecut=    60.00 Ry     beta= 0.20
     Davidson diagonalization with overlap
     ethr =  1.66E-05,  avg # of iterations =  6.8

     negative rho (up, down):  9.086E-02 0.000E+00

     total cpu time spent up to now is      231.0 secs

     total energy              =   -1868.83948523 Ry
     Harris-Foulkes estimate   =   -1868.84071474 Ry
     estimated scf accuracy    <       0.01624227 Ry

     iteration # 15     ecut=    60.00 Ry     beta= 0.20
     Davidson diagonalization with overlap
     ethr =  7.09E-06,  avg # of iterations =  4.0

     negative rho (up, down):  9.189E-02 0.000E+00

     total cpu time spent up to now is      247.8 secs

     total energy              =   -1868.83900756 Ry
     Harris-Foulkes estimate   =   -1868.84011574 Ry
     estimated scf accuracy    <       0.01919356 Ry

     iteration # 16     ecut=    60.00 Ry     beta= 0.20
     Davidson diagonalization with overlap
     ethr =  7.09E-06,  avg # of iterations =  2.8

     negative rho (up, down):  9.266E-02 0.000E+00

     total cpu time spent up to now is      263.7 secs

     total energy              =   -1868.83872718 Ry
     Harris-Foulkes estimate   =   -1868.83943770 Ry
     estimated scf accuracy    <       0.02713196 Ry

     iteration # 17     ecut=    60.00 Ry     beta= 0.20
     Davidson diagonalization with overlap
     ethr =  7.09E-06,  avg # of iterations =  1.4

     negative rho (up, down):  1.098E-01 0.000E+00

     total cpu time spent up to now is      278.2 secs

     total energy              =   -1868.83725874 Ry
     Harris-Foulkes estimate   =   -1868.83887846 Ry
     estimated scf accuracy    <       0.02231079 Ry

     iteration # 18     ecut=    60.00 Ry     beta= 0.20
     Davidson diagonalization with overlap
     ethr =  7.09E-06,  avg # of iterations =  6.6

     negative rho (up, down):  1.182E-01 0.000E+00

     total cpu time spent up to now is      298.1 secs

     total energy              =   -1868.83679495 Ry
     Harris-Foulkes estimate   =   -1868.83750060 Ry
     estimated scf accuracy    <       0.00700982 Ry

     iteration # 19     ecut=    60.00 Ry     beta= 0.20
     Davidson diagonalization with overlap
     ethr =  3.06E-06,  avg # of iterations =  7.2

     negative rho (up, down):  1.159E-01 0.000E+00

     total cpu time spent up to now is      318.3 secs

     total energy              =   -1868.83618593 Ry
     Harris-Foulkes estimate   =   -1868.83695473 Ry
     estimated scf accuracy    <       0.00460011 Ry

     iteration # 20     ecut=    60.00 Ry     beta= 0.20
     Davidson diagonalization with overlap
     ethr =  2.01E-06,  avg # of iterations =  7.2

     negative rho (up, down):  1.139E-01 0.000E+00

     total cpu time spent up to now is      338.1 secs

     total energy              =   -1868.83548384 Ry
     Harris-Foulkes estimate   =   -1868.83625337 Ry
     estimated scf accuracy    <       0.00329090 Ry

     iteration # 21     ecut=    60.00 Ry     beta= 0.20
     Davidson diagonalization with overlap
     ethr =  1.44E-06,  avg # of iterations =  7.2

     negative rho (up, down):  1.094E-01 0.000E+00

     total cpu time spent up to now is      358.6 secs

     total energy              =   -1868.83524559 Ry
     Harris-Foulkes estimate   =   -1868.83563885 Ry
     estimated scf accuracy    <       0.00253770 Ry

     iteration # 22     ecut=    60.00 Ry     beta= 0.20
     Davidson diagonalization with overlap
     ethr =  1.11E-06,  avg # of iterations =  6.4

     negative rho (up, down):  1.074E-01 0.000E+00

     total cpu time spent up to now is      378.1 secs

     total energy              =   -1868.83520954 Ry
     Harris-Foulkes estimate   =   -1868.83533757 Ry
     estimated scf accuracy    <       0.00071664 Ry

     iteration # 23     ecut=    60.00 Ry     beta= 0.20
     Davidson diagonalization with overlap
     ethr =  3.13E-07,  avg # of iterations =  4.6

     negative rho (up, down):  9.945E-02 0.000E+00

     total cpu time spent up to now is      395.6 secs

     total energy              =   -1868.83509447 Ry
     Harris-Foulkes estimate   =   -1868.83522668 Ry
     estimated scf accuracy    <       0.00052087 Ry

     iteration # 24     ecut=    60.00 Ry     beta= 0.20
     Davidson diagonalization with overlap
     c_bands:  1 eigenvalues not converged
     ethr =  2.27E-07,  avg # of iterations =  6.1

     negative rho (up, down):  9.517E-02 0.000E+00

     total cpu time spent up to now is      414.6 secs

     total energy              =   -1868.83506763 Ry
     Harris-Foulkes estimate   =   -1868.83510650 Ry
     estimated scf accuracy    <       0.00025245 Ry

     iteration # 25     ecut=    60.00 Ry     beta= 0.20
     Davidson diagonalization with overlap
     ethr =  1.10E-07,  avg # of iterations =  5.1

     negative rho (up, down):  9.152E-02 0.000E+00

     total cpu time spent up to now is      432.6 secs

     total energy              =   -1868.83501072 Ry
     Harris-Foulkes estimate   =   -1868.83507311 Ry
     estimated scf accuracy    <       0.00013502 Ry

     iteration # 26     ecut=    60.00 Ry     beta= 0.20
     Davidson diagonalization with overlap
     ethr =  5.90E-08,  avg # of iterations =  6.7

     negative rho (up, down):  9.036E-02 0.000E+00

     total cpu time spent up to now is      452.4 secs

     total energy              =   -1868.83504362 Ry
     Harris-Foulkes estimate   =   -1868.83501910 Ry
     estimated scf accuracy    <       0.00006162 Ry

     iteration # 27     ecut=    60.00 Ry     beta= 0.20
     Davidson diagonalization with overlap
     c_bands:  1 eigenvalues not converged
     ethr =  2.69E-08,  avg # of iterations =  5.6

     negative rho (up, down):  9.005E-02 0.000E+00

     total cpu time spent up to now is      470.5 secs

     total energy              =   -1868.83505532 Ry
     Harris-Foulkes estimate   =   -1868.83504521 Ry
     estimated scf accuracy    <       0.00003767 Ry

     iteration # 28     ecut=    60.00 Ry     beta= 0.20
     Davidson diagonalization with overlap
     c_bands:  1 eigenvalues not converged
     c_bands:  1 eigenvalues not converged
     ethr =  1.64E-08,  avg # of iterations =  5.2

     negative rho (up, down):  9.024E-02 0.000E+00

     total cpu time spent up to now is      488.2 secs

     total energy              =   -1868.83506002 Ry
     Harris-Foulkes estimate   =   -1868.83505625 Ry
     estimated scf accuracy    <       0.00001269 Ry

     iteration # 29     ecut=    60.00 Ry     beta= 0.20
     Davidson diagonalization with overlap
     c_bands:  1 eigenvalues not converged
     ethr =  5.54E-09,  avg # of iterations =  3.0

     negative rho (up, down):  9.035E-02 0.000E+00

     total cpu time spent up to now is      504.2 secs

     total energy              =   -1868.83506171 Ry
     Harris-Foulkes estimate   =   -1868.83506034 Ry
     estimated scf accuracy    <       0.00000976 Ry

     iteration # 30     ecut=    60.00 Ry     beta= 0.20
     Davidson diagonalization with overlap
     ethr =  4.26E-09,  avg # of iterations =  1.8

     negative rho (up, down):  9.044E-02 0.000E+00

     total cpu time spent up to now is      519.2 secs

     total energy              =   -1868.83506339 Ry
     Harris-Foulkes estimate   =   -1868.83506204 Ry
     estimated scf accuracy    <       0.00000387 Ry

     iteration # 31     ecut=    60.00 Ry     beta= 0.20
     Davidson diagonalization with overlap
     ethr =  1.69E-09,  avg # of iterations =  2.2

     negative rho (up, down):  9.062E-02 0.000E+00

     total cpu time spent up to now is      534.5 secs

     total energy              =   -1868.83506344 Ry
     Harris-Foulkes estimate   =   -1868.83506356 Ry
     estimated scf accuracy    <       0.00000398 Ry

     iteration # 32     ecut=    60.00 Ry     beta= 0.20
     Davidson diagonalization with overlap
     ethr =  1.69E-09,  avg # of iterations =  1.0

     negative rho (up, down):  9.070E-02 0.000E+00

     total cpu time spent up to now is      548.8 secs

     total energy              =   -1868.83506352 Ry
     Harris-Foulkes estimate   =   -1868.83506353 Ry
     estimated scf accuracy    <       0.00000104 Ry

     iteration # 33     ecut=    60.00 Ry     beta= 0.20
     Davidson diagonalization with overlap
     ethr =  4.55E-10,  avg # of iterations =  2.0

     negative rho (up, down):  9.066E-02 0.000E+00

     total cpu time spent up to now is      563.7 secs

     End of self-consistent calculation

          k = 0.0000 0.0000 0.0000 ( 34453 PWs)   bands (ev):

   -37.9370 -37.8228 -22.7243 -22.5954 -22.5870 -22.4221 -18.4721 -18.3365
   -17.9419 -17.9315 -17.8360 -17.8240 -15.2684 -15.1557 -14.3561 -14.3037
   -14.1801 -14.0814 -14.0696 -14.0539 -13.9726 -13.7920 -13.6445 -13.5795
   -13.5787 -13.2609 -13.0472  -7.9978  -7.8161  -7.8044  -7.6968  -7.6086
    -7.6034  -7.5881  -7.5802  -7.5612  -7.5530  -7.3742  -7.3565  -1.8969
    -1.8642  -1.7998  -1.7738  -1.7274  -1.7054  -1.6800  -1.6741  -1.6105
    -1.5590  -1.5314  -1.5077  -1.4082  -0.6983  -0.5907  -0.5785  -0.3202
    -0.2839  -0.2792  -0.2009  -0.1223   0.0839   0.1080   0.1097   0.1102
     0.1462   0.1473   0.3113   0.3192   0.3203   0.3290   0.4076   0.4495
     0.4654   0.4731   0.5094   0.5406   0.5760   0.5834   0.5849   0.6016
     0.7020   0.7173   0.7197   0.7241   0.8109   0.8381   0.8413   0.8503
     0.8750   1.1542   1.2863   1.2904   1.3674   1.4143   1.4713   1.4760
     1.5336   1.5397   1.5591   1.6347   1.6762   1.6836   1.7102   1.8204
     1.9429   2.0009   2.1141   2.1654   2.1740   2.2484   2.3628   2.3695
     2.3737   2.4285   2.5607   2.6034   2.6200   2.8413   2.8518   5.4257
     5.4625   5.7516   6.0649   6.3072   6.8613   6.8625   6.9902   7.2930
     7.6554   7.9247   8.3307   8.3612   8.4576   8.4620   8.5455   8.8037
     8.8829   9.0215

          k = 0.0000 0.1281 0.0000 ( 34501 PWs)   bands (ev):

   -37.9346 -37.8205 -22.7053 -22.5739 -22.5654 -22.4013 -18.4362 -18.3005
   -18.0358 -17.9387 -17.9281 -17.8328 -15.1599 -15.0495 -14.3257 -14.2944
   -14.1908 -14.0902 -14.0690 -14.0234 -13.9490 -13.8386 -13.6821 -13.5854
   -13.5848 -13.3199 -13.1165  -7.9837  -7.7990  -7.7881  -7.6876  -7.6196
    -7.5807  -7.5732  -7.5725  -7.5468  -7.5390  -7.3760  -7.3353  -2.0029
    -1.9819  -1.9681  -1.8477  -1.8152  -1.7535  -1.6814  -1.6757  -1.5727
    -1.5356  -1.5159  -1.4858  -1.3926  -1.1555  -0.8022  -0.7988  -0.6435
    -0.5958  -0.5238  -0.2552  -0.2460  -0.1701  -0.1392  -0.0099   0.0040
     0.0360   0.0581   0.0595   0.0774   0.0894   0.1689   0.2407   0.3523
     0.4344   0.4698   0.4737   0.5184   0.6221   0.6516   0.7057   0.7138
     0.7228   0.7244   0.8049   0.8057   0.8656   0.9561   1.0245   1.0290
     1.1016   1.1276   1.1614   1.2297   1.2943   1.3621   1.4434   1.4454
     1.4861   1.6352   1.6580   1.6789   1.7581   1.8298   1.8724   1.8992
     1.9179   1.9660   2.0184   2.1414   2.1496   2.2075   2.3043   2.3196
     2.4484   2.4623   2.5892   2.7475   3.1237   3.1649   3.2094   5.8137
     5.8334   6.0309   6.3222   6.5255   7.1728   7.1819   7.2983   7.5578
     7.9078   8.1556   8.3008   8.3961   8.4912   8.6394   8.7642   8.8698
     9.0362   9.1833

          k = 0.0000 0.2563 0.0000 ( 34540 PWs)   bands (ev):

   -37.9291 -37.8149 -22.6586 -22.5208 -22.5123 -22.3502 -18.3451 -18.2608
   -18.2099 -18.1522 -17.9309 -17.8250 -14.9127 -14.8113 -14.3915 -14.2801
   -14.1780 -14.1449 -14.0933 -13.9564 -13.9056 -13.8917 -13.7309 -13.5639
   -13.5619 -13.4627 -13.2867  -7.9452  -7.7582  -7.7483  -7.6743  -7.6446
    -7.6217  -7.6135  -7.4853  -7.4436  -7.4357  -7.4184  -7.2382  -2.4288
    -2.3937  -2.2878  -2.1477  -2.0930  -1.8309  -1.8282  -1.7066  -1.6215
    -1.5714  -1.5621  -1.5600  -1.4677  -1.4630  -1.4041  -1.3391  -1.0169
    -0.6914  -0.6727  -0.5890  -0.5046  -0.3968  -0.3097  -0.3046  -0.2863
    -0.2067  -0.1702  -0.1681  -0.1614  -0.1170  -0.1120  -0.0539   0.1265
     0.1299   0.2918   0.3424   0.3738   0.5059   0.5626   0.5845   0.7287
     0.7389   0.7607   0.7631   0.7778   0.7827   0.9549   1.0509   1.0511
     1.3383   1.3446   1.3655   1.3979   1.5376   1.5473   1.5785   1.5981
     1.6624   1.6913   1.7204   1.7521   1.8008   1.8480   1.9333   1.9518
     1.9576   2.0229   2.1151   2.1312   2.2628   2.3319   2.3820   2.4393
     2.4424   2.5663   2.7737   2.8849   3.4621   3.4705   4.0334   6.7236
     6.7244   6.7445   6.9798   7.0992   7.9966   8.0361   8.0953   8.1709
     8.2485   8.2644   8.4456   8.5258   8.7568   8.9409   8.9886   9.1123
     9.1980   9.3491

          k = 0.0000 0.3844 0.0000 ( 34436 PWs)   bands (ev):

   -37.9235 -37.8093 -22.6109 -22.4663 -22.4578 -22.2977 -18.4586 -18.3510
   -18.2469 -18.1102 -17.9231 -17.8172 -14.6646 -14.5906 -14.5331 -14.4173
   -14.2499 -14.1677 -14.0210 -13.9189 -13.8999 -13.8242 -13.7395 -13.6184
   -13.5061 -13.5029 -13.4590  -7.8944  -7.7181  -7.7117  -7.7075  -7.6549
    -7.6467  -7.6178  -7.4582  -7.3935  -7.3345  -7.3266  -7.1361  -2.8490
    -2.7803  -2.7626  -2.5603  -2.4521  -2.3870  -2.3864  -1.7389  -1.7367
    -1.6171  -1.5686  -1.5011  -1.4596  -1.4289  -1.3681  -1.3215  -1.2481
    -0.8796  -0.8355  -0.6695  -0.6559  -0.6222  -0.5739  -0.5565  -0.4702
    -0.4695  -0.4367  -0.4115  -0.4082  -0.2497  -0.2141  -0.1523  -0.1171
    -0.1138   0.0864   0.1474   0.1609   0.2934   0.3486   0.5304   0.6186
     0.7102   0.7550   0.8016   0.8036   0.8058   1.0727   1.1162   1.2204
     1.3027   1.3472   1.4007   1.4541   1.5298   1.5720   1.5885   1.6440
     1.6788   1.7638   1.7939   1.8373   1.9822   2.0706   2.0972   2.1602
     2.1673   2.2470   2.3028   2.3197   2.3201   2.4125   2.4224   2.6738
     2.7605   2.8434   2.8464   2.8499   3.4322   3.4402   4.6077   7.4164
     7.6124   7.6417   7.8233   7.9096   8.0584   8.1350   8.1508   8.7171
     8.8145   8.8637   8.9493   9.0394   9.0782   9.2339   9.3419   9.4773
     9.7546   9.8318

          k = 0.0000-0.5125 0.0000 ( 34590 PWs)   bands (ev):

   -37.9211 -37.8069 -22.5908 -22.4432 -22.4347 -22.2755 -18.5346 -18.4268
   -18.2038 -18.0670 -17.9199 -17.8140 -14.6150 -14.5442 -14.5331 -14.4351
   -14.3150 -14.2111 -13.9551 -13.9069 -13.8486 -13.7741 -13.7710 -13.7183
   -13.5253 -13.4754 -13.4717  -7.8644  -7.7360  -7.7017  -7.6913  -7.6665
    -7.6583  -7.6008  -7.4759  -7.3542  -7.2874  -7.2795  -7.0922  -3.0861
    -2.9343  -2.9117  -2.6957  -2.6354  -2.6186  -2.5702  -1.7736  -1.7711
    -1.6528  -1.6351  -1.5254  -1.4309  -1.3552  -1.2982  -1.2632  -1.2281
    -0.9444  -0.8874  -0.8441  -0.8085  -0.7478  -0.7027  -0.6624  -0.5172
    -0.5126  -0.5110  -0.4214  -0.3573  -0.3444  -0.2852  -0.2043  -0.2008
    -0.1859  -0.1309   0.0246   0.0940   0.2107   0.3591   0.4299   0.6901
     0.7240   0.7267   0.8076   0.8116   0.8274   1.0605   1.0710   1.2914
     1.3149   1.3427   1.3471   1.5407   1.5772   1.5990   1.6180   1.7128
     1.7162   1.7200   1.7659   1.8064   2.0246   2.0334   2.2142   2.2347
     2.2624   2.3019   2.3193   2.3989   2.4768   2.6427   2.6668   2.7096
     2.7140   2.7944   3.0087   3.0123   3.2948   3.3036   4.7931   7.7047
     7.8989   8.0159   8.1058   8.1079   8.1079   8.1859   8.4333   8.5179
     9.0735   9.1072   9.2872   9.3656   9.3844   9.3865   9.5847   9.7228
     9.7300   9.9522

          k = 0.1250 0.0000 0.0000 ( 34512 PWs)   bands (ev):

   -37.9352 -37.8210 -22.7082 -22.5770 -22.5686 -22.4044 -18.4396 -18.3037
   -18.0420 -17.9365 -17.9290 -17.8214 -15.1528 -15.0410 -14.3747 -14.3346
   -14.2178 -14.1292 -14.1051 -14.0321 -13.9556 -13.8207 -13.6648 -13.5801
   -13.5794 -13.3093 -13.0880  -8.0230  -7.8262  -7.8150  -7.7287  -7.5741
    -7.5544  -7.5530  -7.5452  -7.5269  -7.5187  -7.3372  -7.3243  -1.9878
    -1.9429  -1.8939  -1.8148  -1.7513  -1.7275  -1.6658  -1.6560  -1.5998
    -1.5632  -1.5423  -1.4970  -1.4920  -0.6860  -0.6141  -0.5687  -0.3538
    -0.2836  -0.2784  -0.2738  -0.1983  -0.1003  -0.0712   0.0253   0.0289
     0.0370   0.0549   0.1315   0.1375   0.1574   0.2152   0.3202   0.3465
     0.3681   0.4530   0.5820   0.5858   0.6557   0.6693   0.6913   0.6991
     0.7244   0.7278   0.7361   0.7605   0.8204   0.8355   0.8436   0.8611
     0.9929   1.1572   1.1911   1.2025   1.2638   1.3562   1.4179   1.4255
     1.4333   1.4452   1.5119   1.6278   1.6475   1.7232   1.7369   1.9058
     1.9144   1.9673   2.1877   2.2286   2.3089   2.3164   2.3286   2.3444
     2.4353   2.5332   2.5388   2.6006   2.6576   2.8861   2.8942   5.6387
     5.6525   5.9544   6.2836   6.4782   7.0928   7.1045   7.2008   7.5331
     7.8687   8.1380   8.3418   8.4369   8.4881   8.6178   8.7497   8.9928
     9.0790   9.2429

          k = 0.1250 0.1281 0.0000 ( 34530 PWs)   bands (ev):

   -37.9328 -37.8187 -22.6897 -22.5562 -22.5478 -22.3843 -18.4041 -18.2681
   -18.0455 -18.0242 -17.9393 -17.9174 -15.0453 -14.9365 -14.3361 -14.3205
   -14.2143 -14.1256 -14.0957 -14.0043 -13.9416 -13.8745 -13.7027 -13.5802
   -13.5794 -13.3530 -13.1435  -8.0014  -7.8134  -7.8031  -7.7641  -7.7010
    -7.6926  -7.6779  -7.4943  -7.4358  -7.4031  -7.3951  -7.2017  -2.0956
    -2.0693  -2.0313  -1.8535  -1.8476  -1.7834  -1.6976  -1.6621  -1.6525
    -1.5713  -1.5479  -1.4735  -1.4189  -1.1674  -0.7973  -0.7931  -0.6490
    -0.5955  -0.4818  -0.4429  -0.4291  -0.2656  -0.2590  -0.2375  -0.1489
    -0.1086  -0.0748  -0.0219   0.0645   0.0717   0.2648   0.3180   0.3503
     0.4034   0.4442   0.4601   0.4612   0.6320   0.6555   0.6709   0.6849
     0.7297   0.7750   0.7763   0.8053   0.8373   0.9054   1.0222   1.0279
     1.0996   1.1763   1.2704   1.3216   1.3629   1.3735   1.3957   1.4337
     1.4692   1.5812   1.6197   1.6447   1.6583   1.7166   1.7264   1.7793
     2.0195   2.0267   2.0636   2.0842   2.1124   2.1747   2.4875   2.5241
     2.6524   2.6870   2.8838   2.9227   3.1426   3.1780   3.2231   5.9695
     5.9764   6.1952   6.4988   6.6603   7.4007   7.4090   7.4970   7.7780
     8.0717   8.2353   8.2803   8.3581   8.6397   8.7531   8.8842   8.9571
     9.1700   9.3259

          k = 0.1250 0.2563 0.0000 ( 34558 PWs)   bands (ev):

   -37.9273 -37.8131 -22.6445 -22.5050 -22.4966 -22.3348 -18.3143 -18.2563
   -18.1795 -18.1469 -18.0264 -17.9208 -14.8006 -14.7045 -14.3765 -14.2593
   -14.1904 -14.1471 -14.0966 -13.9632 -13.9383 -13.9190 -13.7400 -13.5556
   -13.5533 -13.4634 -13.2843  -7.9512  -7.8618  -7.8245  -7.8163  -7.7584
    -7.7489  -7.6615  -7.6026  -7.4019  -7.3591  -7.3511  -7.1642  -2.5296
    -2.4805  -2.3173  -2.1747  -2.0941  -1.8501  -1.8410  -1.7522  -1.6992
    -1.6743  -1.5688  -1.5585  -1.5521  -1.5233  -1.4039  -1.3379  -1.0274
    -0.7758  -0.7524  -0.6282  -0.6158  -0.6008  -0.5342  -0.5185  -0.4344
    -0.3965  -0.2911  -0.1304  -0.1058  -0.0973  -0.0024   0.0386   0.1390
     0.1671   0.3709   0.4138   0.4752   0.5696   0.5974   0.6210   0.6548
     0.7146   0.7276   0.7908   0.8103   0.8126   0.8774   1.1553   1.1921
     1.2654   1.3878   1.3988   1.4528   1.4947   1.5508   1.5866   1.6183
     1.6492   1.7180   1.7724   1.7991   1.8721   1.8944   1.8955   1.9162
     1.9712   1.9723   2.0589   2.0655   2.4002   2.4106   2.4262   2.6342
     2.9057   2.9208   3.1490   3.1873   3.4671   3.4773   4.0354   6.7762
     6.7780   6.7907   7.0826   7.1797   7.9799   8.0219   8.2088   8.2341
     8.2704   8.3162   8.5805   8.6277   8.9005   8.9378   8.9775   9.0974
     9.2358   9.3596

          k = 0.1250 0.3844 0.0000 ( 34567 PWs)   bands (ev):

   -37.9217 -37.8075 -22.5982 -22.4525 -22.4440 -22.2841 -18.4526 -18.3450
   -18.2175 -18.0804 -18.0165 -17.9110 -14.5634 -14.5118 -14.4872 -14.3449
   -14.2216 -14.1508 -14.0189 -13.9674 -13.8952 -13.8670 -13.7327 -13.5975
   -13.5023 -13.4990 -13.4316  -7.9067  -7.8710  -7.8292  -7.8210  -7.7280
    -7.7182  -7.6490  -7.6173  -7.4424  -7.4071  -7.3991  -7.2091  -2.9212
    -2.8679  -2.8074  -2.6107  -2.5010  -2.3775  -2.3768  -1.7706  -1.7636
    -1.6667  -1.5894  -1.5670  -1.5495  -1.4566  -1.4364  -1.3503  -1.2509
    -1.0826  -1.0425  -0.9791  -0.8898  -0.8148  -0.7721  -0.6407  -0.4662
    -0.4033  -0.3882  -0.2903  -0.2747  -0.2479  -0.2050  -0.1308  -0.1094
    -0.0902   0.2531   0.3616   0.4237   0.4425   0.5272   0.5640   0.6735
     0.6895   0.7762   0.7959   0.8380   0.8735   0.9641   1.1234   1.2718
     1.3280   1.4289   1.4519   1.5311   1.5901   1.6405   1.6605   1.6981
     1.7377   1.7529   1.7774   1.9036   1.9743   2.0695   2.0988   2.1650
     2.1699   2.2571   2.3159   2.4220   2.4328   2.7202   2.8207   2.8240
     2.9325   2.9547   3.1655   3.1941   3.4575   3.4695   4.5947   7.1826
     7.4930   7.5134   7.7101   7.7404   7.9225   8.0139   8.2273   8.7563
     8.7896   8.8255   8.9441   9.1953   9.3038   9.3591   9.4605   9.6589
     9.7103   9.9519

          k = 0.1250-0.5125 0.0000 ( 34552 PWs)   bands (ev):

   -37.9194 -37.8052 -22.5788 -22.4303 -22.4218 -22.2627 -18.5281 -18.4204
   -18.1750 -18.0379 -18.0124 -17.9068 -14.5742 -14.5008 -14.4156 -14.3219
   -14.2811 -14.1864 -13.9592 -13.9264 -13.8584 -13.8251 -13.7469 -13.6934
   -13.4878 -13.4743 -13.4704  -7.8725  -7.8632  -7.8040  -7.7958  -7.7144
    -7.7040  -7.6486  -7.6066  -7.4735  -7.4551  -7.4472  -7.2491  -3.0970
    -3.0331  -3.0143  -2.7533  -2.6543  -2.6130  -2.6019  -1.7885  -1.7835
    -1.6611  -1.5278  -1.5158  -1.4855  -1.4640  -1.4158  -1.3426  -1.2988
    -1.2284  -1.1861  -1.1478  -1.0980  -0.8777  -0.8152  -0.7154  -0.4454
    -0.4310  -0.4113  -0.3592  -0.3133  -0.3057  -0.2478  -0.2028  -0.1929
    -0.1283   0.2099   0.3093   0.3390   0.4270   0.4281   0.5497   0.6861
     0.6961   0.7899   0.7920   0.8735   0.8897   1.0337   1.1740   1.2434
     1.3910   1.4177   1.4470   1.5215   1.5811   1.6330   1.6642   1.7179
     1.7495   1.7719   1.8013   1.9249   2.0107   2.1422   2.1711   2.2609
     2.3039   2.3841   2.4685   2.7026   2.7071   2.7706   2.8959   2.9211
     2.9877   2.9913   3.0808   3.1032   3.3545   3.3689   4.7742   7.2403
     7.6718   7.6819   7.7786   7.7805   8.0086   8.2816   8.5178   8.5580
     9.2254   9.2871   9.3065   9.4915   9.4935   9.6214   9.6669   9.7001
     9.7775  10.0408

          k = 0.2500 0.0000 0.0000 ( 34588 PWs)   bands (ev):

   -37.9308 -37.8166 -22.6686 -22.5318 -22.5234 -22.3610 -18.3578 -18.2571
   -18.2208 -18.1525 -17.9229 -17.8154 -14.8883 -14.7848 -14.4573 -14.4281
   -14.3499 -14.2391 -14.1901 -13.9942 -13.9135 -13.8542 -13.6868 -13.5743
   -13.5738 -13.4297 -13.1679  -8.0673  -7.8364  -7.8264  -7.7266  -7.5016
    -7.5005  -7.4830  -7.4752  -7.4416  -7.4333  -7.2707  -7.2445  -2.2974
    -2.2696  -2.1986  -2.0255  -1.7121  -1.7068  -1.6703  -1.5974  -1.5842
    -1.5650  -1.4660  -1.4567  -1.4079  -0.7756  -0.6878  -0.6824  -0.4910
    -0.4445  -0.4190  -0.3585  -0.3270  -0.3260  -0.2626  -0.2602  -0.2338
    -0.1811  -0.1766  -0.1754  -0.1247   0.0470   0.0949   0.2929   0.3006
     0.3721   0.4127   0.4552   0.4610   0.4799   0.6092   0.6319   0.6333
     0.6923   0.6961   0.7003   0.8509   0.8582   0.8719   0.8726   0.9778
     1.0271   1.0981   1.1737   1.2715   1.2740   1.3299   1.3811   1.4599
     1.4881   1.5833   1.5869   1.6624   1.7395   1.7636   1.7736   1.7943
     1.8555   2.0268   2.1274   2.1617   2.2032   2.2224   2.3560   2.3829
     2.4131   2.4826   2.6925   2.8160   2.8348   3.0218   3.0333   6.1011
     6.1026   6.4559   6.8480   6.9779   7.7140   7.7387   7.7919   8.1433
     8.2960   8.3041   8.3888   8.5648   8.7932   8.9458   9.0911   9.2829
     9.4483   9.6347

          k = 0.2500 0.1281 0.0000 ( 34584 PWs)   bands (ev):

   -37.9285 -37.8143 -22.6516 -22.5129 -22.5044 -22.3426 -18.3237 -18.2514
   -18.1865 -18.1469 -18.0229 -17.9153 -14.7836 -14.6881 -14.4230 -14.3774
   -14.3108 -14.2144 -14.1668 -13.9658 -13.9191 -13.9128 -13.7220 -13.5650
   -13.5639 -13.4383 -13.1959  -8.0530  -7.8438  -7.8347  -7.7822  -7.7285
    -7.7197  -7.7075  -7.5301  -7.3723  -7.3290  -7.3209  -7.1379  -2.4339
    -2.3829  -2.2459  -2.0831  -1.7937  -1.7719  -1.7533  -1.6856  -1.6777
    -1.6256  -1.5668  -1.3875  -1.3176  -1.1916  -0.8164  -0.7941  -0.7906
    -0.7643  -0.7375  -0.6354  -0.6149  -0.5670  -0.5401  -0.4695  -0.4016
    -0.3563  -0.1427  -0.0983  -0.0391  -0.0178   0.1948   0.2322   0.3594
     0.3908   0.4337   0.4767   0.5201   0.5521   0.5885   0.5997   0.6687
     0.6880   0.7190   0.7520   0.8986   0.9007   0.9275   1.0261   1.0348
     1.0522   1.2310   1.2977   1.3050   1.4192   1.4566   1.5036   1.5259
     1.5319   1.5863   1.6356   1.6753   1.7187   1.7580   1.7830   1.8738
     1.9252   1.9341   2.0069   2.0713   2.1470   2.1729   2.4521   2.5733
     2.9590   2.9799   3.1854   3.1949   3.2104   3.2898   3.3132   6.3438
     6.3447   6.5727   6.9793   7.0937   7.9767   7.9939   8.0292   8.0675
     8.0805   8.3757   8.5011   8.6450   8.8987   8.9385   9.0631   9.1635
     9.3361   9.4409

          k = 0.2500 0.2563 0.0000 ( 34583 PWs)   bands (ev):

   -37.9230 -37.8088 -22.6099 -22.4664 -22.4579 -22.2973 -18.2571 -18.2378
   -18.2207 -18.1501 -18.1186 -18.0971 -14.5529 -14.4930 -14.3659 -14.2249
   -14.2114 -14.1646 -14.1146 -14.0657 -13.9903 -13.8977 -13.7250 -13.5342
   -13.5314 -13.4697 -13.2752  -8.0770  -8.0308  -8.0227  -7.9765  -7.7970
    -7.7769  -7.7676  -7.6724  -7.4623  -7.4262  -7.4181  -7.2322  -2.8544
    -2.7823  -2.4727  -2.3244  -2.0798  -1.9344  -1.9177  -1.8603  -1.7833
    -1.7797  -1.7486  -1.5674  -1.5639  -1.5626  -1.2954  -1.2161  -1.1969
    -1.1662  -1.1634  -1.0402  -0.9377  -0.6551  -0.6178  -0.5413  -0.4689
    -0.4161  -0.2994  -0.1311  -0.1250  -0.0815   0.0149   0.0279   0.1150
     0.1739   0.1892   0.2284   0.5437   0.5725   0.6494   0.7591   0.8188
     0.8511   0.8982   0.9154   0.9690   0.9968   1.0473   1.1258   1.4230
     1.4284   1.4949   1.5398   1.5615   1.5704   1.5823   1.5875   1.6502
     1.6759   1.7015   1.7914   1.8453   1.8576   1.9267   1.9769   2.0102
     2.0184   2.0963   2.1665   2.1863   2.3336   2.3355   2.5259   2.6838
     3.4351   3.4416   3.5685   3.5960   3.7581   3.8092   4.0421   6.6677
     6.8590   6.8612   7.3387   7.4321   7.6695   7.8183   8.3325   8.5150
     8.5247   8.6327   8.9359   8.9972   9.0756   9.1270   9.1933   9.2461
     9.3860   9.4748

          k = 0.2500 0.3844 0.0000 ( 34619 PWs)   bands (ev):

   -37.9174 -37.8032 -22.5674 -22.4188 -22.4103 -22.2510 -18.4381 -18.3305
   -18.2215 -18.1423 -18.1158 -18.0055 -14.4287 -14.3830 -14.2966 -14.1437
   -14.1398 -14.1197 -14.1151 -14.0161 -13.9846 -13.8486 -13.6875 -13.5463
   -13.4912 -13.4878 -13.3626  -8.1724  -8.1374  -8.1293  -7.9717  -7.8926
    -7.7556  -7.7460  -7.7273  -7.6630  -7.6551  -7.6100  -7.4424  -3.2690
    -3.1972  -2.8437  -2.7423  -2.6745  -2.3527  -2.3504  -1.9599  -1.9398
    -1.8545  -1.7420  -1.6695  -1.6617  -1.6582  -1.5868  -1.5760  -1.4270
    -1.3303  -1.1720  -1.1046  -1.0566  -0.7297  -0.6789  -0.6337  -0.5301
    -0.4756  -0.3435  -0.2802  -0.2607  -0.1629  -0.1466  -0.1235  -0.0782
    -0.0441   0.1147   0.1565   0.5391   0.6233   0.6813   0.8512   0.9020
     0.9302   0.9725   1.0292   1.0934   1.2262   1.2763   1.3851   1.4889
     1.5008   1.5058   1.5610   1.7189   1.7348   1.7877   1.7947   1.8340
     1.9271   1.9437   1.9767   1.9892   2.0075   2.0678   2.0779   2.1536
     2.1957   2.2849   2.3964   2.4394   2.4772   2.7357   2.7546   2.7578
     3.3627   3.3695   3.8467   3.8824   4.0257   4.0700   4.5583   6.4734
     7.0250   7.0285   7.2557   7.3305   8.0740   8.1897   8.4566   8.7912
     8.8793   8.9130   8.9348   9.4266   9.5673   9.6155   9.6548   9.8755
     9.9251   9.9840

          k = 0.2500-0.5125 0.0000 ( 34634 PWs)   bands (ev):

   -37.9151 -37.8009 -22.5496 -22.3987 -22.3903 -22.2315 -18.5126 -18.4049
   -18.2157 -18.1101 -18.1016 -17.9646 -14.4703 -14.3879 -14.1970 -14.1545
   -14.1290 -14.1142 -14.1035 -13.9195 -13.8600 -13.8557 -13.6809 -13.6316
   -13.4709 -13.4669 -13.3914  -8.1641  -8.1221  -8.1138  -7.9331  -7.9120
    -7.8661  -7.8224  -7.8145  -7.7413  -7.7316  -7.6228  -7.5561  -3.4324
    -3.3619  -3.0517  -2.9369  -2.8346  -2.5914  -2.5893  -1.9528  -1.9307
    -1.8212  -1.8211  -1.7501  -1.7225  -1.6647  -1.6406  -1.5634  -1.5474
    -1.4454  -1.1746  -1.1231  -1.0773  -0.7766  -0.6984  -0.6833  -0.5082
    -0.4593  -0.4074  -0.3575  -0.3077  -0.2293  -0.2174  -0.1789  -0.0918
    -0.0455   0.0960   0.1321   0.5381   0.6469   0.6993   0.8697   0.9199
     0.9341   0.9718   1.0638   1.1290   1.3754   1.3903   1.5162   1.5540
     1.5915   1.6004   1.6143   1.7276   1.7467   1.8054   1.8181   1.8566
     1.8740   1.9040   1.9223   2.0666   2.1087   2.1660   2.2081   2.2839
     2.3174   2.3424   2.4437   2.6975   2.7018   2.7348   2.9329   2.9364
     3.2034   3.2123   3.9046   3.9427   4.0798   4.1219   4.7179   6.3420
     6.9733   6.9768   7.1650   7.2657   8.2311   8.4512   8.4591   8.9111
     9.0394   9.4420   9.5145   9.5152   9.5170   9.7268   9.8325   9.8860
     9.9880  10.0866

          k = 0.3750 0.0000 0.0000 ( 34606 PWs)   bands (ev):

   -37.9264 -37.8122 -22.6283 -22.4855 -22.4770 -22.3167 -18.4464 -18.3414
   -18.2690 -18.1318 -17.9168 -17.8093 -14.6509 -14.6103 -14.5844 -14.5046
   -14.4232 -14.3503 -14.2949 -13.9943 -13.8847 -13.8463 -13.6854 -13.5637
   -13.5629 -13.5497 -13.2232  -8.0899  -7.8378  -7.8281  -7.6960  -7.4733
    -7.4263  -7.4238  -7.4161  -7.3522  -7.3438  -7.2314  -7.1611  -2.6204
    -2.5850  -2.4648  -2.3183  -1.7806  -1.7762  -1.5960  -1.5106  -1.4584
    -1.4427  -1.4372  -1.3625  -1.3275  -0.8021  -0.7716  -0.7410  -0.7271
    -0.7226  -0.6919  -0.5594  -0.5526  -0.5253  -0.5056  -0.4244  -0.3993
    -0.3938  -0.2885  -0.2498  -0.2450  -0.0130   0.0108   0.0696   0.0955
     0.1274   0.1815   0.2848   0.4073   0.5838   0.6398   0.6577   0.6646
     0.6826   0.6847   0.6869   0.9102   0.9158   0.9317   0.9330   0.9879
     1.0819   1.0939   1.1289   1.2590   1.2767   1.3236   1.4381   1.5250
     1.5731   1.6430   1.6626   1.6656   1.7482   1.7637   1.9169   1.9502
     2.0187   2.0586   2.0850   2.1161   2.1533   2.1995   2.2163   2.4568
     2.4816   2.4970   2.7305   2.8428   2.8551   3.1158   3.1405   6.7386
     6.7398   6.8856   7.4551   7.6324   8.2387   8.2420   8.2519   8.3431
     8.4138   8.6325   8.7005   8.7661   9.0310   9.1222   9.2205   9.6396
     9.6988   9.8155

          k = 0.3750 0.1281 0.0000 ( 34566 PWs)   bands (ev):

   -37.9241 -37.8100 -22.6128 -22.4685 -22.4600 -22.2999 -18.4391 -18.3342
   -18.2361 -18.0989 -18.0151 -17.9074 -14.5906 -14.5548 -14.5040 -14.4301
   -14.3236 -14.3082 -14.2626 -13.9619 -13.9133 -13.8703 -13.7300 -13.5478
   -13.5465 -13.5273 -13.2306  -8.0767  -7.8388  -7.8295  -7.7199  -7.6922
    -7.6701  -7.6623  -7.4928  -7.4219  -7.3850  -7.3769  -7.1989  -2.7669
    -2.7115  -2.5209  -2.3789  -1.8124  -1.7996  -1.7220  -1.6690  -1.6126
    -1.5571  -1.5019  -1.3380  -1.2591  -1.2083  -1.1030  -1.0693  -1.0336
    -0.8946  -0.8192  -0.7931  -0.7891  -0.6565  -0.5854  -0.5633  -0.4837
    -0.3998  -0.3168  -0.2483  -0.1855  -0.0640   0.1067   0.1308   0.2659
     0.3106   0.3609   0.3953   0.4528   0.5309   0.6146   0.6317   0.6418
     0.6923   0.7934   0.9029   0.9162   0.9763   0.9788   0.9909   1.0864
     1.0905   1.2446   1.3166   1.3365   1.4112   1.4413   1.5314   1.5764
     1.6015   1.6253   1.6573   1.6773   1.8091   1.8152   1.9223   1.9616
     1.9883   2.0313   2.0910   2.1120   2.1405   2.2110   2.2713   2.5699
     3.0706   3.0891   3.2131   3.2280   3.2416   3.4364   3.4584   6.7769
     6.8638   6.8650   7.5440   7.6890   7.8716   7.9117   8.3115   8.3154
     8.5488   8.6277   9.0001   9.0427   9.1165   9.1490   9.1670   9.5649
     9.6343   9.8368

          k = 0.3750 0.2563 0.0000 ( 34593 PWs)   bands (ev):

   -37.9186 -37.8044 -22.5748 -22.4269 -22.4185 -22.2590 -18.4216 -18.3167
   -18.2303 -18.1529 -18.1231 -18.0148 -14.4697 -14.4272 -14.3190 -14.2445
   -14.1859 -14.1710 -14.1066 -14.0805 -13.9365 -13.8814 -13.7231 -13.5115
   -13.5087 -13.4805 -13.2606  -8.1290  -8.0798  -8.0717  -8.0117  -7.8588
    -7.7953  -7.7858  -7.7056  -7.6537  -7.6458  -7.6347  -7.4476  -3.2063
    -3.1277  -2.7524  -2.6091  -2.0554  -1.9979  -1.9771  -1.8926  -1.8116
    -1.7878  -1.7785  -1.6639  -1.5910  -1.5742  -1.5692  -1.5686  -1.4091
    -1.3106  -1.0677  -1.0067  -0.9707  -0.6229  -0.5631  -0.5456  -0.4937
    -0.4246  -0.3385  -0.2458  -0.1994  -0.0894  -0.0355  -0.0101   0.0220
     0.0712   0.1693   0.1854   0.5701   0.6524   0.7582   0.8955   0.9614
     0.9782   1.0010   1.1162   1.1234   1.1836   1.2687   1.4078   1.4549
     1.4748   1.5075   1.5402   1.5922   1.6375   1.6539   1.6865   1.7351
     1.8002   1.8427   1.8719   1.8884   1.9241   2.0187   2.0423   2.0754
     2.1280   2.1362   2.2289   2.2339   2.2467   2.2805   2.5318   2.5777
     3.4346   3.4430   3.9556   3.9872   4.0327   4.1209   4.1592   6.3382
     6.8384   6.8417   7.2454   7.3141   8.0048   8.0823   8.5379   8.5559
     8.6112   8.7221   9.2079   9.3417   9.4052   9.4427   9.5746   9.7140
     9.7380   9.7973

          k = 0.3750 0.3844 0.0000 ( 34673 PWs)   bands (ev):

   -37.9131 -37.7989 -22.5362 -22.3845 -22.3761 -22.2173 -18.4250 -18.4011
   -18.3176 -18.2959 -18.0636 -17.9256 -14.3570 -14.2940 -14.2453 -14.1631
   -14.1483 -14.0973 -14.0313 -13.9747 -13.8448 -13.8086 -13.6503 -13.4925
   -13.4784 -13.4749 -13.2896  -8.3790  -8.3463  -8.3381  -8.1465  -8.0338
    -7.9826  -7.9748  -7.9561  -7.7835  -7.7736  -7.7245  -7.6373  -3.6588
    -3.5772  -3.1151  -2.9709  -2.7263  -2.3259  -2.3227  -2.0956  -2.0784
    -2.0616  -1.9911  -1.9794  -1.8928  -1.6785  -1.6759  -1.5774  -1.5558
    -1.4791  -1.0689  -0.9171  -0.8584  -0.7109  -0.6736  -0.6626  -0.5479
    -0.5417  -0.3792  -0.3105  -0.3010  -0.2332  -0.2086  -0.1950  -0.1521
    -0.0494   0.2177   0.2206   0.5928   0.7429   0.8068   1.0538   1.1114
     1.2065   1.2997   1.3459   1.4007   1.5317   1.6282   1.6359   1.6432
     1.6765   1.7209   1.7958   1.8351   1.8481   1.8965   1.9250   1.9318
     1.9562   1.9664   2.0480   2.1266   2.1577   2.1650   2.1807   2.2282
     2.2711   2.3729   2.4538   2.4664   2.5139   2.6760   2.6791   2.7909
     3.3526   3.3637   4.4790   4.5296   4.5551   4.6098   4.6536   5.8202
     6.4734   6.4758   6.8924   7.0290   8.2859   8.3921   8.6239   8.7682
     9.0516   9.1427   9.1667   9.2500   9.3854   9.5814   9.6480   9.7908
     9.9330   9.9994

          k = 0.3750-0.5125 0.0000 ( 34698 PWs)   bands (ev):

   -37.9109 -37.7966 -22.5200 -22.3667 -22.3582 -22.1998 -18.4970 -18.3959
   -18.3893 -18.2909 -18.0245 -17.8865 -14.3575 -14.2622 -14.2567 -14.1743
   -14.1101 -14.0808 -13.9096 -13.8618 -13.7830 -13.7685 -13.6146 -13.5672
   -13.4673 -13.4633 -13.2856  -8.4597  -8.4253  -8.4169  -8.2070  -8.1939
    -8.1378  -8.1301  -7.9882  -7.8248  -7.7779  -7.7679  -7.6311  -3.8400
    -3.7587  -3.2824  -3.1375  -2.9737  -2.5643  -2.5609  -2.2015  -2.1362
    -2.1123  -2.0967  -1.9914  -1.9041  -1.6741  -1.6712  -1.6063  -1.5747
    -1.5338  -1.0982  -0.9302  -0.8814  -0.7408  -0.6730  -0.6301  -0.6058
    -0.6030  -0.4101  -0.3852  -0.3569  -0.2972  -0.2903  -0.2842  -0.1553
    -0.0269   0.2504   0.2530   0.6043   0.7817   0.8221   1.0717   1.1516
     1.3172   1.4123   1.4141   1.5215   1.6461   1.6776   1.7162   1.7233
     1.7764   1.8492   1.8990   1.9291   1.9502   1.9623   1.9896   2.0589
     2.0711   2.0951   2.1345   2.1387   2.1439   2.1559   2.2510   2.2930
     2.4211   2.4466   2.6357   2.7169   2.7208   2.8052   2.8721   2.8756
     3.1799   3.1948   4.6055   4.6904   4.7261   4.7728   4.8139   5.6035
     6.2757   6.2780   6.7763   6.9442   8.3649   8.4266   8.5956   8.8084
     9.1997   9.2109   9.3131   9.4011   9.5505   9.5873   9.6591   9.7110
     9.8096   9.9248

          k =-0.5000 0.0000 0.0000 ( 34574 PWs)   bands (ev):

   -37.9246 -37.8104 -22.6113 -22.4660 -22.4575 -22.2979 -18.5186 -18.4138
   -18.2306 -18.0929 -17.9143 -17.8067 -14.6932 -14.6409 -14.5629 -14.4573
   -14.4066 -14.3433 -14.3431 -14.0186 -13.8877 -13.8348 -13.6798 -13.5992
   -13.5583 -13.5562 -13.2399  -8.0939  -7.8370  -7.8272  -7.6793  -7.4667
    -7.4011  -7.3942  -7.3934  -7.3139  -7.3055  -7.2210  -7.1254  -2.7441
    -2.7092  -2.5798  -2.4402  -1.8073  -1.8032  -1.5920  -1.4774  -1.4674
    -1.4152  -1.3895  -1.2219  -1.1233  -1.0207  -0.9582  -0.8492  -0.8065
    -0.7173  -0.6586  -0.6574  -0.6250  -0.5892  -0.5404  -0.5202  -0.4952
    -0.4934  -0.3504  -0.2439  -0.2406  -0.2392  -0.1111  -0.0015   0.0507
     0.0816   0.1214   0.2796   0.3678   0.6459   0.6538   0.6676   0.6710
     0.6770   0.6813   0.7126   0.9251   0.9307   0.9769   1.0061   1.0078
     1.0121   1.0145   1.0549   1.2665   1.3022   1.4909   1.5007   1.5175
     1.6172   1.6520   1.6722   1.6723   1.7637   1.7786   1.8581   1.9067
     2.0583   2.0611   2.1137   2.1357   2.2318   2.2330   2.3310   2.4427
     2.4624   2.5056   2.7331   2.8130   2.8514   3.1224   3.1539   7.0450
     7.4838   7.5015   7.5912   7.5937   7.7698   7.9744   8.2341   8.3247
     8.3839   8.8732   8.9363   8.9969   9.3458   9.4248   9.4593   9.6536
     9.7046   9.8581

          k =-0.5000 0.1281 0.0000 ( 34580 PWs)   bands (ev):

   -37.9223 -37.8081 -22.5964 -22.4498 -22.4414 -22.2820 -18.5108 -18.4060
   -18.1983 -18.0607 -18.0119 -17.9041 -14.6427 -14.5884 -14.4945 -14.3649
   -14.3414 -14.3070 -14.2342 -13.9864 -13.9014 -13.8569 -13.7381 -13.5644
   -13.5403 -13.5377 -13.2405  -8.0780  -7.8329  -7.8234  -7.6750  -7.5943
    -7.5936  -7.5362  -7.5286  -7.5252  -7.5168  -7.3427  -7.3295  -2.8960
    -2.8417  -2.6440  -2.5070  -1.8267  -1.8171  -1.7129  -1.6532  -1.5887
    -1.3840  -1.3489  -1.3337  -1.3270  -1.2864  -1.2497  -1.2163  -1.1929
    -1.0479  -0.8431  -0.7982  -0.7946  -0.6716  -0.5468  -0.5218  -0.4837
    -0.4133  -0.4103  -0.2907  -0.2708  -0.0819   0.0563   0.0797   0.2500
     0.2859   0.3002   0.3320   0.3763   0.4615   0.6218   0.6387   0.6634
     0.7224   0.8499   0.9072   0.9666   0.9720   0.9776   1.0075   1.1698
     1.1739   1.2886   1.2999   1.3112   1.3262   1.5308   1.5719   1.6038
     1.6049   1.6513   1.6548   1.6982   1.7737   1.7857   1.8787   1.9861
     2.0700   2.0761   2.1327   2.1615   2.1880   2.2181   2.3193   2.5557
     3.0912   3.1058   3.2072   3.2202   3.2460   3.4532   3.4803   6.8090
     7.3128   7.3203   7.6947   7.7250   7.8805   7.9293   7.9431   8.0933
     8.5143   8.8783   9.2913   9.3273   9.4218   9.4552   9.5650   9.6172
     9.7999   9.8370

          k =-0.5000 0.2563 0.0000 ( 34618 PWs)   bands (ev):

   -37.9169 -37.8027 -22.5601 -22.4104 -22.4019 -22.2430 -18.4920 -18.3872
   -18.2259 -18.1185 -18.1166 -17.9783 -14.5160 -14.4523 -14.3112 -14.2499
   -14.2157 -14.0876 -14.0604 -14.0523 -13.9088 -13.8208 -13.7817 -13.5017
   -13.4993 -13.4845 -13.2528  -8.0696  -8.0050  -8.0017  -7.9934  -7.8959
    -7.8475  -7.8398  -7.8017  -7.7942  -7.7919  -7.6373  -7.6190  -3.3480
    -3.2692  -2.8883  -2.7482  -2.0446  -2.0129  -1.9894  -1.8832  -1.8185
    -1.8155  -1.7815  -1.7661  -1.7407  -1.5741  -1.5724  -1.5671  -1.4929
    -1.3909  -1.0278  -0.9892  -0.9703  -0.5956  -0.5444  -0.5293  -0.4119
    -0.4092  -0.4074  -0.3220  -0.2003  -0.1000  -0.0324  -0.0258  -0.0228
     0.0530   0.1612   0.1653   0.5782   0.6582   0.8394   0.9284   1.0108
     1.0292   1.0325   1.1666   1.1770   1.2415   1.4271   1.4472   1.5132
     1.5619   1.5842   1.5890   1.6097   1.7126   1.7257   1.7275   1.7670
     1.7782   1.8040   1.8057   1.8372   1.9801   2.0167   2.0867   2.1762
     2.1929   2.1956   2.2111   2.2515   2.2845   2.3247   2.3812   2.5110
     3.4310   3.4397   4.0271   4.0763   4.0988   4.2113   4.2507   6.1739
     6.7965   6.7998   7.1358   7.2333   8.1617   8.3715   8.5648   8.6534
     8.6620   8.8459   9.3107   9.3206   9.5497   9.5628   9.7071   9.7527
     9.7690   9.9643

          k =-0.5000 0.3844 0.0000 ( 34742 PWs)   bands (ev):

   -37.9114 -37.7971 -22.5231 -22.3702 -22.3617 -22.2032 -18.4733 -18.4168
   -18.3685 -18.3092 -18.0291 -17.8908 -14.3836 -14.3005 -14.2357 -14.1420
   -14.1278 -14.1172 -14.0319 -13.8452 -13.8353 -13.7076 -13.6729 -13.4730
   -13.4693 -13.4684 -13.2580  -8.4311  -8.3956  -8.3872  -8.1956  -8.1802
    -8.1413  -8.1337  -7.9901  -7.8723  -7.7966  -7.7867  -7.6323  -3.8192
    -3.7358  -3.2560  -3.1125  -2.7155  -2.3144  -2.3110  -2.2044  -2.1358
    -2.1295  -2.1142  -2.0088  -1.9279  -1.6777  -1.6752  -1.5950  -1.5715
    -1.5193  -1.0714  -0.8254  -0.7728  -0.7666  -0.7364  -0.6606  -0.5083
    -0.5068  -0.4454  -0.3676  -0.3112  -0.2454  -0.2432  -0.2384  -0.1164
    -0.0563   0.2707   0.2720   0.6020   0.7674   0.9033   1.1137   1.1983
     1.3689   1.4637   1.4777   1.5746   1.6524   1.6598   1.6860   1.7075
     1.7218   1.7914   1.8194   1.8820   1.8900   1.9846   2.0042   2.0043
     2.0562   2.0762   2.0952   2.1194   2.1543   2.1794   2.2325   2.2555
     2.2694   2.4331   2.4803   2.5005   2.6384   2.6409   2.6545   2.7140
     3.3495   3.3618   4.4888   4.7372   4.7724   4.8133   4.8548   5.5649
     6.2347   6.2377   6.7641   6.9229   8.3747   8.5630   8.5648   8.6962
     8.9982   9.1089   9.2265   9.3614   9.5077   9.6585   9.6608   9.7391
     9.8279   9.8657

          k =-0.5000-0.5125 0.0000 ( 34692 PWs)   bands (ev):

   -37.9091 -37.7949 -22.5076 -22.3533 -22.3448 -22.1866 -18.4906 -18.4655
   -18.3829 -18.3607 -17.9908 -17.8525 -14.3278 -14.3076 -14.2326 -14.1903
   -14.0735 -14.0698 -13.8689 -13.8090 -13.7524 -13.6793 -13.5871 -13.5396
   -13.4652 -13.4615 -13.2386  -8.5816  -8.5476  -8.5393  -8.3271  -8.3198
    -8.2588  -8.2511  -7.9765  -7.9708  -7.7936  -7.7832  -7.6268  -4.0088
    -3.9253  -3.4243  -3.2799  -2.9653  -2.5523  -2.5487  -2.3358  -2.2754
    -2.1574  -2.1429  -2.0317  -1.9500  -1.6659  -1.6633  -1.6303  -1.5678
    -1.5604  -1.0998  -0.8454  -0.8217  -0.7419  -0.7410  -0.7019  -0.5626
    -0.5569  -0.4756  -0.4013  -0.3847  -0.3406  -0.3297  -0.3266  -0.0778
    -0.0632   0.3131   0.3150   0.6168   0.8118   0.9217   1.1406   1.2744
     1.5901   1.5919   1.6744   1.6844   1.6981   1.7336   1.7456   1.7519
     1.7838   1.8209   1.8324   1.9753   2.0232   2.0290   2.0738   2.1152
     2.1347   2.2148   2.2175   2.2319   2.2384   2.2455   2.3617   2.3705
     2.4116   2.4688   2.7368   2.7407   2.7857   2.8448   2.8482   2.8962
     3.1727   3.1897   4.5951   4.9535   4.9950   5.0397   5.0758   5.3167
     5.9850   5.9880   6.6383   6.8320   8.3288   8.5334   8.5926   8.7353
     8.9492   9.0536   9.1267   9.3899   9.5280   9.5404   9.5808   9.7137
     9.7494   9.7815

     the Fermi energy is     3.1463 ev

!    total energy              =   -1868.83506338 Ry
     Harris-Foulkes estimate   =   -1868.83506357 Ry
     estimated scf accuracy    <       0.00000050 Ry

     The total energy is the sum of the following terms:

     one-electron contribution =  -31520.59068782 Ry
     hartree contribution      =   15916.04274112 Ry
     xc contribution           =    -642.30069247 Ry
     ewald contribution        =   14378.02197729 Ry
     smearing contrib. (-TS)   =      -0.00840149 Ry

     convergence has been achieved in  33 iterations

     negative rho (up, down):  9.066E-02 0.000E+00

     Forces acting on atoms (cartesian axes, Ry/au):

     atom    1 type  3   force =     0.00000000    0.00000000    0.00002116
     atom    2 type  2   force =     0.00000000    0.00000000    0.00036175
     atom    3 type  3   force =     0.00000000    0.00000000   -0.00002161
     atom    4 type  1   force =     0.00000000    0.00000000   -0.00010360
     atom    5 type  2   force =     0.00000000    0.00000000    0.00025834
     atom    6 type  3   force =     0.00000000    0.00000000    0.00008533
     atom    7 type  3   force =     0.00000000    0.00000000    0.00007469
     atom    8 type  4   force =     0.00000000    0.00000000   -0.00023736
     atom    9 type  3   force =     0.00000000    0.00000000    0.00020340
     atom   10 type  3   force =     0.00000000    0.00000000    0.00035624
     atom   11 type  2   force =     0.00000000    0.00000000    0.00034423
     atom   12 type  1   force =     0.00000000    0.00000000   -0.00109936
     atom   13 type  3   force =     0.00000000    0.00000000    0.00104426
     atom   14 type  3   force =     0.00000000    0.00000000    0.00438252
     atom   15 type  2   force =     0.00000000    0.00000000    0.00009464
     atom   16 type  3   force =     0.00000000    0.00000000    0.00587314
     atom   17 type  1   force =     0.00000000    0.00000000    0.01347319
     atom   18 type  2   force =     0.00000000    0.00000000    0.00177827
     atom   19 type  3   force =     0.00000000    0.00000000   -0.00471842
     atom   20 type  3   force =     0.00000000    0.00000000   -0.00516193
     atom   21 type  4   force =     0.00000000    0.00000000   -0.01920556
     atom   22 type  3   force =     0.00000000    0.00000000    0.00102795
     atom   23 type  3   force =     0.00000000    0.00000000    0.00140279
     atom   24 type  2   force =     0.00000000    0.00000000    0.00035015
     atom   25 type  1   force =     0.00000000    0.00000000   -0.00044659
     atom   26 type  3   force =     0.00000000    0.00000000    0.00080017
     atom   27 type  2   force =     0.00000000    0.00000000   -0.00119591
     atom   28 type  3   force =     0.00000000    0.00000000    0.00025812

     Total force =     0.025778     Total SCF correction =     0.002885
     SCF correction compared to forces is large: reduce conv_thr to get better values


     Computing stress (Cartesian axis) and pressure


     negative rho (up, down):  9.066E-02 0.000E+00
          total   stress  (Ry/bohr**3)                   (kbar)     P=       -5.14
  -0.00003669   0.00000000   0.00000000           -5.40        0.00        0.00
   0.00000000  -0.00002653   0.00000000            0.00       -3.90        0.00
   0.00000000   0.00000000  -0.00004154            0.00        0.00       -6.11

 
     init_run     :      9.07s CPU      9.49s WALL (       1 calls)
     electrons    :    530.29s CPU    553.51s WALL (       1 calls)
     forces       :      4.22s CPU      4.45s WALL (       1 calls)
     stress       :     27.17s CPU     27.72s WALL (       1 calls)

     Called by init_run:
     wfcinit      :      6.26s CPU      6.46s WALL (       1 calls)
     potinit      :      0.74s CPU      0.76s WALL (       1 calls)
     hinit0       :      1.19s CPU      1.20s WALL (       1 calls)

     Called by electrons:
     c_bands      :    407.56s CPU    418.79s WALL (      33 calls)
     sum_band     :     84.54s CPU     90.97s WALL (      33 calls)
     v_of_rho     :      3.17s CPU      3.21s WALL (      34 calls)
     newd         :     19.77s CPU     25.26s WALL (      34 calls)
     mix_rho      :     15.64s CPU     15.80s WALL (      33 calls)

     Called by c_bands:
     init_us_2    :      4.88s CPU      4.91s WALL (    1725 calls)
     cegterg      :    379.15s CPU    389.94s WALL (     825 calls)

     Called by sum_band:
     sum_band:bec :      0.22s CPU      0.22s WALL (     825 calls)
     addusdens    :     29.81s CPU     35.52s WALL (      33 calls)

     Called by *egterg:
     h_psi        :    198.58s CPU    205.97s WALL (    3900 calls)
     s_psi        :     27.11s CPU     27.36s WALL (    3900 calls)
     g_psi        :      0.77s CPU      0.78s WALL (    3050 calls)
     cdiaghg      :     72.88s CPU     73.26s WALL (    3875 calls)

     Called by h_psi:
     h_psi:calbec :     27.91s CPU     28.96s WALL (    3900 calls)
     vloc_psi     :    141.97s CPU    144.54s WALL (    3900 calls)
     add_vuspsi   :     27.30s CPU     29.33s WALL (    3900 calls)

     General routines
     calbec       :     42.23s CPU     43.33s WALL (    4850 calls)
     fft          :      2.33s CPU      2.34s WALL (     465 calls)
     ffts         :      8.24s CPU      8.32s WALL (   13299 calls)
     fftw         :    158.04s CPU    160.89s WALL (  593544 calls)
     interpolate  :      0.21s CPU      0.21s WALL (      34 calls)
 
     Parallel routines
     fft_scatt_xy :     27.23s CPU     27.67s WALL (  607308 calls)
     fft_scatt_yz :     74.88s CPU     76.22s WALL (  607308 calls)
 
     PWSCF        :   9m31.45s CPU   9m55.93s WALL

 
   This run was terminated on:  19: 7: 1   5May2021            

=------------------------------------------------------------------------------=
   JOB DONE.
=------------------------------------------------------------------------------=
[1620256021.107201] [holy7c06408:9510 :0]          mpool.c:43   UCX  WARN  object 0x300dac0 was not returned to mpool ucp_requests
[1620256021.110267] [holy7c06408:9514 :0]          mpool.c:43   UCX  WARN  object 0x3c00000 was not returned to mpool ucp_requests
[1620256021.110290] [holy7c06408:9514 :0]          mpool.c:43   UCX  WARN  object 0x3c00540 was not returned to mpool ucp_requests
[1620256021.111689] [holy7c06408:9516 :0]          mpool.c:43   UCX  WARN  object 0x47ff000 was not returned to mpool ucp_requests
[1620256021.111845] [holy7c06408:9512 :0]          mpool.c:43   UCX  WARN  object 0x3f69000 was not returned to mpool ucp_requests
[1620256021.112553] [holy7c06408:9505 :0]          mpool.c:43   UCX  WARN  object 0x42e5dc0 was not returned to mpool ucp_requests
[1620256021.112577] [holy7c06408:9505 :0]          mpool.c:43   UCX  WARN  object 0x42e6140 was not returned to mpool ucp_requests
[1620256021.112580] [holy7c06408:9505 :0]          mpool.c:43   UCX  WARN  object 0x42e6300 was not returned to mpool ucp_requests
[1620256021.114020] [holy7c06408:9515 :0]          mpool.c:43   UCX  WARN  object 0x3d95c40 was not returned to mpool ucp_requests
[1620256021.109532] [holy7c06408:9506 :0]          mpool.c:43   UCX  WARN  object 0x39b80c0 was not returned to mpool ucp_requests
