
     Program PWSCF v.6.5 starts on  5May2021 at 18: 6:26 

     This program is part of the open-source Quantum ESPRESSO suite
     for quantum simulation of materials; please cite
         "P. Giannozzi et al., J. Phys.:Condens. Matter 21 395502 (2009);
         "P. Giannozzi et al., J. Phys.:Condens. Matter 29 465901 (2017);
          URL http://www.quantum-espresso.org", 
     in publications or presentations arising from this work. More details at
     http://www.quantum-espresso.org/quote

     Parallel version (MPI), running on    20 processors

     MPI processes distributed on    18 nodes
     R & G space division:  proc/nbgrp/npool/nimage =      20
     Reading input from YBCO_Y_cleave_4.0_sep_scf.pwi
Warning: card &IONS ignored
Warning: card     ION_DYNAMICS = 'BFGS' ignored
Warning: card / ignored
Warning: card &CELL ignored
Warning: card     CELL_DYNAMICS = 'BFGS' ignored
Warning: card / ignored

     Current dimensions of program PWSCF are:
     Max number of different atomic species (ntypx) = 10
     Max number of k-points (npk) =  40000
     Max angular momentum in pseudopotentials (lmaxx) =  3

     Subspace diagonalization in iterative solution of the eigenvalue problem:
     one sub-group per band group will be used
     scalapack distributed-memory algorithm (size of sub-group:  4*  4 procs)

     Message from routine setup:
     using ibrav=0 with symmetry is DISCOURAGED, use correct ibrav instead
 
     Parallelization info
     --------------------
     sticks:   dense  smooth     PW     G-vecs:    dense   smooth      PW
     Min         150      50     14                77556    14916    2324
     Max         151      51     15                77597    14941    2375
     Sum        3015    1011    293              1551541   298495   47017
 


     bravais-lattice index     =            0
     lattice parameter (alat)  =       7.3477  a.u.
     unit-cell volume          =    4754.8956 (a.u.)^3
     number of atoms/cell      =           28
     number of atomic types    =            4
     number of electrons       =       229.00
     number of Kohn-Sham states=          138
     kinetic-energy cutoff     =      60.0000  Ry
     charge density cutoff     =     720.0000  Ry
     convergence threshold     =      1.0E-06
     mixing beta               =       0.2000
     number of iterations used =           10  local-TF  mixing
     Exchange-correlation= SLA PW PBE PBE
                           (   1   4   3   4   0   0   0)

     celldm(1)=   7.347715  celldm(2)=   0.000000  celldm(3)=   0.000000
     celldm(4)=   0.000000  celldm(5)=   0.000000  celldm(6)=   0.000000

     crystal axes: (cart. coord. in units of alat)
               a(1) = (   1.000000   0.000000   0.000000 )  
               a(2) = (   0.000000   0.975577   0.000000 )  
               a(3) = (   0.000000   0.000000  12.286335 )  

     reciprocal axes: (cart. coord. in units 2 pi/alat)
               b(1) = (  1.000000  0.000000  0.000000 )  
               b(2) = (  0.000000  1.025034  0.000000 )  
               b(3) = (  0.000000  0.000000  0.081391 )  


     PseudoPot. # 1 for Ba read from file:
     /n/holyscratch01/hoffman_lab/ruizhe/YBCO_Project/pseudo/Ba.pbe-nsp-van.UPF
     MD5 check sum: 2b9c31dd849566dd297d80989662b7a0
     Pseudo is Ultrasoft + core correction, Zval = 10.0
     Generated by new atomic code, or converted to UPF format
     Using radial grid of  907 points,  6 beta functions with: 
                l(1) =   0
                l(2) =   0
                l(3) =   1
                l(4) =   1
                l(5) =   2
                l(6) =   2
     Q(r) pseudized with  6 coefficients,  rinner =    1.200   1.200   1.200
                                                       1.200   1.200

     PseudoPot. # 2 for Cu read from file:
     /n/holyscratch01/hoffman_lab/ruizhe/YBCO_Project/pseudo/Cu.pbe-n-van_ak.UPF
     MD5 check sum: 34e3282627ffb533726feb647e090d62
     Pseudo is Ultrasoft + core correction, Zval = 11.0
     Generated by new atomic code, or converted to UPF format
     Using radial grid of  867 points,  6 beta functions with: 
                l(1) =   0
                l(2) =   0
                l(3) =   1
                l(4) =   1
                l(5) =   2
                l(6) =   2
     Q(r) pseudized with  8 coefficients,  rinner =    1.400   1.400   1.400
                                                       1.400   1.400

     PseudoPot. # 3 for O  read from file:
     /n/holyscratch01/hoffman_lab/ruizhe/YBCO_Project/pseudo/O.pbe-van_ak.UPF
     MD5 check sum: 783ce7fe4c79b6a4916957118fed0856
     Pseudo is Ultrasoft, Zval =  6.0
     Generated by new atomic code, or converted to UPF format
     Using radial grid of  737 points,  4 beta functions with: 
                l(1) =   0
                l(2) =   0
                l(3) =   1
                l(4) =   1
     Q(r) pseudized with  8 coefficients,  rinner =    0.800   0.800   0.800


     PseudoPot. # 4 for Y  read from file:
     /n/holyscratch01/hoffman_lab/ruizhe/YBCO_Project/pseudo/Y.pbe-nsp-van.UPF
     MD5 check sum: 4412fed3ab108fed87a1b7d6a69a4a38
     Pseudo is Ultrasoft + core correction, Zval = 11.0
     Generated by new atomic code, or converted to UPF format
     Using radial grid of  885 points,  6 beta functions with: 
                l(1) =   0
                l(2) =   0
                l(3) =   1
                l(4) =   1
                l(5) =   2
                l(6) =   2
     Q(r) pseudized with  6 coefficients,  rinner =    1.200   1.200   1.200
                                                       1.200   1.200

     atomic species   valence    mass     pseudopotential
        Ba            10.00   137.32700     Ba( 1.00)
        Cu            11.00    63.54600     Cu( 1.00)
        O              6.00    15.99900     O ( 1.00)
        Y             11.00    88.90584     Y ( 1.00)

      4 Sym. Ops. (no inversion) found



   Cartesian axes

     site n.     atom                  positions (alat units)
         1           O   tau(   1) = (   0.0000000   0.4877884  -0.0257983  )
         2           Cu  tau(   2) = (   0.0000000   0.0000000   0.0215779  )
         3           O   tau(   3) = (   0.0000000   0.0000000   0.5073114  )
         4           Ba  tau(   4) = (   0.4999996   0.4877884   0.5319677  )
         5           Cu  tau(   5) = (   0.0000000   0.0000000   1.0495845  )
         6           O   tau(   6) = (   0.4999996   0.0000000   1.1181579  )
         7           O   tau(   7) = (   0.0000000   0.4877884   1.1273137  )
         8           Y   tau(   8) = (   0.4999996   0.4877884   1.4938777  )
         9           O   tau(   9) = (   0.0000000   0.4877884   1.8497402  )
        10           O   tau(  10) = (   0.4999996   0.0000000   1.8692709  )
        11           Cu  tau(  11) = (   0.0000000   0.0000000   1.9417560  )
        12           Ba  tau(  12) = (   0.4999996   0.4877884   2.4526063  )
        13           O   tau(  13) = (   0.0000000   0.0000000   2.5103470  )
        14           O   tau(  14) = (   0.0000000   0.4877884   2.9968469  )
        15           Cu  tau(  15) = (   0.0000000   0.0000000   2.9968521  )
        16           O   tau(  16) = (   0.0000000   0.0000000   3.4833288  )
        17           Ba  tau(  17) = (   0.4999996   0.4877884   3.5410618  )
        18           Cu  tau(  18) = (   0.0000000   0.0000000   4.0519352  )
        19           O   tau(  19) = (   0.4999996   0.0000000   4.1244075  )
        20           O   tau(  20) = (   0.0000000   0.4877884   4.1439202  )
        21           Y   tau(  21) = (   0.4999996   0.4877884   4.4997853  )
        22           O   tau(  22) = (   0.0000000   0.4877884   5.8950914  )
        23           O   tau(  23) = (   0.4999996   0.0000000   5.9042601  )
        24           Cu  tau(  24) = (   0.0000000   0.0000000   5.9728386  )
        25           Ba  tau(  25) = (   0.4999996   0.4877884   6.4904400  )
        26           O   tau(  26) = (   0.0000000   0.0000000   6.5150964  )
        27           Cu  tau(  27) = (   0.0000000   0.0000000   7.0008016  )
        28           O   tau(  28) = (   0.0000000   0.4877884   7.0481829  )

     number of k points=    25  Gaussian smearing, width (Ry)=  0.0100
                       cart. coord. in units 2pi/alat
        k(    1) = (   0.0000000   0.0000000   0.0000000), wk =   0.0312500
        k(    2) = (   0.0000000   0.1281293   0.0000000), wk =   0.0625000
        k(    3) = (   0.0000000   0.2562585   0.0000000), wk =   0.0625000
        k(    4) = (   0.0000000   0.3843878   0.0000000), wk =   0.0625000
        k(    5) = (   0.0000000  -0.5125170   0.0000000), wk =   0.0312500
        k(    6) = (   0.1250000   0.0000000   0.0000000), wk =   0.0625000
        k(    7) = (   0.1250000   0.1281293   0.0000000), wk =   0.1250000
        k(    8) = (   0.1250000   0.2562585   0.0000000), wk =   0.1250000
        k(    9) = (   0.1250000   0.3843878   0.0000000), wk =   0.1250000
        k(   10) = (   0.1250000  -0.5125170   0.0000000), wk =   0.0625000
        k(   11) = (   0.2500000   0.0000000   0.0000000), wk =   0.0625000
        k(   12) = (   0.2500000   0.1281293   0.0000000), wk =   0.1250000
        k(   13) = (   0.2500000   0.2562585   0.0000000), wk =   0.1250000
        k(   14) = (   0.2500000   0.3843878   0.0000000), wk =   0.1250000
        k(   15) = (   0.2500000  -0.5125170   0.0000000), wk =   0.0625000
        k(   16) = (   0.3750000   0.0000000   0.0000000), wk =   0.0625000
        k(   17) = (   0.3750000   0.1281293   0.0000000), wk =   0.1250000
        k(   18) = (   0.3750000   0.2562585   0.0000000), wk =   0.1250000
        k(   19) = (   0.3750000   0.3843878   0.0000000), wk =   0.1250000
        k(   20) = (   0.3750000  -0.5125170   0.0000000), wk =   0.0625000
        k(   21) = (  -0.5000000   0.0000000   0.0000000), wk =   0.0312500
        k(   22) = (  -0.5000000   0.1281293   0.0000000), wk =   0.0625000
        k(   23) = (  -0.5000000   0.2562585   0.0000000), wk =   0.0625000
        k(   24) = (  -0.5000000   0.3843878   0.0000000), wk =   0.0625000
        k(   25) = (  -0.5000000  -0.5125170   0.0000000), wk =   0.0312500

     Dense  grid:  1551541 G-vectors     FFT dimensions: (  64,  64, 800)

     Smooth grid:   298495 G-vectors     FFT dimensions: (  40,  36, 450)

     Estimated max dynamical RAM per process >     495.06 MB

     Estimated total dynamical RAM >       9.67 GB

     Initial potential from superposition of free atoms

     starting charge  228.84827, renormalised to  229.00000

     negative rho (up, down):  8.971E-02 0.000E+00
     Starting wfcs are  201 randomized atomic wfcs

     total cpu time spent up to now is       11.8 secs

     Self-consistent Calculation

     iteration #  1     ecut=    60.00 Ry     beta= 0.20
     Davidson diagonalization with overlap
     ethr =  1.00E-02,  avg # of iterations =  2.0

     negative rho (up, down):  8.736E-02 0.000E+00

     total cpu time spent up to now is       30.0 secs

     total energy              =   -1869.45460696 Ry
     Harris-Foulkes estimate   =   -1871.03907959 Ry
     estimated scf accuracy    <      14.60469871 Ry

     iteration #  2     ecut=    60.00 Ry     beta= 0.20
     Davidson diagonalization with overlap
     ethr =  6.38E-03,  avg # of iterations =  1.0

     negative rho (up, down):  8.598E-02 0.000E+00

     total cpu time spent up to now is       46.4 secs

     total energy              =   -1868.99220592 Ry
     Harris-Foulkes estimate   =   -1869.79609191 Ry
     estimated scf accuracy    <       8.36748208 Ry

     iteration #  3     ecut=    60.00 Ry     beta= 0.20
     Davidson diagonalization with overlap
     ethr =  3.65E-03,  avg # of iterations =  1.0

     negative rho (up, down):  8.506E-02 0.000E+00

     total cpu time spent up to now is       62.9 secs

     total energy              =   -1868.57082998 Ry
     Harris-Foulkes estimate   =   -1869.16811221 Ry
     estimated scf accuracy    <       5.22823155 Ry

     iteration #  4     ecut=    60.00 Ry     beta= 0.20
     Davidson diagonalization with overlap
     ethr =  2.28E-03,  avg # of iterations =  1.0

     negative rho (up, down):  8.483E-02 0.000E+00

     total cpu time spent up to now is       79.4 secs

     total energy              =   -1868.85601425 Ry
     Harris-Foulkes estimate   =   -1868.80911922 Ry
     estimated scf accuracy    <       9.52037723 Ry

     iteration #  5     ecut=    60.00 Ry     beta= 0.20
     Davidson diagonalization with overlap
     ethr =  2.28E-03,  avg # of iterations =  1.0

     negative rho (up, down):  8.544E-02 0.000E+00

     total cpu time spent up to now is       95.9 secs

     total energy              =   -1868.36261218 Ry
     Harris-Foulkes estimate   =   -1868.88791681 Ry
     estimated scf accuracy    <      17.94691857 Ry

     iteration #  6     ecut=    60.00 Ry     beta= 0.20
     Davidson diagonalization with overlap
     ethr =  2.28E-03,  avg # of iterations =  1.2

     negative rho (up, down):  8.566E-02 0.000E+00

     total cpu time spent up to now is      112.7 secs

     total energy              =   -1868.50285163 Ry
     Harris-Foulkes estimate   =   -1868.63495439 Ry
     estimated scf accuracy    <       2.17920770 Ry

     iteration #  7     ecut=    60.00 Ry     beta= 0.20
     Davidson diagonalization with overlap
     ethr =  9.52E-04,  avg # of iterations =  2.2

     negative rho (up, down):  8.653E-02 0.000E+00

     total cpu time spent up to now is      130.6 secs

     total energy              =   -1868.36603812 Ry
     Harris-Foulkes estimate   =   -1868.53442720 Ry
     estimated scf accuracy    <       1.46139136 Ry

     iteration #  8     ecut=    60.00 Ry     beta= 0.20
     Davidson diagonalization with overlap
     ethr =  6.38E-04,  avg # of iterations =  6.4

     negative rho (up, down):  8.790E-02 0.000E+00

     total cpu time spent up to now is      155.1 secs

     total energy              =   -1868.45012603 Ry
     Harris-Foulkes estimate   =   -1868.50923981 Ry
     estimated scf accuracy    <      10.27509793 Ry

     iteration #  9     ecut=    60.00 Ry     beta= 0.20
     Davidson diagonalization with overlap
     ethr =  6.38E-04,  avg # of iterations =  1.6

     negative rho (up, down):  8.732E-02 0.000E+00

     total cpu time spent up to now is      172.3 secs

     total energy              =   -1868.36840891 Ry
     Harris-Foulkes estimate   =   -1868.49507099 Ry
     estimated scf accuracy    <       7.66069554 Ry

     iteration # 10     ecut=    60.00 Ry     beta= 0.20
     Davidson diagonalization with overlap
     ethr =  6.38E-04,  avg # of iterations =  1.0

     negative rho (up, down):  8.847E-02 0.000E+00

     total cpu time spent up to now is      188.8 secs

     total energy              =   -1868.40082058 Ry
     Harris-Foulkes estimate   =   -1868.43616309 Ry
     estimated scf accuracy    <       2.45072320 Ry

     iteration # 11     ecut=    60.00 Ry     beta= 0.20
     Davidson diagonalization with overlap
     ethr =  6.38E-04,  avg # of iterations =  1.0

     negative rho (up, down):  8.890E-02 0.000E+00

     total cpu time spent up to now is      205.2 secs

     total energy              =   -1868.39854894 Ry
     Harris-Foulkes estimate   =   -1868.41209843 Ry
     estimated scf accuracy    <       0.73936827 Ry

     iteration # 12     ecut=    60.00 Ry     beta= 0.20
     Davidson diagonalization with overlap
     ethr =  3.23E-04,  avg # of iterations =  1.1

     negative rho (up, down):  8.916E-02 0.000E+00

     total cpu time spent up to now is      221.7 secs

     total energy              =   -1868.40342460 Ry
     Harris-Foulkes estimate   =   -1868.40613749 Ry
     estimated scf accuracy    <       0.12134074 Ry

     iteration # 13     ecut=    60.00 Ry     beta= 0.20
     Davidson diagonalization with overlap
     ethr =  5.30E-05,  avg # of iterations =  7.5

     negative rho (up, down):  8.985E-02 0.000E+00

     total cpu time spent up to now is      247.7 secs

     total energy              =   -1868.40100006 Ry
     Harris-Foulkes estimate   =   -1868.40429122 Ry
     estimated scf accuracy    <       0.11404808 Ry

     iteration # 14     ecut=    60.00 Ry     beta= 0.20
     Davidson diagonalization with overlap
     ethr =  4.98E-05,  avg # of iterations =  5.8

     negative rho (up, down):  8.945E-02 0.000E+00

     total cpu time spent up to now is      270.9 secs

     total energy              =   -1868.39236259 Ry
     Harris-Foulkes estimate   =   -1868.40691910 Ry
     estimated scf accuracy    <       0.56438614 Ry

     iteration # 15     ecut=    60.00 Ry     beta= 0.20
     Davidson diagonalization with overlap
     ethr =  4.98E-05,  avg # of iterations =  2.6

     negative rho (up, down):  8.956E-02 0.000E+00

     total cpu time spent up to now is      289.4 secs

     total energy              =   -1868.39871971 Ry
     Harris-Foulkes estimate   =   -1868.39981847 Ry
     estimated scf accuracy    <       0.02294907 Ry

     iteration # 16     ecut=    60.00 Ry     beta= 0.20
     Davidson diagonalization with overlap
     c_bands:  1 eigenvalues not converged
     ethr =  1.00E-05,  avg # of iterations =  6.8

     negative rho (up, down):  8.926E-02 0.000E+00

     total cpu time spent up to now is      313.9 secs

     total energy              =   -1868.39934056 Ry
     Harris-Foulkes estimate   =   -1868.39999026 Ry
     estimated scf accuracy    <       0.10036339 Ry

     iteration # 17     ecut=    60.00 Ry     beta= 0.20
     Davidson diagonalization with overlap
     ethr =  1.00E-05,  avg # of iterations =  1.0

     negative rho (up, down):  8.927E-02 0.000E+00

     total cpu time spent up to now is      330.0 secs

     total energy              =   -1868.39862945 Ry
     Harris-Foulkes estimate   =   -1868.39954762 Ry
     estimated scf accuracy    <       0.10484125 Ry

     iteration # 18     ecut=    60.00 Ry     beta= 0.20
     Davidson diagonalization with overlap
     ethr =  1.00E-05,  avg # of iterations =  1.0

     negative rho (up, down):  8.918E-02 0.000E+00

     total cpu time spent up to now is      345.0 secs

     total energy              =   -1868.39883157 Ry
     Harris-Foulkes estimate   =   -1868.39901950 Ry
     estimated scf accuracy    <       0.03853479 Ry

     iteration # 19     ecut=    60.00 Ry     beta= 0.20
     Davidson diagonalization with overlap
     ethr =  1.00E-05,  avg # of iterations =  1.0

     negative rho (up, down):  8.917E-02 0.000E+00

     total cpu time spent up to now is      361.0 secs

     total energy              =   -1868.39903644 Ry
     Harris-Foulkes estimate   =   -1868.39892529 Ry
     estimated scf accuracy    <       0.02444080 Ry

     iteration # 20     ecut=    60.00 Ry     beta= 0.20
     Davidson diagonalization with overlap
     ethr =  1.00E-05,  avg # of iterations =  1.0

     negative rho (up, down):  8.922E-02 0.000E+00

     total cpu time spent up to now is      377.2 secs

     total energy              =   -1868.39869799 Ry
     Harris-Foulkes estimate   =   -1868.39907477 Ry
     estimated scf accuracy    <       0.02036371 Ry

     iteration # 21     ecut=    60.00 Ry     beta= 0.20
     Davidson diagonalization with overlap
     ethr =  8.89E-06,  avg # of iterations =  1.0

     negative rho (up, down):  8.914E-02 0.000E+00

     total cpu time spent up to now is      393.2 secs

     total energy              =   -1868.39844342 Ry
     Harris-Foulkes estimate   =   -1868.39889190 Ry
     estimated scf accuracy    <       0.04493274 Ry

     iteration # 22     ecut=    60.00 Ry     beta= 0.20
     Davidson diagonalization with overlap
     ethr =  8.89E-06,  avg # of iterations =  1.0

     negative rho (up, down):  8.894E-02 0.000E+00

     total cpu time spent up to now is      409.4 secs

     total energy              =   -1868.39628653 Ry
     Harris-Foulkes estimate   =   -1868.39847760 Ry
     estimated scf accuracy    <       0.03381131 Ry

     iteration # 23     ecut=    60.00 Ry     beta= 0.20
     Davidson diagonalization with overlap
     ethr =  8.89E-06,  avg # of iterations =  3.3

     negative rho (up, down):  8.933E-02 0.000E+00

     total cpu time spent up to now is      428.6 secs

     total energy              =   -1868.39602628 Ry
     Harris-Foulkes estimate   =   -1868.39674776 Ry
     estimated scf accuracy    <       0.00740126 Ry

     iteration # 24     ecut=    60.00 Ry     beta= 0.20
     Davidson diagonalization with overlap
     ethr =  3.23E-06,  avg # of iterations =  5.5

     negative rho (up, down):  9.273E-02 0.000E+00

     total cpu time spent up to now is      450.9 secs

     total energy              =   -1868.39537168 Ry
     Harris-Foulkes estimate   =   -1868.39614260 Ry
     estimated scf accuracy    <       0.00493779 Ry

     iteration # 25     ecut=    60.00 Ry     beta= 0.20
     Davidson diagonalization with overlap
     ethr =  2.16E-06,  avg # of iterations =  6.4

     negative rho (up, down):  9.894E-02 0.000E+00

     total cpu time spent up to now is      474.8 secs

     total energy              =   -1868.39507499 Ry
     Harris-Foulkes estimate   =   -1868.39546754 Ry
     estimated scf accuracy    <       0.00332608 Ry

     iteration # 26     ecut=    60.00 Ry     beta= 0.20
     Davidson diagonalization with overlap
     ethr =  1.45E-06,  avg # of iterations =  7.8

     negative rho (up, down):  9.988E-02 0.000E+00

     total cpu time spent up to now is      501.0 secs

     total energy              =   -1868.39491482 Ry
     Harris-Foulkes estimate   =   -1868.39512784 Ry
     estimated scf accuracy    <       0.00289454 Ry

     iteration # 27     ecut=    60.00 Ry     beta= 0.20
     Davidson diagonalization with overlap
     ethr =  1.26E-06,  avg # of iterations =  4.9

     negative rho (up, down):  9.768E-02 0.000E+00

     total cpu time spent up to now is      522.4 secs

     total energy              =   -1868.39466257 Ry
     Harris-Foulkes estimate   =   -1868.39494118 Ry
     estimated scf accuracy    <       0.00251601 Ry

     iteration # 28     ecut=    60.00 Ry     beta= 0.20
     Davidson diagonalization with overlap
     ethr =  1.10E-06,  avg # of iterations =  3.4

     negative rho (up, down):  9.760E-02 0.000E+00

     total cpu time spent up to now is      541.8 secs

     total energy              =   -1868.39457543 Ry
     Harris-Foulkes estimate   =   -1868.39469261 Ry
     estimated scf accuracy    <       0.00122637 Ry

     iteration # 29     ecut=    60.00 Ry     beta= 0.20
     Davidson diagonalization with overlap
     ethr =  5.36E-07,  avg # of iterations =  3.5

     negative rho (up, down):  9.361E-02 0.000E+00

     total cpu time spent up to now is      561.5 secs

     total energy              =   -1868.39442966 Ry
     Harris-Foulkes estimate   =   -1868.39458827 Ry
     estimated scf accuracy    <       0.00083276 Ry

     iteration # 30     ecut=    60.00 Ry     beta= 0.20
     Davidson diagonalization with overlap
     ethr =  3.64E-07,  avg # of iterations =  4.0

     negative rho (up, down):  9.080E-02 0.000E+00

     total cpu time spent up to now is      582.0 secs

     total energy              =   -1868.39445268 Ry
     Harris-Foulkes estimate   =   -1868.39446071 Ry
     estimated scf accuracy    <       0.00112820 Ry

     iteration # 31     ecut=    60.00 Ry     beta= 0.20
     Davidson diagonalization with overlap
     c_bands:  1 eigenvalues not converged
     ethr =  3.64E-07,  avg # of iterations =  4.7

     negative rho (up, down):  9.052E-02 0.000E+00

     total cpu time spent up to now is      603.4 secs

     total energy              =   -1868.39448210 Ry
     Harris-Foulkes estimate   =   -1868.39446905 Ry
     estimated scf accuracy    <       0.00025392 Ry

     iteration # 32     ecut=    60.00 Ry     beta= 0.20
     Davidson diagonalization with overlap
     ethr =  1.11E-07,  avg # of iterations =  2.2

     negative rho (up, down):  8.969E-02 0.000E+00

     total cpu time spent up to now is      621.3 secs

     total energy              =   -1868.39450294 Ry
     Harris-Foulkes estimate   =   -1868.39448599 Ry
     estimated scf accuracy    <       0.00011571 Ry

     iteration # 33     ecut=    60.00 Ry     beta= 0.20
     Davidson diagonalization with overlap
     ethr =  5.05E-08,  avg # of iterations =  4.2

     negative rho (up, down):  9.025E-02 0.000E+00

     total cpu time spent up to now is      641.8 secs

     total energy              =   -1868.39450512 Ry
     Harris-Foulkes estimate   =   -1868.39450665 Ry
     estimated scf accuracy    <       0.00004975 Ry

     iteration # 34     ecut=    60.00 Ry     beta= 0.20
     Davidson diagonalization with overlap
     ethr =  2.17E-08,  avg # of iterations =  2.2

     negative rho (up, down):  9.027E-02 0.000E+00

     total cpu time spent up to now is      659.7 secs

     total energy              =   -1868.39450839 Ry
     Harris-Foulkes estimate   =   -1868.39450679 Ry
     estimated scf accuracy    <       0.00002925 Ry

     iteration # 35     ecut=    60.00 Ry     beta= 0.20
     Davidson diagonalization with overlap
     ethr =  1.28E-08,  avg # of iterations =  2.3

     negative rho (up, down):  9.021E-02 0.000E+00

     total cpu time spent up to now is      677.6 secs

     total energy              =   -1868.39450804 Ry
     Harris-Foulkes estimate   =   -1868.39450952 Ry
     estimated scf accuracy    <       0.00001148 Ry

     iteration # 36     ecut=    60.00 Ry     beta= 0.20
     Davidson diagonalization with overlap
     ethr =  5.01E-09,  avg # of iterations =  2.7

     negative rho (up, down):  9.017E-02 0.000E+00

     total cpu time spent up to now is      696.8 secs

     total energy              =   -1868.39450672 Ry
     Harris-Foulkes estimate   =   -1868.39450881 Ry
     estimated scf accuracy    <       0.00000712 Ry

     iteration # 37     ecut=    60.00 Ry     beta= 0.20
     Davidson diagonalization with overlap
     ethr =  3.11E-09,  avg # of iterations =  1.6

     negative rho (up, down):  9.016E-02 0.000E+00

     total cpu time spent up to now is      713.9 secs

     total energy              =   -1868.39450630 Ry
     Harris-Foulkes estimate   =   -1868.39450689 Ry
     estimated scf accuracy    <       0.00000357 Ry

     iteration # 38     ecut=    60.00 Ry     beta= 0.20
     Davidson diagonalization with overlap
     ethr =  1.56E-09,  avg # of iterations =  1.6

     negative rho (up, down):  9.020E-02 0.000E+00

     total cpu time spent up to now is      730.9 secs

     total energy              =   -1868.39450641 Ry
     Harris-Foulkes estimate   =   -1868.39450639 Ry
     estimated scf accuracy    <       0.00000276 Ry

     iteration # 39     ecut=    60.00 Ry     beta= 0.20
     Davidson diagonalization with overlap
     ethr =  1.21E-09,  avg # of iterations =  1.0

     negative rho (up, down):  9.012E-02 0.000E+00

     total cpu time spent up to now is      747.1 secs

     total energy              =   -1868.39450595 Ry
     Harris-Foulkes estimate   =   -1868.39450643 Ry
     estimated scf accuracy    <       0.00000190 Ry

     iteration # 40     ecut=    60.00 Ry     beta= 0.20
     Davidson diagonalization with overlap
     ethr =  8.29E-10,  avg # of iterations =  1.0

     negative rho (up, down):  8.993E-02 0.000E+00

     total cpu time spent up to now is      761.6 secs

     End of self-consistent calculation

          k = 0.0000 0.0000 0.0000 ( 37185 PWs)   bands (ev):

   -41.2982 -38.4242 -23.3559 -23.0787 -22.9369 -22.6887 -21.4392 -21.1704
   -21.1629 -18.9591 -18.4289 -18.4190 -16.4584 -15.7547 -15.5305 -14.8985
   -14.7942 -14.6097 -14.5638 -14.5402 -14.4632 -14.2787 -14.0618 -13.9942
   -13.9549 -13.7700 -13.3043  -8.6684  -8.2999  -8.2905  -8.2805  -8.2087
    -8.0711  -8.0443  -7.8907  -7.8721  -7.8152  -7.7169  -7.6819  -3.2359
    -3.2119  -2.7623  -2.3833  -2.3502  -2.3269  -2.2022  -2.1623  -2.1236
    -2.0957  -2.0182  -1.8169  -1.1893  -1.1583  -1.1168  -1.1148  -0.9734
    -0.8404  -0.7612  -0.7259  -0.7079  -0.6743  -0.5038  -0.4094  -0.3725
    -0.3359  -0.2928  -0.2662  -0.2506  -0.1979  -0.1832  -0.1710  -0.1665
    -0.1544  -0.0768  -0.0197  -0.0128   0.0939   0.0992   0.1278   0.1961
     0.2291   0.2336   0.2422   0.2621   0.2787   0.3192   0.3384   0.3587
     0.3685   0.4739   0.5003   0.6365   0.7789   0.7992   0.9285   0.9854
     1.0164   1.0639   1.0714   1.1442   1.1849   1.2002   1.2596   1.3977
     1.6233   1.6245   1.6825   1.7223   1.7854   1.7977   1.8809   1.9778
     1.9805   2.0513   2.0712   2.1035   2.3682   2.3772   2.4259   2.4722
     3.8442   4.8735   4.9708   5.1365   5.3808   5.6073   5.7258   6.3280
     6.3638   6.3776   6.5903   6.6844   6.7360   7.0734   7.4486   7.8601
     7.8740   7.9124

          k = 0.0000 0.1281 0.0000 ( 37255 PWs)   bands (ev):

   -41.2965 -38.4219 -23.3352 -23.0571 -22.9161 -22.6666 -21.4319 -21.2022
   -21.1681 -18.9232 -18.5233 -18.4257 -16.4087 -15.6461 -15.5482 -14.8554
   -14.8017 -14.6071 -14.5729 -14.5096 -14.4228 -14.3250 -14.0671 -14.0139
   -13.9965 -13.8340 -13.3348  -8.6570  -8.3019  -8.2824  -8.2525  -8.1955
    -8.0638  -8.0298  -7.8922  -7.8518  -7.7986  -7.7024  -7.6743  -3.3424
    -3.1882  -2.6712  -2.4866  -2.4742  -2.3340  -2.3066  -2.1637  -2.1602
    -2.0234  -2.0027  -1.8247  -1.6528  -1.4770  -1.2810  -1.2393  -1.2148
    -1.1262  -1.0240  -0.9632  -0.9393  -0.7570  -0.7354  -0.7226  -0.6436
    -0.5027  -0.4824  -0.4241  -0.4052  -0.3519  -0.3176  -0.2447  -0.1544
    -0.0717  -0.0526  -0.0083   0.0228   0.0275   0.1285   0.1353   0.1568
     0.2216   0.2425   0.2447   0.2912   0.3199   0.3258   0.3478   0.5450
     0.6135   0.6177   0.6223   0.6792   0.7401   0.7806   0.8756   0.9378
     1.1439   1.1779   1.2098   1.3019   1.3187   1.3918   1.3924   1.4090
     1.5106   1.6186   1.6511   1.6587   1.7341   1.7756   1.8898   1.9430
     2.0063   2.0522   2.2292   2.3860   2.3986   2.6204   2.7057   2.8322
     3.9431   4.8819   5.3458   5.4457   5.4767   5.5714   5.8791   6.3723
     6.4002   6.6973   6.8899   7.0319   7.0442   7.3533   7.6488   7.8136
     8.0320   8.1562

          k = 0.0000 0.2563 0.0000 ( 37258 PWs)   bands (ev):

   -41.2923 -38.4163 -23.2843 -23.0040 -22.8649 -22.6123 -21.4199 -21.2888
   -21.1624 -18.8321 -18.7483 -18.4180 -16.2747 -15.6105 -15.3985 -14.8785
   -14.7402 -14.6584 -14.6296 -14.4432 -14.3917 -14.2786 -14.1550 -14.0443
   -13.9872 -13.9697 -13.4267  -8.6282  -8.3440  -8.2415  -8.1656  -8.1578
    -8.1049  -7.9358  -7.9266  -7.7586  -7.7546  -7.7453  -7.5673  -3.6046
    -3.0438  -2.9177  -2.8016  -2.6722  -2.4810  -2.3555  -2.3130  -2.2665
    -2.1926  -2.0696  -2.0421  -1.9847  -1.9537  -1.9499  -1.7996  -1.5229
    -1.4909  -1.2008  -1.1436  -1.1096  -1.0602  -1.0393  -0.9345  -0.8944
    -0.8765  -0.7878  -0.7020  -0.6524  -0.5955  -0.5759  -0.4005  -0.3521
    -0.3351  -0.3091  -0.2003  -0.1487  -0.0464   0.0140   0.0547   0.1323
     0.1534   0.2781   0.2953   0.2996   0.3118   0.3855   0.4677   0.5606
     0.8314   0.8442   0.8839   1.0059   1.0446   1.0510   1.0815   1.1842
     1.2072   1.2561   1.3154   1.3279   1.3679   1.4467   1.4485   1.5333
     1.5494   1.6149   1.6863   1.7159   1.8447   1.8730   1.9601   2.0109
     2.0665   2.3599   2.4052   2.4163   2.4617   2.9826   3.1504   3.4872
     4.0994   4.8174   5.1520   6.2058   6.2433   6.3460   6.4912   6.5049
     6.5580   7.5367   7.5775   7.6836   7.7727   7.8463   7.9078   8.0810
     8.4062   8.4856

          k = 0.0000 0.3844 0.0000 ( 37158 PWs)   bands (ev):

   -41.2881 -38.4107 -23.2321 -22.9495 -22.8124 -22.5564 -21.4396 -21.3404
   -21.1567 -18.9462 -18.7339 -18.4102 -16.0925 -15.7290 -15.1495 -15.0208
   -14.7556 -14.7372 -14.5996 -14.4125 -14.3938 -14.2952 -14.1351 -14.0590
   -13.9853 -13.9050 -13.5811  -8.5952  -8.3818  -8.2015  -8.1383  -8.1317
    -8.0583  -7.9763  -7.8176  -7.7832  -7.7149  -7.6524  -7.4540  -3.8495
    -3.3771  -3.2680  -3.0461  -2.8712  -2.8690  -2.7997  -2.5876  -2.4661
    -2.3587  -2.2209  -2.1658  -2.0292  -2.0111  -1.9862  -1.8552  -1.7890
    -1.7284  -1.4964  -1.3524  -1.3417  -1.1605  -1.1501  -1.1432  -1.0745
    -1.0293  -1.0236  -0.8985  -0.8938  -0.8069  -0.7278  -0.5958  -0.5879
    -0.5617  -0.5276  -0.4061  -0.3438  -0.2635  -0.1670   0.1309   0.1867
     0.2719   0.2786   0.2884   0.2889   0.3195   0.4183   0.6509   0.7576
     0.7776   0.8603   0.9354   0.9970   1.0554   1.0875   1.1601   1.2807
     1.3094   1.3348   1.3785   1.4685   1.5113   1.5427   1.5959   1.6438
     1.6796   1.8182   1.8208   1.8896   1.9291   2.0625   2.1452   2.3204
     2.3677   2.3936   2.4209   2.4712   2.7375   2.9541   3.1351   4.0432
     4.1474   4.9004   4.9225   6.5756   6.7296   6.9815   7.1374   7.3228
     7.3439   7.5711   7.6046   8.1221   8.3466   8.5435   8.5624   8.6092
     8.7311   8.8443

          k = 0.0000-0.5125 0.0000 ( 37290 PWs)   bands (ev):

   -41.2863 -38.4084 -23.2100 -22.9265 -22.7902 -22.5328 -21.4648 -21.3439
   -21.1544 -19.0221 -18.6907 -18.4070 -15.9242 -15.8734 -15.1016 -15.0180
   -14.8034 -14.8031 -14.5192 -14.4219 -14.3988 -14.3503 -14.1905 -13.9540
   -13.9114 -13.7883 -13.7826  -8.5790  -8.3981  -8.1853  -8.1496  -8.1150
    -8.0156  -7.9941  -7.7964  -7.7705  -7.6970  -7.6084  -7.4049  -3.9517
    -3.6109  -3.4181  -3.1809  -3.1079  -3.1010  -2.7660  -2.4868  -2.4604
    -2.4472  -2.3919  -2.2557  -2.2040  -2.0881  -1.8784  -1.8400  -1.7849
    -1.6851  -1.6231  -1.4565  -1.4054  -1.3319  -1.2952  -1.1835  -1.1398
    -1.1285  -0.9981  -0.9229  -0.9046  -0.8606  -0.8213  -0.6828  -0.6778
    -0.6342  -0.6194  -0.6009  -0.3977  -0.3689  -0.1559   0.1917   0.2019
     0.2447   0.2755   0.2785   0.3187   0.3255   0.4277   0.7371   0.8398
     0.8436   0.8580   0.8649   0.9757   1.0687   1.0880   1.2289   1.2340
     1.2839   1.3245   1.4257   1.4906   1.5002   1.5394   1.5871   1.7301
     1.7506   1.8340   1.9784   2.1680   2.1857   2.2317   2.2446   2.2488
     2.3014   2.4534   2.5301   2.5876   2.8153   2.8788   3.0173   4.1187
     4.2374   4.8384   4.9827   6.6010   6.9158   7.1821   7.4603   7.5285
     7.6237   7.7105   7.7809   8.0052   8.4983   8.6420   8.8939   8.8950
     8.9038   9.0868

          k = 0.1250 0.0000 0.0000 ( 37232 PWs)   bands (ev):

   -41.2969 -38.4224 -23.3384 -23.0603 -22.9192 -22.6697 -21.4332 -21.2058
   -21.1611 -18.9266 -18.5290 -18.4165 -16.4090 -15.6392 -15.5469 -14.9258
   -14.8219 -14.6330 -14.6117 -14.5183 -14.4443 -14.3078 -14.0624 -14.0083
   -13.9925 -13.7993 -13.3344  -8.6907  -8.3114  -8.2851  -8.2492  -8.1953
    -8.0360  -8.0100  -7.8531  -7.8399  -7.8311  -7.6772  -7.6462  -3.3357
    -3.1686  -2.6800  -2.4751  -2.4058  -2.3008  -2.2761  -2.1574  -2.1458
    -2.0850  -2.0412  -1.8409  -1.3121  -1.2147  -1.1644  -1.1568  -1.0967
    -1.0338  -0.8754  -0.7576  -0.7557  -0.7205  -0.6627  -0.5945  -0.4669
    -0.4575  -0.4459  -0.3705  -0.3542  -0.3476  -0.2493  -0.1645  -0.1592
    -0.1180  -0.1056   0.0020   0.0195   0.1038   0.1393   0.1543   0.1728
     0.2084   0.2282   0.2421   0.2542   0.2611   0.3533   0.3713   0.4157
     0.4178   0.5058   0.6699   0.6793   0.7093   0.7326   0.8481   0.9429
     0.9470   0.9978   1.1026   1.1509   1.2327   1.3470   1.3597   1.4231
     1.5435   1.6780   1.7113   1.7665   1.7688   1.8277   1.9241   1.9446
     1.9939   2.0414   2.0734   2.1531   2.3997   2.4109   2.4245   2.5956
     3.9371   4.7993   5.1670   5.2969   5.4994   5.5739   5.8814   6.1635
     6.4143   6.6166   6.8181   6.9489   7.0401   7.3127   7.6490   7.8546
     8.0224   8.1901

          k = 0.1250 0.1281 0.0000 ( 37248 PWs)   bands (ev):

   -41.2952 -38.4201 -23.3184 -23.0394 -22.8990 -22.6484 -21.4262 -21.2068
   -21.1965 -18.8911 -18.5327 -18.5116 -16.3609 -15.5607 -15.5315 -14.8794
   -14.8194 -14.6344 -14.6083 -14.4905 -14.3919 -14.3614 -14.0618 -14.0508
   -13.9895 -13.8518 -13.3615  -8.6760  -8.4221  -8.2966  -8.2161  -8.1836
    -8.1140  -8.0069  -7.8862  -7.8552  -7.7832  -7.7177  -7.5272  -3.4617
    -3.1366  -2.6151  -2.5757  -2.5238  -2.3331  -2.2954  -2.1887  -2.1814
    -2.1323  -1.9623  -1.8201  -1.6657  -1.4599  -1.4345  -1.2970  -1.2751
    -1.2556  -1.2327  -1.0917  -1.0724  -0.9201  -0.7856  -0.7484  -0.7446
    -0.6330  -0.5394  -0.5120  -0.4183  -0.3785  -0.3553  -0.2291  -0.1412
    -0.1044  -0.0342  -0.0273   0.0071   0.0735   0.0821   0.1014   0.1495
     0.1908   0.1990   0.2310   0.2679   0.2948   0.3399   0.3479   0.5443
     0.5904   0.6539   0.6859   0.7788   0.8406   0.9028   0.9310   0.9465
     0.9768   1.1585   1.2057   1.2290   1.2492   1.4106   1.4184   1.5401
     1.5895   1.6010   1.6090   1.7105   1.7219   1.9326   2.0236   2.0328
     2.0905   2.1660   2.1896   2.3951   2.6415   2.7187   2.7958   2.8417
     4.0235   4.8233   5.3177   5.4933   5.6062   5.7229   6.0288   6.2568
     6.4224   6.9265   7.1332   7.2458   7.2935   7.5549   7.7318   7.8440
     8.1859   8.3384

          k = 0.1250 0.2563 0.0000 ( 37300 PWs)   bands (ev):

   -41.2910 -38.4145 -23.2691 -22.9882 -22.8495 -22.5961 -21.4149 -21.2874
   -21.1956 -18.8013 -18.7438 -18.5134 -16.2314 -15.6128 -15.2864 -14.8636
   -14.7564 -14.6663 -14.6311 -14.4482 -14.4262 -14.2412 -14.1566 -14.0356
   -13.9827 -13.9607 -13.4434  -8.6416  -8.5313  -8.3076  -8.2417  -8.1865
    -8.1230  -8.0671  -7.9449  -7.8422  -7.7622  -7.6803  -7.4828  -3.7275
    -3.0550  -3.0174  -2.8202  -2.6649  -2.4197  -2.3653  -2.3327  -2.2770
    -2.2282  -2.1460  -2.0665  -2.0364  -1.9825  -1.9706  -1.8933  -1.7383
    -1.5436  -1.2636  -1.2471  -1.1903  -1.1162  -1.1089  -1.0939  -1.0163
    -0.8945  -0.8589  -0.7393  -0.5900  -0.5887  -0.5215  -0.4982  -0.4072
    -0.3501  -0.2662  -0.1702  -0.1067  -0.0599   0.0839   0.1290   0.1614
     0.1784   0.1985   0.2765   0.2882   0.3282   0.4192   0.5145   0.6365
     0.6831   0.9039   0.9588   1.0209   1.1058   1.1356   1.1448   1.1779
     1.1935   1.3077   1.3493   1.3527   1.4095   1.4248   1.4461   1.5278
     1.5679   1.7451   1.8278   1.8769   1.9302   1.9608   2.0010   2.1505
     2.2088   2.4212   2.4837   2.6637   2.9409   2.9873   3.1869   3.4845
     4.1954   4.7728   5.0294   6.2065   6.2968   6.4038   6.4266   6.5264
     6.5953   7.5329   7.7512   7.7902   7.9510   8.0107   8.0736   8.1561
     8.4505   8.4956

          k = 0.1250 0.3844 0.0000 ( 37301 PWs)   bands (ev):

   -41.2868 -38.4089 -23.2186 -22.9357 -22.7988 -22.5424 -21.4359 -21.3380
   -21.1891 -18.9402 -18.7045 -18.5035 -16.0565 -15.7177 -15.0476 -14.9759
   -14.7304 -14.7081 -14.5955 -14.4548 -14.3905 -14.2764 -14.1160 -14.0299
   -13.9813 -13.9003 -13.5826  -8.6095  -8.5471  -8.3123  -8.2119  -8.1925
    -8.1369  -8.0823  -7.9562  -7.8901  -7.7260  -7.7254  -7.5295  -3.9834
    -3.4154  -3.3294  -3.0969  -2.9229  -2.8630  -2.8589  -2.6017  -2.4661
    -2.3329  -2.3108  -2.2528  -2.1647  -2.0852  -2.0720  -1.9240  -1.7371
    -1.6545  -1.5674  -1.4705  -1.4198  -1.2940  -1.1593  -1.1445  -1.1212
    -1.0269  -0.9564  -0.9495  -0.8336  -0.7738  -0.7351  -0.7019  -0.6622
    -0.5952  -0.5155  -0.2808  -0.1727  -0.0997  -0.0462   0.1572   0.1722
     0.2159   0.2947   0.3369   0.3562   0.3934   0.4708   0.6089   0.7655
     0.7881   0.9310   0.9635   1.0610   1.0904   1.1535   1.2145   1.2700
     1.3075   1.3657   1.4682   1.4919   1.5727   1.5905   1.6303   1.7167
     1.8150   1.9466   1.9863   2.0630   2.0680   2.1774   2.3417   2.3832
     2.4154   2.4469   2.6795   2.7863   2.8971   2.9787   3.2076   4.0097
     4.2526   4.7968   4.8608   6.4540   6.6245   6.9290   7.0192   7.1961
     7.2276   7.4677   7.7311   8.2574   8.3074   8.5491   8.6175   8.7076
     8.8658   8.8849

          k = 0.1250-0.5125 0.0000 ( 37268 PWs)   bands (ev):

   -41.2850 -38.4066 -23.1973 -22.9135 -22.7774 -22.5196 -21.4616 -21.3412
   -21.1863 -19.0157 -18.6620 -18.4994 -15.8951 -15.8524 -15.0608 -14.9006
   -14.7684 -14.7642 -14.4846 -14.4452 -14.3931 -14.3650 -14.1646 -13.9528
   -13.9047 -13.7829 -13.7624  -8.5952  -8.5283  -8.2871  -8.2206  -8.1958
    -8.1245  -8.0848  -7.9381  -7.9337  -7.7661  -7.7104  -7.5762  -4.0911
    -3.6103  -3.5242  -3.2389  -3.0973  -3.0952  -2.7859  -2.7344  -2.7169
    -2.3649  -2.3289  -2.2706  -2.2002  -2.0330  -1.9704  -1.9483  -1.7889
    -1.7310  -1.6648  -1.6061  -1.4801  -1.3470  -1.2297  -1.1528  -1.1073
    -1.0568  -0.9977  -0.9829  -0.9168  -0.8454  -0.7919  -0.7859  -0.7456
    -0.6855  -0.6068  -0.3151  -0.2044  -0.1784  -0.0920   0.1543   0.1756
     0.2335   0.3101   0.3429   0.4012   0.4719   0.4924   0.6440   0.8194
     0.8648   0.9280   0.9411   1.0490   1.0803   1.1428   1.2138   1.2397
     1.2654   1.3910   1.4441   1.5545   1.6274   1.6348   1.6868   1.8187
     1.9690   2.0736   2.1876   2.2188   2.2249   2.2780   2.4109   2.5091
     2.5132   2.5804   2.5968   2.7720   2.8694   2.9306   3.1133   4.1874
     4.1991   4.7499   4.9334   6.4933   6.7214   7.1553   7.1945   7.2969
     7.4447   7.5542   7.7531   8.1085   8.5330   8.8128   8.9755   9.0025
     9.1278   9.1661

          k = 0.2500 0.0000 0.0000 ( 37346 PWs)   bands (ev):

   -41.2937 -38.4180 -23.2955 -23.0151 -22.8758 -22.6231 -21.4221 -21.2856
   -21.1568 -18.8448 -18.7440 -18.4104 -16.2767 -15.6048 -15.3749 -15.0076
   -14.9280 -14.7505 -14.7225 -14.4810 -14.3422 -14.3271 -14.1380 -14.0566
   -13.9817 -13.8516 -13.4220  -8.7300  -8.3201  -8.2657  -8.1715  -8.1661
    -7.9661  -7.9247  -7.8414  -7.7891  -7.7599  -7.6099  -7.5571  -3.5409
    -3.0382  -2.7833  -2.6953  -2.5366  -2.2967  -2.2625  -2.1938  -2.1563
    -2.0500  -1.9564  -1.8836  -1.8484  -1.5562  -1.3434  -1.2314  -1.2149
    -1.1529  -1.0435  -0.9830  -0.9766  -0.8427  -0.8245  -0.7517  -0.7425
    -0.7192  -0.7074  -0.6579  -0.5692  -0.4377  -0.4239  -0.2088  -0.1852
    -0.1035  -0.0989  -0.0509  -0.0244   0.0447   0.1156   0.1514   0.1889
     0.2132   0.2184   0.2289   0.2397   0.3684   0.3894   0.4160   0.4856
     0.4959   0.5378   0.5827   0.7241   0.7894   0.8188   0.8456   0.9375
     1.0018   1.0994   1.1981   1.2554   1.2909   1.3650   1.3677   1.5022
     1.5315   1.5615   1.6189   1.7063   1.7193   1.8191   1.8347   1.9038
     2.0099   2.2020   2.3243   2.3861   2.4313   2.4456   2.5483   2.7888
     4.1026   4.5566   5.2937   5.6211   5.7204   5.9945   6.3616   6.3857
     6.4917   7.2473   7.3739   7.5114   7.5630   7.7693   7.8089   8.0779
     8.4840   8.6447

          k = 0.2500 0.1281 0.0000 ( 37310 PWs)   bands (ev):

   -41.2920 -38.4157 -23.2771 -22.9961 -22.8573 -22.6038 -21.4158 -21.2835
   -21.1941 -18.8107 -18.7382 -18.5105 -16.2330 -15.6083 -15.2700 -14.9543
   -14.8991 -14.7319 -14.6978 -14.4517 -14.4076 -14.2753 -14.1448 -14.0462
   -13.9701 -13.8808 -13.4393  -8.7242  -8.4544  -8.3270  -8.2389  -8.2109
    -8.0783  -8.0147  -7.9120  -7.8120  -7.7844  -7.6541  -7.4523  -3.6843
    -3.0527  -2.9214  -2.7393  -2.4743  -2.2893  -2.2830  -2.2733  -2.2336
    -2.1679  -2.0193  -1.8751  -1.8386  -1.8072  -1.6904  -1.4103  -1.3764
    -1.3035  -1.2719  -1.2300  -1.1388  -1.1056  -1.0995  -1.0057  -0.9444
    -0.8548  -0.7353  -0.5979  -0.5898  -0.5117  -0.5017  -0.2995  -0.1256
    -0.1144  -0.0650  -0.0372  -0.0069   0.0073   0.0733   0.1251   0.1398
     0.1873   0.1973   0.2492   0.3191   0.4187   0.4728   0.4816   0.5342
     0.5596   0.6179   0.7017   0.7482   0.9318   0.9932   1.0328   1.0750
     1.0868   1.1372   1.2320   1.2550   1.3632   1.3956   1.4393   1.4480
     1.4942   1.5253   1.6652   1.8113   1.8263   1.8762   2.0618   2.1129
     2.2382   2.4732   2.4766   2.6885   2.7030   2.8070   2.8405   3.1001
     4.2008   4.5671   5.1236   5.8634   5.9639   6.0154   6.4067   6.4791
     6.4917   7.5032   7.5920   7.6216   7.7828   7.8449   8.0075   8.1857
     8.4896   8.6816

          k = 0.2500 0.2563 0.0000 ( 37327 PWs)   bands (ev):

   -41.2878 -38.4102 -23.2318 -22.9496 -22.8120 -22.5565 -21.4056 -21.3014
   -21.2535 -18.7444 -18.7248 -18.7079 -16.1166 -15.6321 -15.0383 -14.8560
   -14.7945 -14.6945 -14.6479 -14.5521 -14.3847 -14.1668 -14.1358 -14.0137
   -13.9660 -13.9368 -13.4931  -8.7594  -8.6545  -8.5138  -8.3269  -8.2601
    -8.2193  -8.1535  -8.1114  -7.9093  -7.7779  -7.7494  -7.5517  -4.0214
    -3.3413  -3.0539  -2.9646  -2.6408  -2.5883  -2.4218  -2.4174  -2.3495
    -2.2929  -2.2654  -2.2083  -2.0728  -2.0447  -1.9718  -1.8066  -1.7821
    -1.7143  -1.6814  -1.6402  -1.4985  -1.1606  -1.1439  -1.0814  -1.0188
    -0.9034  -0.8883  -0.8176  -0.6527  -0.6181  -0.5454  -0.4694  -0.4362
    -0.3711  -0.3283  -0.2963  -0.1003  -0.0718   0.0401   0.1448   0.2708
     0.3423   0.3854   0.3934   0.4246   0.4857   0.5681   0.6022   0.6548
     0.9412   0.9854   1.0224   1.0860   1.0880   1.0972   1.1887   1.2111
     1.2128   1.3087   1.3866   1.4460   1.4738   1.5371   1.6030   1.6844
     1.7324   1.7903   1.8519   1.8843   1.9599   2.0142   2.0822   2.3211
     2.6422   2.6750   2.9557   3.0839   3.0967   3.2728   3.4762   3.5962
     4.4453   4.5402   4.8174   6.1243   6.3767   6.4368   6.4974   6.5101
     6.8512   7.3293   8.0220   8.0960   8.2280   8.3484   8.4980   8.5106
     8.6129   8.7166

          k = 0.2500 0.3844 0.0000 ( 37349 PWs)   bands (ev):

   -41.2837 -38.4047 -23.1856 -22.9020 -22.7656 -22.5080 -21.4273 -21.3450
   -21.2522 -18.9257 -18.7085 -18.6293 -15.9638 -15.6984 -14.9141 -14.7855
   -14.6703 -14.6276 -14.6049 -14.5901 -14.3381 -14.2227 -14.0693 -13.9701
   -13.9592 -13.8846 -13.5889  -8.8465  -8.6574  -8.6205  -8.4508  -8.3753
    -8.2629  -8.2386  -8.1498  -8.1458  -7.9655  -7.7932  -7.7518  -4.3491
    -3.7554  -3.3476  -3.2426  -3.0652  -2.9062  -2.8564  -2.8324  -2.6572
    -2.4435  -2.3723  -2.2915  -2.1669  -2.1512  -2.1445  -2.1117  -1.9175
    -1.7680  -1.6966  -1.6514  -1.5818  -1.2603  -1.2081  -1.1237  -1.0949
    -1.0827  -1.0158  -0.8472  -0.7715  -0.7606  -0.6387  -0.6102  -0.6089
    -0.5624  -0.4986  -0.3785  -0.1183  -0.0437   0.0486   0.1828   0.3649
     0.4284   0.4464   0.5302   0.5598   0.6546   0.7574   0.7829   0.7962
     1.0024   1.0199   1.1049   1.1564   1.2334   1.3063   1.3277   1.4399
     1.4638   1.5091   1.5297   1.5512   1.6794   1.7038   1.7740   1.7780
     1.8598   1.9724   2.0118   2.1248   2.1361   2.2756   2.3462   2.5922
     2.8414   2.8860   2.9879   3.0396   3.3617   3.5408   3.8640   3.9257
     4.3889   4.5733   4.8305   5.9282   6.5016   6.5438   6.7287   6.8392
     6.9654   7.6113   8.0933   8.4018   8.4400   8.6375   8.8691   8.9271
     9.0344   9.1592

          k = 0.2500-0.5125 0.0000 ( 37378 PWs)   bands (ev):

   -41.2819 -38.4024 -23.1661 -22.8820 -22.7461 -22.4877 -21.4538 -21.3478
   -21.2484 -19.0002 -18.7027 -18.5886 -15.8232 -15.8049 -14.9573 -14.6823
   -14.6649 -14.6391 -14.5890 -14.3969 -14.3709 -14.3231 -14.0997 -13.9493
   -13.8937 -13.7791 -13.6998  -8.8343  -8.6486  -8.6051  -8.5409  -8.4291
    -8.3055  -8.2496  -8.2247  -8.1509  -8.0891  -7.9474  -7.7419  -4.4839
    -3.9187  -3.5649  -3.4266  -3.1048  -3.0803  -3.0713  -2.9673  -2.8578
    -2.4374  -2.3722  -2.3078  -2.2574  -2.1939  -2.1393  -2.0916  -2.0335
    -1.7410  -1.6840  -1.6730  -1.6052  -1.3538  -1.2536  -1.1691  -1.1217
    -1.1196  -0.9945  -0.8915  -0.8463  -0.7852  -0.7120  -0.6576  -0.6058
    -0.5806  -0.5534  -0.3942  -0.1329  -0.0079   0.0612   0.1999   0.3817
     0.4361   0.4451   0.5822   0.7054   0.7150   0.8229   0.8871   0.8890
     1.0579   1.0642   1.1084   1.1699   1.3055   1.3289   1.3530   1.3717
     1.3845   1.5541   1.5815   1.6665   1.7415   1.7447   1.7932   1.8587
     1.9457   2.1681   2.1751   2.2197   2.2755   2.4541   2.5154   2.7257
     2.7404   2.9060   2.9194   3.0966   3.4195   3.5952   3.9169   4.0646
     4.2545   4.5589   4.9747   5.8245   6.4940   6.5129   6.6858   6.7742
     7.4548   7.7643   7.8365   8.4105   8.5845   9.0223   9.0228   9.2235
     9.2875   9.3470

          k = 0.3750 0.0000 0.0000 ( 37348 PWs)   bands (ev):

   -41.2905 -38.4137 -23.2516 -22.9688 -22.8313 -22.5752 -21.4300 -21.3436
   -21.1525 -18.9332 -18.7561 -18.4044 -16.1016 -15.7125 -15.1371 -15.1123
   -15.0344 -14.8882 -14.8372 -14.4868 -14.3345 -14.2585 -14.1578 -14.0450
   -13.9555 -13.8831 -13.5541  -8.7543  -8.3212  -8.2324  -8.1433  -8.0905
    -7.9068  -7.8369  -7.8354  -7.7507  -7.6764  -7.5579  -7.4636  -3.7412
    -3.1056  -2.9553  -2.8243  -2.4789  -2.4577  -2.3172  -2.2627  -2.1403
    -2.0222  -1.9959  -1.9291  -1.9283  -1.8878  -1.4830  -1.4302  -1.3209
    -1.2473  -1.2298  -1.2158  -1.1233  -1.1034  -1.0172  -0.9665  -0.8815
    -0.8637  -0.7742  -0.7270  -0.6926  -0.6062  -0.5010  -0.4714  -0.3913
    -0.2003  -0.1988  -0.1133   0.0374   0.0830   0.1453   0.1780   0.2050
     0.2225   0.2263   0.2334   0.4056   0.4277   0.4495   0.4544   0.5027
     0.5469   0.5859   0.6217   0.6473   0.7304   0.7647   0.8597   1.0161
     1.0878   1.1801   1.2336   1.2627   1.3613   1.3984   1.4218   1.5251
     1.5681   1.5965   1.6303   1.6655   1.7034   1.7299   1.9722   1.9854
     2.0045   2.2423   2.3660   2.4161   2.4468   2.6546   2.7351   2.8542
     3.9960   4.5685   5.1284   6.2572   6.3344   6.3563   6.5415   6.7263
     6.9673   7.6024   7.7585   7.7649   7.9249   8.1816   8.2073   8.5393
     8.6831   8.7404

          k = 0.3750 0.1281 0.0000 ( 37304 PWs)   bands (ev):

   -41.2888 -38.4114 -23.2349 -22.9518 -22.8146 -22.5580 -21.4253 -21.3401
   -21.1891 -18.9259 -18.7232 -18.5027 -16.0645 -15.7032 -15.0787 -15.0388
   -14.9531 -14.8446 -14.7941 -14.4529 -14.4018 -14.2352 -14.1145 -14.0286
   -13.9391 -13.8943 -13.5574  -8.7510  -8.3928  -8.3220  -8.2278  -8.1535
    -8.1251  -7.9758  -7.8680  -7.8679  -7.7653  -7.7157  -7.5085  -3.8984
    -3.2532  -3.0106  -2.9445  -2.4985  -2.4864  -2.3544  -2.2951  -2.2740
    -2.1960  -2.1355  -2.0747  -1.8265  -1.7790  -1.7258  -1.5936  -1.5221
    -1.4615  -1.3388  -1.2759  -1.2362  -1.1744  -1.0967  -1.0860  -1.0831
    -1.0093  -0.8517  -0.8110  -0.7713  -0.7149  -0.5523  -0.3815  -0.2207
    -0.2090  -0.1241  -0.0788  -0.0492  -0.0053   0.1127   0.1137   0.1407
     0.2385   0.3081   0.3211   0.3823   0.4956   0.5583   0.5706   0.6083
     0.6495   0.6510   0.7162   0.8282   0.9084   0.9489   0.9666   1.0763
     1.1024   1.1706   1.3138   1.3265   1.3759   1.4061   1.4201   1.4966
     1.5414   1.5685   1.6409   1.7139   1.8810   2.0280   2.0567   2.2646
     2.4071   2.5858   2.7003   2.7298   2.8000   2.8377   2.9577   3.1909
     4.0806   4.5756   4.9588   6.1954   6.3819   6.4963   6.4976   6.7881
     7.0566   7.4178   7.8340   7.8638   7.9664   8.4152   8.4966   8.5564
     8.6466   8.8092

          k = 0.3750 0.2563 0.0000 ( 37327 PWs)   bands (ev):

   -41.2847 -38.4059 -23.1938 -22.9102 -22.7736 -22.5160 -21.4149 -21.3475
   -21.2580 -18.9085 -18.7179 -18.6400 -15.9688 -15.6899 -14.9552 -14.8573
   -14.7677 -14.7335 -14.6560 -14.5680 -14.3704 -14.1811 -14.0047 -13.9910
   -13.9411 -13.9010 -13.5715  -8.8152  -8.6888  -8.5629  -8.4142  -8.3483
    -8.2784  -8.2022  -8.1745  -8.1368  -7.9678  -7.7983  -7.7803  -4.3150
    -3.6929  -3.2414  -3.0433  -2.9606  -2.6135  -2.5822  -2.4812  -2.3798
    -2.3130  -2.2696  -2.1676  -2.1507  -2.0926  -2.0510  -2.0268  -1.9505
    -1.8954  -1.7334  -1.5610  -1.5232  -1.1718  -1.1105  -1.0530  -0.9787
    -0.9782  -0.9101  -0.8124  -0.7422  -0.6640  -0.5987  -0.5225  -0.4626
    -0.4507  -0.3669  -0.3166  -0.1525  -0.0247   0.1520   0.2326   0.4024
     0.4567   0.4767   0.5568   0.6321   0.6515   0.7460   0.7828   0.8221
     0.9229   0.9940   1.0500   1.1417   1.1534   1.1946   1.2507   1.2582
     1.3311   1.3839   1.4118   1.4686   1.5030   1.5313   1.6139   1.7070
     1.7436   1.7611   1.8686   1.9443   1.9983   2.0387   2.1107   2.5776
     2.9018   2.9598   3.0332   3.0870   3.4576   3.4916   3.6286   3.9245
     4.1823   4.6324   4.7387   5.8047   6.3566   6.5004   6.5252   6.8267
     6.8731   7.5203   8.0751   8.2307   8.3932   8.5327   8.8208   8.8618
     8.9215   8.9951

          k = 0.3750 0.3844 0.0000 ( 37423 PWs)   bands (ev):

   -41.2805 -38.4004 -23.1520 -22.8678 -22.7319 -22.4732 -21.4195 -21.3910
   -21.2726 -18.9125 -18.8880 -18.5506 -15.8525 -15.7008 -14.8424 -14.7318
   -14.6503 -14.6122 -14.5910 -14.4663 -14.2958 -14.1619 -14.0195 -13.9573
   -13.9083 -13.8360 -13.6041  -9.0543  -8.8293  -8.7219  -8.7103  -8.6099
    -8.4690  -8.4656  -8.2676  -8.2604  -8.1739  -8.1146  -7.7824  -4.7272
    -4.1452  -3.6037  -3.2560  -3.2417  -3.0598  -2.9452  -2.8047  -2.7249
    -2.5787  -2.5474  -2.4669  -2.3202  -2.2203  -2.1605  -2.0828  -2.0473
    -1.9563  -1.7991  -1.5827  -1.4387  -1.3990  -1.1988  -1.1475  -1.0356
    -1.0260  -0.9894  -0.8626  -0.7886  -0.7630  -0.6971  -0.6797  -0.5876
    -0.5617  -0.2641  -0.2579  -0.1608   0.0733   0.2702   0.2996   0.5167
     0.6154   0.6677   0.7248   0.7755   0.8689   0.9202   1.0193   1.1279
     1.1539   1.1573   1.2401   1.3489   1.3616   1.3717   1.4354   1.4451
     1.5644   1.6565   1.6744   1.6919   1.7470   1.8173   1.8194   1.8255
     1.9338   2.0006   2.1277   2.1651   2.1969   2.2084   2.2757   2.8681
     2.8754   3.0178   3.1087   3.5238   3.8585   4.0250   4.1237   4.1864
     4.3903   4.4552   5.0376   5.2868   5.9915   6.1767   6.5367   6.7646
     7.1183   7.8386   8.4141   8.5592   8.6613   8.7075   8.7873   8.9449
     8.9470   9.1637

          k = 0.3750-0.5125 0.0000 ( 37434 PWs)   bands (ev):

   -41.2788 -38.3981 -23.1344 -22.8500 -22.7144 -22.4552 -21.4461 -21.3928
   -21.2693 -18.9846 -18.8827 -18.5115 -15.7619 -15.7487 -14.8450 -14.7470
   -14.5933 -14.5579 -14.3964 -14.3706 -14.2993 -14.2564 -14.0301 -13.9456
   -13.8922 -13.7673 -13.6379  -9.1320  -8.9083  -8.8577  -8.7234  -8.7015
    -8.6208  -8.5482  -8.3868  -8.2701  -8.2621  -8.1699  -7.7767  -4.8924
    -4.3262  -3.7712  -3.4893  -3.3484  -3.1350  -3.0575  -3.0428  -2.9533
    -2.6874  -2.5952  -2.4803  -2.3178  -2.2558  -2.1560  -2.0955  -2.0771
    -1.9372  -1.8272  -1.5900  -1.5375  -1.4089  -1.2258  -1.1594  -1.0854
    -1.0777  -1.0338  -0.8969  -0.8673  -0.8191  -0.7727  -0.6578  -0.6528
    -0.5662  -0.2303  -0.1503  -0.1196   0.1002   0.3087   0.3497   0.5272
     0.6521   0.7875   0.7937   0.8329   0.9528   0.9998   1.0806   1.1716
     1.1920   1.2884   1.3615   1.4082   1.4531   1.5187   1.5476   1.5824
     1.6016   1.6314   1.6501   1.7342   1.8243   1.9211   1.9395   2.0283
     2.1147   2.1537   2.1892   2.2385   2.3268   2.3933   2.4538   2.7062
     2.8637   3.0085   3.2085   3.6640   3.9615   4.1065   4.1840   4.2884
     4.3515   4.6266   5.0804   5.1859   5.7937   5.9836   6.4476   6.8331
     7.6854   7.8729   7.9861   8.6361   8.6496   8.7915   8.9393   9.0163
     9.0951   9.1673

          k =-0.5000 0.0000 0.0000 ( 37306 PWs)   bands (ev):

   -41.2892 -38.4119 -23.2331 -22.9492 -22.8125 -22.5550 -21.4472 -21.3529
   -21.1508 -19.0054 -18.7177 -18.4018 -15.9747 -15.8135 -15.1893 -15.1213
   -14.9470 -14.9451 -14.8990 -14.5175 -14.3228 -14.3014 -14.0724 -14.0392
   -13.9168 -13.8913 -13.6494  -8.7611  -8.3204  -8.2155  -8.1359  -8.0560
    -7.8841  -7.8325  -7.7970  -7.7402  -7.6407  -7.5390  -7.4234  -3.8267
    -3.2290  -3.0696  -2.6246  -2.6095  -2.4096  -2.3646  -2.3114  -2.2894
    -2.1988  -1.9623  -1.9562  -1.8758  -1.7080  -1.5841  -1.5053  -1.4418
    -1.3692  -1.3456  -1.2375  -1.1543  -1.1433  -1.1385  -0.9774  -0.9395
    -0.9155  -0.8116  -0.7261  -0.7228  -0.7211  -0.6868  -0.4854  -0.4392
    -0.2471  -0.2045  -0.1523   0.0409   0.1343   0.1607   0.1888   0.1994
     0.2209   0.2232   0.2387   0.4245   0.4426   0.4844   0.4946   0.5261
     0.5300   0.5631   0.5635   0.6784   0.7512   0.7971   0.9918   1.0042
     1.1326   1.1668   1.1847   1.2814   1.3119   1.3824   1.4017   1.5759
     1.6231   1.6259   1.6279   1.6534   1.7436   1.7489   1.9578   1.9795
     2.2290   2.2415   2.3555   2.3616   2.4548   2.6679   2.8243   2.8939
     3.8559   4.6542   5.0671   6.4491   6.5584   6.8778   7.0042   7.1129
     7.1760   7.1830   7.2842   7.5445   7.7471   8.3859   8.5896   8.7935
     8.8294   8.9237

          k =-0.5000 0.1281 0.0000 ( 37308 PWs)   bands (ev):

   -41.2875 -38.4096 -23.2171 -22.9331 -22.7966 -22.5387 -21.4432 -21.3487
   -21.1870 -18.9976 -18.6854 -18.4994 -15.9424 -15.7969 -15.1347 -15.0566
   -14.8933 -14.8578 -14.8292 -14.4835 -14.3895 -14.2676 -14.0353 -14.0209
   -13.8996 -13.8962 -13.6435  -8.7561  -8.3162  -8.2638  -8.2609  -8.2125
    -8.0192  -8.0084  -7.8633  -7.8448  -7.8338  -7.6747  -7.6333  -3.9901
    -3.3821  -3.1331  -2.8426  -2.6669  -2.6327  -2.3431  -2.3085  -2.2859
    -2.1931  -2.1844  -1.8908  -1.8345  -1.8145  -1.7594  -1.7421  -1.6805
    -1.4866  -1.2924  -1.2768  -1.2316  -1.1958  -1.1487  -1.0691  -1.0351
    -1.0267  -0.9151  -0.8956  -0.8546  -0.8373  -0.5659  -0.4306  -0.2496
    -0.2395  -0.1973  -0.1092  -0.0929  -0.0017   0.1018   0.1441   0.1444
     0.2363   0.3430   0.3553   0.4028   0.4894   0.5629   0.6647   0.6694
     0.6923   0.7229   0.7987   0.8209   0.8517   0.8703   1.0310   1.0833
     1.1353   1.1683   1.2908   1.3169   1.3294   1.3328   1.4246   1.5619
     1.5639   1.5839   1.6522   1.7302   1.9033   1.9983   2.2193   2.3061
     2.5069   2.6071   2.6990   2.7234   2.8122   2.9462   2.9951   3.1715
     3.9087   4.6752   4.8993   6.2300   6.4978   6.8306   7.0003   7.0454
     7.2371   7.3926   7.4605   7.4766   7.6685   8.7779   8.7800   8.8221
     8.8831   8.9860

          k =-0.5000 0.2563 0.0000 ( 37354 PWs)   bands (ev):

   -41.2834 -38.4041 -23.1779 -22.8936 -22.7576 -22.4990 -21.4336 -21.3552
   -21.2556 -18.9788 -18.7134 -18.6038 -15.8627 -15.7603 -15.0027 -14.8696
   -14.7524 -14.7492 -14.5725 -14.5513 -14.4014 -14.1852 -13.9813 -13.9508
   -13.9284 -13.8577 -13.6298  -8.7741  -8.6734  -8.5651  -8.4850  -8.3304
    -8.3180  -8.2845  -8.1745  -8.1449  -8.1169  -7.9856  -7.8014  -4.4373
    -3.8345  -3.3767  -3.0894  -3.0259  -2.7467  -2.5607  -2.4963  -2.3745
    -2.3118  -2.3043  -2.2613  -2.2141  -2.0726  -2.0525  -2.0346  -1.9756
    -1.9385  -1.7600  -1.5298  -1.5136  -1.2682  -1.0877  -1.0122  -0.9438
    -0.8893  -0.8727  -0.8341  -0.7877  -0.7545  -0.5612  -0.5297  -0.5048
    -0.4535  -0.3849  -0.3213  -0.1841   0.0164   0.1558   0.3384   0.4298
     0.5070   0.5414   0.5746   0.6922   0.7424   0.7994   0.8779   0.9010
     0.9413   1.0319   1.1044   1.2195   1.2302   1.2468   1.2776   1.2911
     1.2920   1.3151   1.3359   1.4373   1.4860   1.6636   1.6708   1.7078
     1.7092   1.7552   1.8190   1.8469   1.9484   2.0938   2.2077   2.7064
     2.9480   3.0376   3.0752   3.1426   3.5091   3.5897   3.7240   3.9599
     4.0157   4.5744   4.8595   5.6467   6.3146   6.4906   6.5085   6.7450
     7.3613   7.6825   7.8671   8.1723   8.2664   8.7786   8.8057   9.0228
     9.0330   9.0888

          k =-0.5000 0.3844 0.0000 ( 37462 PWs)   bands (ev):

   -41.2792 -38.3986 -23.1379 -22.8534 -22.7178 -22.4585 -21.4240 -21.4108
   -21.2718 -18.9601 -18.9044 -18.5162 -15.7803 -15.7287 -14.8685 -14.7234
   -14.6273 -14.5931 -14.5891 -14.3333 -14.3235 -14.1347 -13.9963 -13.9516
   -13.8983 -13.7960 -13.6174  -9.1061  -8.8787  -8.8595  -8.7242  -8.6899
    -8.6243  -8.5153  -8.4056  -8.2803  -8.2771  -8.1799  -7.7950  -4.8812
    -4.3056  -3.7440  -3.3472  -3.2282  -3.0714  -3.0466  -2.7930  -2.7332
    -2.6892  -2.6124  -2.4950  -2.3157  -2.2763  -2.1596  -2.1091  -2.0793
    -1.9352  -1.8556  -1.5497  -1.5261  -1.3111  -1.2542  -1.1511  -1.0051
    -0.9896  -0.9543  -0.9353  -0.7986  -0.7253  -0.7191  -0.6561  -0.6384
    -0.6023  -0.2100  -0.1394  -0.1059   0.1038   0.3074   0.4287   0.5502
     0.6961   0.7356   0.8378   0.8848   0.9370   1.0813   1.1153   1.1414
     1.1830   1.2060   1.3068   1.3988   1.4180   1.4964   1.5645   1.5908
     1.5919   1.6032   1.6612   1.6847   1.7480   1.8229   1.8500   1.9153
     2.0045   2.0461   2.0994   2.1589   2.2117   2.2285   2.2597   2.8733
     2.9951   3.0002   3.2161   3.7431   3.9166   3.9451   4.2468   4.3125
     4.3374   4.6617   5.0162   5.1616   5.7528   5.9400   6.4301   6.8650
     7.6289   7.9731   8.0247   8.4420   8.4991   8.6937   8.9339   8.9698
     9.0632   9.1337

          k =-0.5000-0.5125 0.0000 ( 37436 PWs)   bands (ev):

   -41.2775 -38.3963 -23.1212 -22.8366 -22.7011 -22.4416 -21.4429 -21.4200
   -21.2687 -18.9782 -18.9523 -18.4779 -15.7453 -15.7170 -14.8126 -14.7954
   -14.5557 -14.5109 -14.3777 -14.2954 -14.2454 -14.2404 -13.9994 -13.9438
   -13.8943 -13.7601 -13.6127  -9.2538  -9.0307  -8.9804  -8.8431  -8.7417
    -8.7170  -8.6680  -8.5076  -8.3930  -8.2781  -8.1771  -7.7916  -5.0574
    -4.4950  -3.9122  -3.4780  -3.4306  -3.2225  -3.0747  -3.0307  -2.9676
    -2.8200  -2.6402  -2.5185  -2.3269  -2.3111  -2.1478  -2.1132  -2.1021
    -1.9117  -1.8990  -1.6174  -1.5473  -1.3273  -1.2347  -1.2279  -1.0526
    -1.0453  -1.0252  -0.9663  -0.8881  -0.8086  -0.7534  -0.7102  -0.6223
    -0.6127  -0.1669  -0.1119   0.0784   0.1295   0.3634   0.5109   0.5625
     0.7685   0.7806   0.8067   0.9845   1.1056   1.1759   1.1910   1.2110
     1.2615   1.2771   1.2964   1.4799   1.5437   1.5456   1.7088   1.7181
     1.7295   1.7380   1.7454   1.7552   1.8393   1.9147   1.9688   2.1472
     2.1695   2.2290   2.2583   2.2655   2.3647   2.3660   2.4227   2.7006
     2.8346   3.1299   3.2943   3.9148   3.9504   4.0018   4.2222   4.4699
     4.5560   4.7851   4.8861   5.2812   5.5031   5.6965   6.3324   7.1658
     7.8842   8.0766   8.0842   8.1198   8.4690   8.5053   8.8987   9.0023
     9.0043   9.0792

     the Fermi energy is     2.6637 ev

!    total energy              =   -1868.39450530 Ry
     Harris-Foulkes estimate   =   -1868.39450597 Ry
     estimated scf accuracy    <       0.00000095 Ry

     The total energy is the sum of the following terms:

     one-electron contribution =  -29706.60602776 Ry
     hartree contribution      =   15003.49675745 Ry
     xc contribution           =    -641.74673159 Ry
     ewald contribution        =   13476.47018856 Ry
     smearing contrib. (-TS)   =      -0.00869196 Ry

     convergence has been achieved in  40 iterations

     negative rho (up, down):  8.993E-02 0.000E+00

     Forces acting on atoms (cartesian axes, Ry/au):

     atom    1 type  3   force =     0.00000000    0.00000000    0.00013161
     atom    2 type  2   force =     0.00000000    0.00000000    0.00087285
     atom    3 type  3   force =     0.00000000    0.00000000   -0.00005573
     atom    4 type  1   force =     0.00000000    0.00000000   -0.00005160
     atom    5 type  2   force =     0.00000000    0.00000000   -0.00008039
     atom    6 type  3   force =     0.00000000    0.00000000    0.00041662
     atom    7 type  3   force =     0.00000000    0.00000000    0.00017608
     atom    8 type  4   force =     0.00000000    0.00000000   -0.00044422
     atom    9 type  3   force =     0.00000000    0.00000000    0.00081860
     atom   10 type  3   force =     0.00000000    0.00000000    0.00105263
     atom   11 type  2   force =     0.00000000    0.00000000   -0.00223392
     atom   12 type  1   force =     0.00000000    0.00000000   -0.00155705
     atom   13 type  3   force =     0.00000000    0.00000000    0.00238810
     atom   14 type  3   force =     0.00000000    0.00000000    0.00574158
     atom   15 type  2   force =     0.00000000    0.00000000   -0.01181400
     atom   16 type  3   force =     0.00000000    0.00000000    0.01958709
     atom   17 type  1   force =     0.00000000    0.00000000   -0.02275947
     atom   18 type  2   force =     0.00000000    0.00000000    0.00294515
     atom   19 type  3   force =     0.00000000    0.00000000    0.06082447
     atom   20 type  3   force =     0.00000000    0.00000000    0.06244351
     atom   21 type  4   force =     0.00000000    0.00000000   -0.11345336
     atom   22 type  3   force =     0.00000000    0.00000000    0.02161007
     atom   23 type  3   force =     0.00000000    0.00000000    0.02771515
     atom   24 type  2   force =     0.00000000    0.00000000   -0.01954729
     atom   25 type  1   force =     0.00000000    0.00000000   -0.03297361
     atom   26 type  3   force =     0.00000000    0.00000000   -0.00387582
     atom   27 type  2   force =     0.00000000    0.00000000   -0.00334042
     atom   28 type  3   force =     0.00000000    0.00000000    0.00546338

     Total force =     0.155981     Total SCF correction =     0.003188


     Computing stress (Cartesian axis) and pressure


     negative rho (up, down):  8.993E-02 0.000E+00
          total   stress  (Ry/bohr**3)                   (kbar)     P=      -11.85
  -0.00007234   0.00000000   0.00000000          -10.64        0.00        0.00
   0.00000000  -0.00005915   0.00000000            0.00       -8.70        0.00
   0.00000000   0.00000000  -0.00011014            0.00        0.00      -16.20

 
     init_run     :     10.12s CPU     10.69s WALL (       1 calls)
     electrons    :    705.74s CPU    749.85s WALL (       1 calls)
     forces       :      3.88s CPU      4.26s WALL (       1 calls)
     stress       :     36.46s CPU     37.45s WALL (       1 calls)

     Called by init_run:
     wfcinit      :      7.13s CPU      7.28s WALL (       1 calls)
     potinit      :      0.70s CPU      0.72s WALL (       1 calls)
     hinit0       :      1.16s CPU      1.18s WALL (       1 calls)

     Called by electrons:
     c_bands      :    545.04s CPU    560.96s WALL (      40 calls)
     sum_band     :    109.75s CPU    125.85s WALL (      40 calls)
     v_of_rho     :      4.28s CPU      4.34s WALL (      41 calls)
     newd         :     22.44s CPU     34.55s WALL (      41 calls)
     mix_rho      :     24.34s CPU     24.54s WALL (      40 calls)

     Called by c_bands:
     init_us_2    :      4.29s CPU      4.35s WALL (    2075 calls)
     cegterg      :    512.54s CPU    527.74s WALL (    1000 calls)

     Called by sum_band:
     sum_band:bec :      0.29s CPU      0.29s WALL (    1000 calls)
     addusdens    :     23.51s CPU     38.63s WALL (      40 calls)

     Called by *egterg:
     h_psi        :    250.35s CPU    259.85s WALL (    3818 calls)
     s_psi        :     25.71s CPU     25.99s WALL (    3818 calls)
     g_psi        :      0.78s CPU      0.78s WALL (    2793 calls)
     cdiaghg      :    107.20s CPU    107.65s WALL (    3793 calls)

     Called by h_psi:
     h_psi:calbec :     31.39s CPU     32.82s WALL (    3818 calls)
     vloc_psi     :    191.15s CPU    194.37s WALL (    3818 calls)
     add_vuspsi   :     26.42s CPU     29.09s WALL (    3818 calls)

     General routines
     calbec       :     66.08s CPU     67.64s WALL (    4943 calls)
     fft          :      4.26s CPU      4.30s WALL (     556 calls)
     ffts         :     10.91s CPU     11.01s WALL (   16832 calls)
     fftw         :    220.60s CPU    224.21s WALL (  709338 calls)
     interpolate  :      0.31s CPU      0.31s WALL (      41 calls)
 
     Parallel routines
     fft_scatt_xy :     27.68s CPU     28.13s WALL (  726726 calls)
     fft_scatt_yz :    136.32s CPU    138.51s WALL (  726726 calls)
 
     PWSCF        :  12m37.25s CPU  13m23.35s WALL

 
   This run was terminated on:  18:19:49   5May2021            

=------------------------------------------------------------------------------=
   JOB DONE.
=------------------------------------------------------------------------------=
[1620253189.437722] [holy7c16201:188611:0]          mpool.c:43   UCX  WARN  object 0x41f1000 was not returned to mpool ucp_requests
[1620253189.439185] [holy7c12611:88255:0]          mpool.c:43   UCX  WARN  object 0x288aa80 was not returned to mpool ucp_requests
[1620253189.439655] [holy7c12512:193692:0]          mpool.c:43   UCX  WARN  object 0x418d040 was not returned to mpool ucp_requests
[1620253189.440118] [holy7c16111:258416:0]          mpool.c:43   UCX  WARN  object 0x2be6c80 was not returned to mpool ucp_requests
[1620253189.440143] [holy7c16104:188492:0]          mpool.c:43   UCX  WARN  object 0x3627c80 was not returned to mpool ucp_requests
[1620253189.440160] [holy7c16104:188492:0]          mpool.c:43   UCX  WARN  object 0x3627e40 was not returned to mpool ucp_requests
[1620253189.440783] [holy7c16110:217345:0]          mpool.c:43   UCX  WARN  object 0x35b1c40 was not returned to mpool ucp_requests
[1620253189.440800] [holy7c16110:217345:0]          mpool.c:43   UCX  WARN  object 0x35b1fc0 was not returned to mpool ucp_requests
[1620253189.441309] [holy7c16106:64445:0]          mpool.c:43   UCX  WARN  object 0x348da40 was not returned to mpool ucp_requests
[1620253189.445210] [holy7c12605:244883:0]          mpool.c:43   UCX  WARN  object 0x32bb000 was not returned to mpool ucp_requests
