
     Program PWSCF v.6.5 starts on  5May2021 at 17:15: 5 

     This program is part of the open-source Quantum ESPRESSO suite
     for quantum simulation of materials; please cite
         "P. Giannozzi et al., J. Phys.:Condens. Matter 21 395502 (2009);
         "P. Giannozzi et al., J. Phys.:Condens. Matter 29 465901 (2017);
          URL http://www.quantum-espresso.org", 
     in publications or presentations arising from this work. More details at
     http://www.quantum-espresso.org/quote

     Parallel version (MPI), running on    20 processors

     MPI processes distributed on    18 nodes
     R & G space division:  proc/nbgrp/npool/nimage =      20
     Reading input from YBCO_CuO_cleave_2.0_sep_scf.pwi
Warning: card &IONS ignored
Warning: card     ION_DYNAMICS = 'BFGS' ignored
Warning: card / ignored
Warning: card &CELL ignored
Warning: card     CELL_DYNAMICS = 'BFGS' ignored
Warning: card / ignored

     Current dimensions of program PWSCF are:
     Max number of different atomic species (ntypx) = 10
     Max number of k-points (npk) =  40000
     Max angular momentum in pseudopotentials (lmaxx) =  3

     Subspace diagonalization in iterative solution of the eigenvalue problem:
     one sub-group per band group will be used
     scalapack distributed-memory algorithm (size of sub-group:  4*  4 procs)

     Message from routine setup:
     using ibrav=0 with symmetry is DISCOURAGED, use correct ibrav instead
 
     Parallelization info
     --------------------
     sticks:   dense  smooth     PW     G-vecs:    dense   smooth      PW
     Min         150      50     14                74300    14295    2230
     Max         151      52     15                74341    14319    2275
     Sum        3015    1011    293              1486401   286073   45083
 


     bravais-lattice index     =            0
     lattice parameter (alat)  =       7.3477  a.u.
     unit-cell volume          =    4555.8304 (a.u.)^3
     number of atoms/cell      =           28
     number of atomic types    =            4
     number of electrons       =       229.00
     number of Kohn-Sham states=          138
     kinetic-energy cutoff     =      60.0000  Ry
     charge density cutoff     =     720.0000  Ry
     convergence threshold     =      1.0E-06
     mixing beta               =       0.2000
     number of iterations used =           10  local-TF  mixing
     Exchange-correlation= SLA PW PBE PBE
                           (   1   4   3   4   0   0   0)

     celldm(1)=   7.347715  celldm(2)=   0.000000  celldm(3)=   0.000000
     celldm(4)=   0.000000  celldm(5)=   0.000000  celldm(6)=   0.000000

     crystal axes: (cart. coord. in units of alat)
               a(1) = (   1.000000   0.000000   0.000000 )  
               a(2) = (   0.000000   0.975577   0.000000 )  
               a(3) = (   0.000000   0.000000  11.771964 )  

     reciprocal axes: (cart. coord. in units 2 pi/alat)
               b(1) = (  1.000000  0.000000  0.000000 )  
               b(2) = (  0.000000  1.025034  0.000000 )  
               b(3) = (  0.000000  0.000000  0.084948 )  


     PseudoPot. # 1 for Ba read from file:
     /n/holyscratch01/hoffman_lab/ruizhe/YBCO_Project/pseudo/Ba.pbe-nsp-van.UPF
     MD5 check sum: 2b9c31dd849566dd297d80989662b7a0
     Pseudo is Ultrasoft + core correction, Zval = 10.0
     Generated by new atomic code, or converted to UPF format
     Using radial grid of  907 points,  6 beta functions with: 
                l(1) =   0
                l(2) =   0
                l(3) =   1
                l(4) =   1
                l(5) =   2
                l(6) =   2
     Q(r) pseudized with  6 coefficients,  rinner =    1.200   1.200   1.200
                                                       1.200   1.200

     PseudoPot. # 2 for Cu read from file:
     /n/holyscratch01/hoffman_lab/ruizhe/YBCO_Project/pseudo/Cu.pbe-n-van_ak.UPF
     MD5 check sum: 34e3282627ffb533726feb647e090d62
     Pseudo is Ultrasoft + core correction, Zval = 11.0
     Generated by new atomic code, or converted to UPF format
     Using radial grid of  867 points,  6 beta functions with: 
                l(1) =   0
                l(2) =   0
                l(3) =   1
                l(4) =   1
                l(5) =   2
                l(6) =   2
     Q(r) pseudized with  8 coefficients,  rinner =    1.400   1.400   1.400
                                                       1.400   1.400

     PseudoPot. # 3 for O  read from file:
     /n/holyscratch01/hoffman_lab/ruizhe/YBCO_Project/pseudo/O.pbe-van_ak.UPF
     MD5 check sum: 783ce7fe4c79b6a4916957118fed0856
     Pseudo is Ultrasoft, Zval =  6.0
     Generated by new atomic code, or converted to UPF format
     Using radial grid of  737 points,  4 beta functions with: 
                l(1) =   0
                l(2) =   0
                l(3) =   1
                l(4) =   1
     Q(r) pseudized with  8 coefficients,  rinner =    0.800   0.800   0.800


     PseudoPot. # 4 for Y  read from file:
     /n/holyscratch01/hoffman_lab/ruizhe/YBCO_Project/pseudo/Y.pbe-nsp-van.UPF
     MD5 check sum: 4412fed3ab108fed87a1b7d6a69a4a38
     Pseudo is Ultrasoft + core correction, Zval = 11.0
     Generated by new atomic code, or converted to UPF format
     Using radial grid of  885 points,  6 beta functions with: 
                l(1) =   0
                l(2) =   0
                l(3) =   1
                l(4) =   1
                l(5) =   2
                l(6) =   2
     Q(r) pseudized with  6 coefficients,  rinner =    1.200   1.200   1.200
                                                       1.200   1.200

     atomic species   valence    mass     pseudopotential
        Ba            10.00   137.32700     Ba( 1.00)
        Cu            11.00    63.54600     Cu( 1.00)
        O              6.00    15.99900     O ( 1.00)
        Y             11.00    88.90584     Y ( 1.00)

      4 Sym. Ops. (no inversion) found



   Cartesian axes

     site n.     atom                  positions (alat units)
         1           O   tau(   1) = (   0.0000000   0.4877884  -0.0257983  )
         2           Cu  tau(   2) = (   0.0000000   0.0000000   0.0215779  )
         3           O   tau(   3) = (   0.0000000   0.0000000   0.5073114  )
         4           Ba  tau(   4) = (   0.4999996   0.4877884   0.5319677  )
         5           Cu  tau(   5) = (   0.0000000   0.0000000   1.0495845  )
         6           O   tau(   6) = (   0.4999996   0.0000000   1.1181579  )
         7           O   tau(   7) = (   0.0000000   0.4877884   1.1273137  )
         8           Y   tau(   8) = (   0.4999996   0.4877884   1.4938777  )
         9           O   tau(   9) = (   0.0000000   0.4877884   1.8497402  )
        10           O   tau(  10) = (   0.4999996   0.0000000   1.8692709  )
        11           Cu  tau(  11) = (   0.0000000   0.0000000   1.9417560  )
        12           Ba  tau(  12) = (   0.4999996   0.4877884   2.4526063  )
        13           O   tau(  13) = (   0.0000000   0.0000000   2.5103470  )
        14           O   tau(  14) = (   0.0000000   0.4877884   2.9968469  )
        15           Cu  tau(  15) = (   0.0000000   0.0000000   2.9968521  )
        16           O   tau(  16) = (   0.0000000   0.0000000   3.9976999  )
        17           Ba  tau(  17) = (   0.4999996   0.4877884   4.0554329  )
        18           Cu  tau(  18) = (   0.0000000   0.0000000   4.5663063  )
        19           O   tau(  19) = (   0.4999996   0.0000000   4.6387786  )
        20           O   tau(  20) = (   0.0000000   0.4877884   4.6582913  )
        21           Y   tau(  21) = (   0.4999996   0.4877884   5.0141564  )
        22           O   tau(  22) = (   0.0000000   0.4877884   5.3807203  )
        23           O   tau(  23) = (   0.4999996   0.0000000   5.3898890  )
        24           Cu  tau(  24) = (   0.0000000   0.0000000   5.4584675  )
        25           Ba  tau(  25) = (   0.4999996   0.4877884   5.9760689  )
        26           O   tau(  26) = (   0.0000000   0.0000000   6.0007253  )
        27           Cu  tau(  27) = (   0.0000000   0.0000000   6.4864305  )
        28           O   tau(  28) = (   0.0000000   0.4877884   6.5338118  )

     number of k points=    25  Gaussian smearing, width (Ry)=  0.0100
                       cart. coord. in units 2pi/alat
        k(    1) = (   0.0000000   0.0000000   0.0000000), wk =   0.0312500
        k(    2) = (   0.0000000   0.1281293   0.0000000), wk =   0.0625000
        k(    3) = (   0.0000000   0.2562585   0.0000000), wk =   0.0625000
        k(    4) = (   0.0000000   0.3843878   0.0000000), wk =   0.0625000
        k(    5) = (   0.0000000  -0.5125170   0.0000000), wk =   0.0312500
        k(    6) = (   0.1250000   0.0000000   0.0000000), wk =   0.0625000
        k(    7) = (   0.1250000   0.1281293   0.0000000), wk =   0.1250000
        k(    8) = (   0.1250000   0.2562585   0.0000000), wk =   0.1250000
        k(    9) = (   0.1250000   0.3843878   0.0000000), wk =   0.1250000
        k(   10) = (   0.1250000  -0.5125170   0.0000000), wk =   0.0625000
        k(   11) = (   0.2500000   0.0000000   0.0000000), wk =   0.0625000
        k(   12) = (   0.2500000   0.1281293   0.0000000), wk =   0.1250000
        k(   13) = (   0.2500000   0.2562585   0.0000000), wk =   0.1250000
        k(   14) = (   0.2500000   0.3843878   0.0000000), wk =   0.1250000
        k(   15) = (   0.2500000  -0.5125170   0.0000000), wk =   0.0625000
        k(   16) = (   0.3750000   0.0000000   0.0000000), wk =   0.0625000
        k(   17) = (   0.3750000   0.1281293   0.0000000), wk =   0.1250000
        k(   18) = (   0.3750000   0.2562585   0.0000000), wk =   0.1250000
        k(   19) = (   0.3750000   0.3843878   0.0000000), wk =   0.1250000
        k(   20) = (   0.3750000  -0.5125170   0.0000000), wk =   0.0625000
        k(   21) = (  -0.5000000   0.0000000   0.0000000), wk =   0.0312500
        k(   22) = (  -0.5000000   0.1281293   0.0000000), wk =   0.0625000
        k(   23) = (  -0.5000000   0.2562585   0.0000000), wk =   0.0625000
        k(   24) = (  -0.5000000   0.3843878   0.0000000), wk =   0.0625000
        k(   25) = (  -0.5000000  -0.5125170   0.0000000), wk =   0.0312500

     Dense  grid:  1486401 G-vectors     FFT dimensions: (  64,  64, 750)

     Smooth grid:   286073 G-vectors     FFT dimensions: (  40,  36, 432)

     Estimated max dynamical RAM per process >     474.62 MB

     Estimated total dynamical RAM >       9.27 GB

     Initial potential from superposition of free atoms

     starting charge  228.84827, renormalised to  229.00000

     negative rho (up, down):  8.959E-02 0.000E+00
     Starting wfcs are  201 randomized atomic wfcs

     total cpu time spent up to now is       10.4 secs

     Self-consistent Calculation

     iteration #  1     ecut=    60.00 Ry     beta= 0.20
     Davidson diagonalization with overlap
     ethr =  1.00E-02,  avg # of iterations =  2.0

     negative rho (up, down):  8.739E-02 0.000E+00

     total cpu time spent up to now is       26.6 secs

     total energy              =   -1869.49975233 Ry
     Harris-Foulkes estimate   =   -1871.07770986 Ry
     estimated scf accuracy    <      13.23629623 Ry

     iteration #  2     ecut=    60.00 Ry     beta= 0.20
     Davidson diagonalization with overlap
     ethr =  5.78E-03,  avg # of iterations =  1.0

     negative rho (up, down):  8.609E-02 0.000E+00

     total cpu time spent up to now is       40.7 secs

     total energy              =   -1868.85116009 Ry
     Harris-Foulkes estimate   =   -1869.85086237 Ry
     estimated scf accuracy    <       5.76980402 Ry

     iteration #  3     ecut=    60.00 Ry     beta= 0.20
     Davidson diagonalization with overlap
     ethr =  2.52E-03,  avg # of iterations =  1.0

     negative rho (up, down):  8.567E-02 0.000E+00

     total cpu time spent up to now is       55.7 secs

     total energy              =   -1868.70116094 Ry
     Harris-Foulkes estimate   =   -1869.13266560 Ry
     estimated scf accuracy    <       4.20253287 Ry

     iteration #  4     ecut=    60.00 Ry     beta= 0.20
     Davidson diagonalization with overlap
     ethr =  1.84E-03,  avg # of iterations =  1.6

     negative rho (up, down):  8.590E-02 0.000E+00

     total cpu time spent up to now is       71.0 secs

     total energy              =   -1868.82254944 Ry
     Harris-Foulkes estimate   =   -1868.90297735 Ry
     estimated scf accuracy    <       2.26916046 Ry

     iteration #  5     ecut=    60.00 Ry     beta= 0.20
     Davidson diagonalization with overlap
     ethr =  9.91E-04,  avg # of iterations =  1.0

     negative rho (up, down):  8.658E-02 0.000E+00

     total cpu time spent up to now is       85.8 secs

     total energy              =   -1868.78458353 Ry
     Harris-Foulkes estimate   =   -1868.86408085 Ry
     estimated scf accuracy    <       1.09242074 Ry

     iteration #  6     ecut=    60.00 Ry     beta= 0.20
     Davidson diagonalization with overlap
     ethr =  4.77E-04,  avg # of iterations =  1.0

     negative rho (up, down):  8.716E-02 0.000E+00

     total cpu time spent up to now is      100.2 secs

     total energy              =   -1868.76139153 Ry
     Harris-Foulkes estimate   =   -1868.80669618 Ry
     estimated scf accuracy    <       0.37480902 Ry

     iteration #  7     ecut=    60.00 Ry     beta= 0.20
     Davidson diagonalization with overlap
     ethr =  1.64E-04,  avg # of iterations =  6.2

     negative rho (up, down):  8.811E-02 0.000E+00

     total cpu time spent up to now is      120.8 secs

     total energy              =   -1868.73959046 Ry
     Harris-Foulkes estimate   =   -1868.77400248 Ry
     estimated scf accuracy    <       0.22231188 Ry

     iteration #  8     ecut=    60.00 Ry     beta= 0.20
     Davidson diagonalization with overlap
     ethr =  9.71E-05,  avg # of iterations =  5.5

     negative rho (up, down):  8.905E-02 0.000E+00

     total cpu time spent up to now is      141.6 secs

     total energy              =   -1868.74787199 Ry
     Harris-Foulkes estimate   =   -1868.76631969 Ry
     estimated scf accuracy    <       0.48969391 Ry

     iteration #  9     ecut=    60.00 Ry     beta= 0.20
     Davidson diagonalization with overlap
     ethr =  9.71E-05,  avg # of iterations =  1.0

     negative rho (up, down):  8.936E-02 0.000E+00

     total cpu time spent up to now is      155.9 secs

     total energy              =   -1868.75099374 Ry
     Harris-Foulkes estimate   =   -1868.75339079 Ry
     estimated scf accuracy    <       0.38999944 Ry

     iteration # 10     ecut=    60.00 Ry     beta= 0.20
     Davidson diagonalization with overlap
     ethr =  9.71E-05,  avg # of iterations =  1.0

     negative rho (up, down):  9.017E-02 0.000E+00

     total cpu time spent up to now is      170.3 secs

     total energy              =   -1868.73686353 Ry
     Harris-Foulkes estimate   =   -1868.75211901 Ry
     estimated scf accuracy    <       0.28421120 Ry

     iteration # 11     ecut=    60.00 Ry     beta= 0.20
     Davidson diagonalization with overlap
     ethr =  9.71E-05,  avg # of iterations =  1.0

     negative rho (up, down):  9.020E-02 0.000E+00

     total cpu time spent up to now is      184.4 secs

     total energy              =   -1868.74382018 Ry
     Harris-Foulkes estimate   =   -1868.74414158 Ry
     estimated scf accuracy    <       0.19828884 Ry

     iteration # 12     ecut=    60.00 Ry     beta= 0.20
     Davidson diagonalization with overlap
     ethr =  8.66E-05,  avg # of iterations =  1.0

     negative rho (up, down):  9.027E-02 0.000E+00

     total cpu time spent up to now is      198.6 secs

     total energy              =   -1868.74206741 Ry
     Harris-Foulkes estimate   =   -1868.74433830 Ry
     estimated scf accuracy    <       0.17670307 Ry

     iteration # 13     ecut=    60.00 Ry     beta= 0.20
     Davidson diagonalization with overlap
     ethr =  7.72E-05,  avg # of iterations =  1.1

     negative rho (up, down):  9.017E-02 0.000E+00

     total cpu time spent up to now is      212.6 secs

     total energy              =   -1868.74060049 Ry
     Harris-Foulkes estimate   =   -1868.74262376 Ry
     estimated scf accuracy    <       0.08852127 Ry

     iteration # 14     ecut=    60.00 Ry     beta= 0.20
     Davidson diagonalization with overlap
     ethr =  3.87E-05,  avg # of iterations =  4.2

     negative rho (up, down):  8.975E-02 0.000E+00

     total cpu time spent up to now is      230.4 secs

     total energy              =   -1868.73562703 Ry
     Harris-Foulkes estimate   =   -1868.74090697 Ry
     estimated scf accuracy    <       0.07037683 Ry

     iteration # 15     ecut=    60.00 Ry     beta= 0.20
     Davidson diagonalization with overlap
     ethr =  3.07E-05,  avg # of iterations =  4.7

     negative rho (up, down):  8.965E-02 0.000E+00

     total cpu time spent up to now is      248.9 secs

     total energy              =   -1868.73565346 Ry
     Harris-Foulkes estimate   =   -1868.73704433 Ry
     estimated scf accuracy    <       0.02430014 Ry

     iteration # 16     ecut=    60.00 Ry     beta= 0.20
     Davidson diagonalization with overlap
     ethr =  1.06E-05,  avg # of iterations =  5.2

     negative rho (up, down):  9.157E-02 0.000E+00

     total cpu time spent up to now is      268.2 secs

     total energy              =   -1868.73590496 Ry
     Harris-Foulkes estimate   =   -1868.73602366 Ry
     estimated scf accuracy    <       0.02242798 Ry

     iteration # 17     ecut=    60.00 Ry     beta= 0.20
     Davidson diagonalization with overlap
     ethr =  9.79E-06,  avg # of iterations =  1.7

     negative rho (up, down):  9.187E-02 0.000E+00

     total cpu time spent up to now is      283.0 secs

     total energy              =   -1868.73561807 Ry
     Harris-Foulkes estimate   =   -1868.73614842 Ry
     estimated scf accuracy    <       0.02641798 Ry

     iteration # 18     ecut=    60.00 Ry     beta= 0.20
     Davidson diagonalization with overlap
     ethr =  9.79E-06,  avg # of iterations =  1.0

     negative rho (up, down):  8.995E-02 0.000E+00

     total cpu time spent up to now is      297.0 secs

     total energy              =   -1868.73426713 Ry
     Harris-Foulkes estimate   =   -1868.73569567 Ry
     estimated scf accuracy    <       0.02004789 Ry

     iteration # 19     ecut=    60.00 Ry     beta= 0.20
     Davidson diagonalization with overlap
     ethr =  8.75E-06,  avg # of iterations =  1.6

     negative rho (up, down):  9.790E-02 0.000E+00

     total cpu time spent up to now is      311.7 secs

     total energy              =   -1868.73342419 Ry
     Harris-Foulkes estimate   =   -1868.73470068 Ry
     estimated scf accuracy    <       0.01022492 Ry

     iteration # 20     ecut=    60.00 Ry     beta= 0.20
     Davidson diagonalization with overlap
     ethr =  4.47E-06,  avg # of iterations =  7.1

     negative rho (up, down):  1.064E-01 0.000E+00

     total cpu time spent up to now is      333.8 secs

     total energy              =   -1868.73309143 Ry
     Harris-Foulkes estimate   =   -1868.73372597 Ry
     estimated scf accuracy    <       0.00696256 Ry

     iteration # 21     ecut=    60.00 Ry     beta= 0.20
     Davidson diagonalization with overlap
     ethr =  3.04E-06,  avg # of iterations =  7.1

     negative rho (up, down):  1.076E-01 0.000E+00

     total cpu time spent up to now is      355.7 secs

     total energy              =   -1868.73251063 Ry
     Harris-Foulkes estimate   =   -1868.73326652 Ry
     estimated scf accuracy    <       0.00801129 Ry

     iteration # 22     ecut=    60.00 Ry     beta= 0.20
     Davidson diagonalization with overlap
     ethr =  3.04E-06,  avg # of iterations =  4.0

     negative rho (up, down):  1.037E-01 0.000E+00

     total cpu time spent up to now is      373.1 secs

     total energy              =   -1868.73216120 Ry
     Harris-Foulkes estimate   =   -1868.73261337 Ry
     estimated scf accuracy    <       0.00460944 Ry

     iteration # 23     ecut=    60.00 Ry     beta= 0.20
     Davidson diagonalization with overlap
     ethr =  2.01E-06,  avg # of iterations =  3.0

     negative rho (up, down):  1.068E-01 0.000E+00

     total cpu time spent up to now is      389.5 secs

     total energy              =   -1868.73138681 Ry
     Harris-Foulkes estimate   =   -1868.73220139 Ry
     estimated scf accuracy    <       0.00475557 Ry

     iteration # 24     ecut=    60.00 Ry     beta= 0.20
     Davidson diagonalization with overlap
     ethr =  2.01E-06,  avg # of iterations =  7.4

     negative rho (up, down):  1.080E-01 0.000E+00

     total cpu time spent up to now is      411.7 secs

     total energy              =   -1868.73118762 Ry
     Harris-Foulkes estimate   =   -1868.73146927 Ry
     estimated scf accuracy    <       0.00327744 Ry

     iteration # 25     ecut=    60.00 Ry     beta= 0.20
     Davidson diagonalization with overlap
     ethr =  1.43E-06,  avg # of iterations =  5.8

     negative rho (up, down):  1.007E-01 0.000E+00

     total cpu time spent up to now is      431.3 secs

     total energy              =   -1868.73098841 Ry
     Harris-Foulkes estimate   =   -1868.73124666 Ry
     estimated scf accuracy    <       0.00137685 Ry

     iteration # 26     ecut=    60.00 Ry     beta= 0.20
     Davidson diagonalization with overlap
     ethr =  6.01E-07,  avg # of iterations =  4.2

     negative rho (up, down):  9.592E-02 0.000E+00

     total cpu time spent up to now is      449.1 secs

     total energy              =   -1868.73085624 Ry
     Harris-Foulkes estimate   =   -1868.73101086 Ry
     estimated scf accuracy    <       0.00081344 Ry

     iteration # 27     ecut=    60.00 Ry     beta= 0.20
     Davidson diagonalization with overlap
     ethr =  3.55E-07,  avg # of iterations =  5.2

     negative rho (up, down):  9.476E-02 0.000E+00

     total cpu time spent up to now is      468.2 secs

     total energy              =   -1868.73086981 Ry
     Harris-Foulkes estimate   =   -1868.73089282 Ry
     estimated scf accuracy    <       0.00037513 Ry

     iteration # 28     ecut=    60.00 Ry     beta= 0.20
     Davidson diagonalization with overlap
     ethr =  1.64E-07,  avg # of iterations =  3.0

     negative rho (up, down):  9.319E-02 0.000E+00

     total cpu time spent up to now is      484.3 secs

     total energy              =   -1868.73087071 Ry
     Harris-Foulkes estimate   =   -1868.73087557 Ry
     estimated scf accuracy    <       0.00017819 Ry

     iteration # 29     ecut=    60.00 Ry     beta= 0.20
     Davidson diagonalization with overlap
     ethr =  7.78E-08,  avg # of iterations =  3.4

     negative rho (up, down):  9.131E-02 0.000E+00

     total cpu time spent up to now is      500.9 secs

     total energy              =   -1868.73088500 Ry
     Harris-Foulkes estimate   =   -1868.73087282 Ry
     estimated scf accuracy    <       0.00010895 Ry

     iteration # 30     ecut=    60.00 Ry     beta= 0.20
     Davidson diagonalization with overlap
     c_bands:  1 eigenvalues not converged
     ethr =  4.76E-08,  avg # of iterations =  5.5

     negative rho (up, down):  9.059E-02 0.000E+00

     total cpu time spent up to now is      520.3 secs

     total energy              =   -1868.73089870 Ry
     Harris-Foulkes estimate   =   -1868.73088902 Ry
     estimated scf accuracy    <       0.00005888 Ry

     iteration # 31     ecut=    60.00 Ry     beta= 0.20
     Davidson diagonalization with overlap
     c_bands:  1 eigenvalues not converged
     ethr =  2.57E-08,  avg # of iterations =  4.7

     negative rho (up, down):  9.019E-02 0.000E+00

     total cpu time spent up to now is      538.3 secs

     total energy              =   -1868.73090824 Ry
     Harris-Foulkes estimate   =   -1868.73089968 Ry
     estimated scf accuracy    <       0.00002407 Ry

     iteration # 32     ecut=    60.00 Ry     beta= 0.20
     Davidson diagonalization with overlap
     c_bands:  1 eigenvalues not converged
     ethr =  1.05E-08,  avg # of iterations =  5.4

     negative rho (up, down):  9.034E-02 0.000E+00

     total cpu time spent up to now is      557.8 secs

     total energy              =   -1868.73090815 Ry
     Harris-Foulkes estimate   =   -1868.73090944 Ry
     estimated scf accuracy    <       0.00000852 Ry

     iteration # 33     ecut=    60.00 Ry     beta= 0.20
     Davidson diagonalization with overlap
     ethr =  3.72E-09,  avg # of iterations =  2.2

     negative rho (up, down):  9.050E-02 0.000E+00

     total cpu time spent up to now is      573.5 secs

     total energy              =   -1868.73090950 Ry
     Harris-Foulkes estimate   =   -1868.73090858 Ry
     estimated scf accuracy    <       0.00000405 Ry

     iteration # 34     ecut=    60.00 Ry     beta= 0.20
     Davidson diagonalization with overlap
     ethr =  1.77E-09,  avg # of iterations =  1.2

     negative rho (up, down):  9.043E-02 0.000E+00

     total cpu time spent up to now is      587.7 secs

     total energy              =   -1868.73090956 Ry
     Harris-Foulkes estimate   =   -1868.73090961 Ry
     estimated scf accuracy    <       0.00000291 Ry

     iteration # 35     ecut=    60.00 Ry     beta= 0.20
     Davidson diagonalization with overlap
     ethr =  1.27E-09,  avg # of iterations =  1.7

     negative rho (up, down):  9.050E-02 0.000E+00

     total cpu time spent up to now is      602.6 secs

     total energy              =   -1868.73090958 Ry
     Harris-Foulkes estimate   =   -1868.73090967 Ry
     estimated scf accuracy    <       0.00000100 Ry

     iteration # 36     ecut=    60.00 Ry     beta= 0.20
     Davidson diagonalization with overlap
     ethr =  4.37E-10,  avg # of iterations =  1.4

     negative rho (up, down):  9.052E-02 0.000E+00

     total cpu time spent up to now is      616.5 secs

     End of self-consistent calculation

          k = 0.0000 0.0000 0.0000 ( 35655 PWs)   bands (ev):

   -38.2664 -38.1932 -22.8963 -22.8852 -22.7340 -22.7167 -18.7993 -18.7342
   -18.2717 -18.2628 -18.1994 -18.1864 -15.5904 -15.5416 -14.6327 -14.5802
   -14.3802 -14.3763 -14.3714 -14.3277 -14.2841 -14.1147 -14.0625 -13.8779
   -13.8662 -13.6212 -12.3507  -8.1169  -8.1084  -8.0611  -7.9504  -7.8884
    -7.8778  -7.8616  -7.8512  -7.7066  -7.6836  -7.5955  -7.5168  -2.2218
    -2.1912  -2.1718  -2.1441  -2.0509  -1.9979  -1.9787  -1.9700  -1.9346
    -1.8973  -1.8583  -1.8066  -1.6729  -1.0268  -0.9673  -0.5764  -0.5609
    -0.5166  -0.2436  -0.1905  -0.1872  -0.1790  -0.1499  -0.1439   0.0115
     0.0132   0.0503   0.0670   0.0779   0.0885   0.1447   0.1491   0.1727
     0.1820   0.2751   0.2777   0.2810   0.2884   0.2971   0.3770   0.3930
     0.4287   0.4287   0.4411   0.4482   0.4952   0.5423   0.5467   0.5625
     0.8230   0.9881   1.0295   1.0869   1.0977   1.1367   1.1679   1.2061
     1.2320   1.2454   1.2629   1.3508   1.3525   1.3696   1.3786   1.3824
     1.4239   1.8053   1.8443   1.8663   1.8732   1.9631   2.0658   2.0721
     2.1612   2.3696   2.5106   2.5566   2.5929   2.6378   2.6747   5.0292
     5.1743   5.2220   5.7560   5.8556   6.5405   6.5642   6.6752   6.8365
     7.2371   7.3347   8.0279   8.0476   8.0977   8.1826   8.3448   8.4672
     8.5489   8.6014

          k = 0.0000 0.1281 0.0000 ( 35657 PWs)   bands (ev):

   -38.2641 -38.1909 -22.8747 -22.8636 -22.7129 -22.6981 -18.7634 -18.6982
   -18.3671 -18.2911 -18.2685 -18.1962 -15.4816 -15.4336 -14.6408 -14.5867
   -14.3897 -14.3794 -14.3457 -14.2968 -14.2645 -14.1602 -14.1101 -13.8836
   -13.8704 -13.6559 -12.4209  -8.1000  -8.0907  -8.0526  -7.9395  -7.8810
    -7.8708  -7.8472  -7.8366  -7.7057  -7.6670  -7.5623  -7.5177  -2.3119
    -2.3036  -2.2879  -2.2335  -2.1723  -2.1234  -1.9808  -1.9745  -1.8641
    -1.8430  -1.8077  -1.7914  -1.6830  -1.0972  -1.0804  -1.0309  -0.9625
    -0.9111  -0.5751  -0.5410  -0.3577  -0.2792  -0.2430  -0.2383  -0.2329
    -0.2227  -0.2164  -0.1859  -0.1522  -0.0175   0.1050   0.1511   0.1773
     0.1901   0.2317   0.2509   0.3093   0.3303   0.4065   0.4087   0.4214
     0.4397   0.4453   0.5058   0.5281   0.5292   0.5558   0.7257   0.7535
     0.7922   0.8275   0.9056   0.9671   1.0510   1.0589   1.0891   1.2834
     1.3292   1.3610   1.3782   1.3982   1.5217   1.5660   1.5818   1.5841
     1.6017   1.7850   1.8426   1.8507   1.9065   1.9216   2.0234   2.1531
     2.2085   2.4357   2.4576   2.7047   2.7305   2.8831   2.8980   5.3848
     5.5399   5.5582   5.9958   6.0833   6.8600   6.8853   6.9668   7.1467
     7.5021   7.6037   7.9674   8.0370   8.2099   8.3433   8.4708   8.7190
     8.7228   8.8369

          k = 0.0000 0.2563 0.0000 ( 35678 PWs)   bands (ev):

   -38.2585 -38.1853 -22.8217 -22.8105 -22.6610 -22.6523 -18.6723 -18.6069
   -18.5921 -18.5169 -18.2607 -18.1884 -15.2332 -15.1883 -14.7156 -14.6585
   -14.4529 -14.4293 -14.2978 -14.2287 -14.2274 -14.2098 -14.1813 -13.8616
   -13.8456 -13.7112 -12.5867  -8.0594  -8.0498  -8.0288  -7.9222  -7.9120
    -7.9109  -7.7535  -7.7440  -7.7333  -7.5682  -7.5173  -7.4800  -2.7404
    -2.7083  -2.6057  -2.5438  -2.1281  -2.1220  -2.0299  -2.0261  -1.9847
    -1.8570  -1.8453  -1.7909  -1.7831  -1.7394  -1.7202  -1.6227  -1.0282
    -0.9784  -0.9600  -0.8715  -0.7489  -0.6084  -0.5961  -0.5786  -0.5302
    -0.4665  -0.4618  -0.4036  -0.3868  -0.2088  -0.1670  -0.1541  -0.1131
    -0.0176   0.0174   0.0822   0.1773   0.2166   0.2328   0.4065   0.4608
     0.4782   0.4796   0.4827   0.5490   0.5623   0.5812   0.6312   0.6783
     1.0574   1.0748   1.1337   1.1900   1.2155   1.2775   1.3221   1.3914
     1.3971   1.4656   1.4968   1.5604   1.6243   1.6410   1.6475   1.7239
     1.7499   1.8190   1.9370   2.0420   2.0812   2.1439   2.1575   2.1683
     2.2051   2.3249   2.3863   2.8064   3.0998   3.1924   3.2282   6.1604
     6.4277   6.4410   6.6424   6.7175   7.6732   7.7364   7.7612   7.8369
     7.9066   7.9896   8.0979   8.1941   8.5998   8.6681   8.7680   8.8873
     9.0118   9.0959

          k = 0.0000 0.3844 0.0000 ( 35608 PWs)   bands (ev):

   -38.2528 -38.1797 -22.7671 -22.7559 -22.6077 -22.6055 -18.7900 -18.7153
   -18.5741 -18.5085 -18.2529 -18.1806 -14.9815 -14.9455 -14.8598 -14.7974
   -14.5658 -14.5218 -14.3152 -14.2258 -14.1891 -14.1750 -14.1552 -13.8030
   -13.7857 -13.7159 -12.7461  -8.0192  -8.0148  -7.9977  -7.9550  -7.9451
    -7.8778  -7.7983  -7.6350  -7.6241  -7.5134  -7.4642  -7.3944  -3.1079
    -3.0791  -2.9184  -2.8490  -2.6860  -2.6778  -2.6714  -2.0348  -2.0313
    -1.8352  -1.8211  -1.7833  -1.7739  -1.7038  -1.6980  -1.6450  -1.3390
    -1.1817  -1.0109  -0.9720  -0.9459  -0.9375  -0.8899  -0.8767  -0.8238
    -0.7079  -0.7040  -0.5498  -0.5005  -0.4305  -0.4108  -0.3977  -0.3569
    -0.2340  -0.2205  -0.1998  -0.1144   0.1388   0.2809   0.3455   0.4519
     0.4725   0.4808   0.5038   0.5084   0.5596   0.6072   0.8513   0.9176
     1.1255   1.1697   1.2433   1.2734   1.2952   1.3208   1.3375   1.3564
     1.4535   1.4662   1.5398   1.6262   1.7490   1.7955   1.8325   1.8434
     1.9366   1.9792   1.9876   2.1069   2.1234   2.2714   2.3650   2.4180
     2.5515   2.5660   2.6207   2.7650   3.0979   3.1685   3.2902   6.9997
     7.2804   7.3192   7.5019   7.5426   7.7241   7.7941   8.2907   8.4655
     8.5114   8.6238   8.6763   8.7849   8.8801   8.9444   9.0541   9.1279
     9.5090   9.5599

          k = 0.0000-0.5125 0.0000 ( 35730 PWs)   bands (ev):

   -38.2505 -38.1773 -22.7441 -22.7329 -22.5858 -22.5852 -18.8661 -18.7914
   -18.5310 -18.4652 -18.2497 -18.1774 -14.9365 -14.8853 -14.8511 -14.8144
   -14.6391 -14.5781 -14.3420 -14.2141 -14.1749 -14.1676 -14.1322 -13.7718
   -13.7542 -13.7032 -12.8098  -8.0034  -8.0027  -7.9815  -7.9666  -7.9568
    -7.8570  -7.8219  -7.5880  -7.5770  -7.5109  -7.4194  -7.3579  -3.2513
    -3.2245  -3.0626  -2.9812  -2.9269  -2.9083  -2.9031  -2.0695  -2.0665
    -1.8947  -1.8365  -1.7264  -1.6720  -1.6405  -1.6285  -1.5762  -1.4613
    -1.2522  -1.1738  -1.1197  -1.1042  -1.0760  -1.0732  -0.8122  -0.8086
    -0.7560  -0.6914  -0.6452  -0.5874  -0.5280  -0.4979  -0.4846  -0.4565
    -0.4427  -0.3977  -0.2343  -0.1766   0.0998   0.3667   0.4219   0.4295
     0.4362   0.4435   0.5098   0.5148   0.5437   0.6132   0.9432   0.9725
     1.1626   1.1833   1.2498   1.2606   1.3279   1.3318   1.3924   1.4061
     1.4195   1.4240   1.4974   1.5448   1.8243   1.8977   1.9096   1.9147
     1.9253   1.9880   2.0270   2.2234   2.2915   2.4150   2.4331   2.6508
     2.6510   2.7139   2.7285   2.7860   2.9630   3.0411   3.2331   7.5819
     7.6397   7.6814   7.7036   7.7516   7.8072   7.8203   8.3424   8.4437
     8.7509   8.8016   9.0464   9.0628   9.0892   9.1174   9.2960   9.4167
     9.5014   9.6270

          k = 0.1250 0.0000 0.0000 ( 35698 PWs)   bands (ev):

   -38.2646 -38.1914 -22.8779 -22.8667 -22.7160 -22.7015 -18.7669 -18.7015
   -18.3716 -18.3004 -18.2603 -18.1839 -15.4752 -15.4250 -14.6572 -14.6084
   -14.4284 -14.4185 -14.3590 -14.3183 -14.3068 -14.1441 -14.0892 -13.8786
   -13.8662 -13.6333 -12.4260  -8.1269  -8.1161  -8.0545  -7.9749  -7.8533
    -7.8428  -7.8273  -7.8170  -7.6686  -7.6508  -7.5604  -7.4893  -2.3068
    -2.2665  -2.2179  -2.1430  -2.1421  -2.0950  -1.9676  -1.9540  -1.9238
    -1.8873  -1.8817  -1.8282  -1.6736  -1.0125  -0.9527  -0.5710  -0.5554
    -0.5554  -0.4614  -0.3969  -0.2838  -0.2685  -0.2646  -0.2545  -0.2026
    -0.1793  -0.1758  -0.1424  -0.0030   0.0481   0.0804   0.0927   0.2161
     0.2886   0.3037   0.3553   0.3640   0.3853   0.3950   0.4256   0.4356
     0.4388   0.5007   0.5105   0.5277   0.5374   0.5455   0.5629   0.5748
     0.7715   0.8358   0.8810   0.9097   0.9244   1.1175   1.1233   1.1394
     1.1545   1.1569   1.2039   1.3332   1.3547   1.4026   1.4647   1.5907
     1.6066   1.7485   1.8777   1.9231   2.0123   2.0192   2.0949   2.1625
     2.1861   2.4177   2.4241   2.5218   2.5668   2.5988   2.7204   5.2313
     5.3618   5.3807   5.9599   6.0472   6.7781   6.8088   6.8901   7.1038
     7.4612   7.5620   8.0086   8.0779   8.2017   8.3124   8.4914   8.7161
     8.7808   8.8597

          k = 0.1250 0.1281 0.0000 ( 35686 PWs)   bands (ev):

   -38.2623 -38.1891 -22.8570 -22.8459 -22.6956 -22.6833 -18.7314 -18.6660
   -18.3758 -18.3549 -18.3030 -18.2805 -15.3673 -15.3180 -14.6552 -14.6044
   -14.4244 -14.4149 -14.3280 -14.2978 -14.2787 -14.1976 -14.1432 -13.8782
   -13.8647 -13.6580 -12.4750  -8.1143  -8.1029  -8.0459  -8.0015  -7.9904
    -7.9601  -7.8204  -7.7035  -7.6931  -7.6861  -7.5330  -7.3842  -2.4091
    -2.3754  -2.3616  -2.2809  -2.1712  -2.1300  -2.0177  -1.9843  -1.9564
    -1.9371  -1.8047  -1.7394  -1.6736  -1.0908  -1.0749  -1.0510  -0.9187
    -0.8625  -0.7781  -0.7346  -0.5693  -0.5540  -0.4715  -0.4438  -0.3490
    -0.2328  -0.2247  -0.1118  -0.0293  -0.0109   0.0587   0.0674   0.1638
     0.1746   0.1901   0.2336   0.3278   0.3369   0.3804   0.3830   0.4261
     0.4671   0.4745   0.4877   0.4923   0.5928   0.6043   0.7272   0.7544
     0.8494   0.9002   0.9883   1.0319   1.0484   1.0673   1.1089   1.1601
     1.1670   1.2953   1.3516   1.3773   1.4296   1.4460   1.4846   1.7228
     1.7336   1.7774   1.7873   1.7931   1.9029   2.1020   2.2292   2.3340
     2.4620   2.5264   2.6756   2.7288   2.7466   2.8940   2.9105   5.5232
     5.6808   5.6950   6.1628   6.2464   7.0869   7.1184   7.1654   7.4050
     7.6906   7.7812   7.9150   7.9840   8.3586   8.4445   8.5886   8.8082
     8.9012   9.0113

          k = 0.1250 0.2563 0.0000 ( 35740 PWs)   bands (ev):

   -38.2567 -38.1835 -22.8059 -22.7947 -22.6455 -22.6388 -18.6416 -18.5876
   -18.5759 -18.5124 -18.3560 -18.2846 -15.1212 -15.0754 -14.7007 -14.6438
   -14.4519 -14.4329 -14.2947 -14.2710 -14.2446 -14.2288 -14.2015 -13.8528
   -13.8370 -13.7004 -12.5950  -8.1249  -8.1145  -8.0596  -8.0480  -8.0227
    -7.9408  -7.9165  -7.7658  -7.6594  -7.6490  -7.4972  -7.3476  -2.8460
    -2.8043  -2.6373  -2.5732  -2.1507  -2.1401  -2.0798  -2.0297  -2.0163
    -1.9733  -1.9441  -1.8515  -1.8400  -1.7271  -1.6554  -1.6138  -1.1276
    -1.0686  -0.9681  -0.9267  -0.9159  -0.9034  -0.8596  -0.7993  -0.7629
    -0.4057  -0.3966  -0.3366  -0.2991  -0.1989  -0.1551  -0.1477  -0.1023
     0.0743   0.0896   0.1343   0.2529   0.2813   0.2844   0.3685   0.3875
     0.4159   0.4794   0.5122   0.5252   0.5675   0.6199   0.8406   0.8819
     1.0777   1.0977   1.1265   1.1995   1.2144   1.3058   1.3109   1.3286
     1.3496   1.4494   1.5059   1.5198   1.6003   1.6048   1.7270   1.7399
     1.7620   1.8010   1.8769   2.1140   2.1271   2.1816   2.3088   2.5702
     2.6182   2.6806   2.7927   2.9025   3.0976   3.1994   3.2337   6.2250
     6.4808   6.4945   6.7471   6.8155   7.6852   7.7655   7.8159   7.9362
     7.9516   8.2133   8.2643   8.3675   8.5433   8.6450   8.7897   8.9250
     8.9916   9.0397

          k = 0.1250 0.3844 0.0000 ( 35733 PWs)   bands (ev):

   -38.2511 -38.1779 -22.7533 -22.7421 -22.5940 -22.5934 -18.7840 -18.7092
   -18.5448 -18.4789 -18.3461 -18.2747 -14.8758 -14.8464 -14.8197 -14.7470
   -14.5335 -14.4981 -14.2962 -14.2847 -14.2500 -14.1555 -14.1454 -13.7990
   -13.7818 -13.7094 -12.7156  -8.1294  -8.1194  -8.0292  -8.0185  -7.9990
    -7.9630  -7.8847  -7.7286  -7.7075  -7.6968  -7.5414  -7.4208  -3.2283
    -3.1902  -2.9641  -2.8964  -2.6756  -2.6660  -2.6611  -2.0695  -2.0614
    -1.9551  -1.8932  -1.8797  -1.8661  -1.7269  -1.6731  -1.6637  -1.3901
    -1.3704  -1.3687  -1.2893  -1.1873  -1.0933  -0.9677  -0.7945  -0.7383
    -0.5914  -0.5855  -0.5650  -0.5437  -0.4229  -0.3989  -0.3573  -0.3351
    -0.0334  -0.0141   0.0606   0.1061   0.2153   0.3624   0.3699   0.4249
     0.4721   0.4872   0.4940   0.5327   0.5624   0.6216   0.9457   0.9997
     1.1279   1.1692   1.2636   1.3146   1.3355   1.3857   1.3966   1.4399
     1.4635   1.4697   1.5840   1.6851   1.7515   1.7713   1.7870   1.7923
     2.0472   2.1214   2.1314   2.3442   2.5250   2.5401   2.5902   2.6117
     2.6209   2.6572   2.8285   2.8941   3.0981   3.1975   3.3008   6.9761
     7.1804   7.2124   7.3777   7.4360   7.6439   7.6998   8.1871   8.4841
     8.4959   8.5769   8.7772   8.9252   8.9881   9.0609   9.1121   9.3403
     9.5565   9.6389

          k = 0.1250-0.5125 0.0000 ( 35736 PWs)   bands (ev):

   -38.2488 -38.1756 -22.7312 -22.7200 -22.5743 -22.5723 -18.8596 -18.7849
   -18.5023 -18.4363 -18.3419 -18.2706 -14.8961 -14.8439 -14.7337 -14.6964
   -14.6017 -14.5484 -14.3123 -14.2746 -14.2359 -14.1446 -14.1133 -13.7705
   -13.7530 -13.7021 -12.7650  -8.1041  -8.0943  -8.0153  -8.0069  -7.9869
    -7.9507  -7.8709  -7.7556  -7.7447  -7.6468  -7.5806  -7.5165  -3.3764
    -3.3400  -3.1104  -3.0354  -2.9184  -2.9048  -2.8969  -2.0860  -2.0806
    -1.9005  -1.8313  -1.7768  -1.7500  -1.7281  -1.7199  -1.6561  -1.5714
    -1.5298  -1.5208  -1.5187  -1.2706  -1.1392  -1.0245  -0.7468  -0.7181
    -0.6710  -0.6646  -0.6274  -0.5797  -0.5104  -0.4896  -0.4446  -0.4025
    -0.0791  -0.0428  -0.0125   0.0320   0.1026   0.3686   0.3825   0.4433
     0.4701   0.4965   0.5070   0.5681   0.6083   0.6206   1.0420   1.0728
     1.1732   1.2392   1.2666   1.2966   1.3125   1.4128   1.4315   1.4350
     1.4412   1.4429   1.5349   1.7273   1.8336   1.8533   1.8734   1.9756
     2.0105   2.4082   2.4262   2.5444   2.5694   2.6078   2.6322   2.6928
     2.7075   2.7640   2.7782   2.7948   2.9838   3.1010   3.2451   7.3403
     7.3670   7.4489   7.4752   7.5102   7.7296   7.7927   8.2844   8.4236
     8.9800   9.0012   9.1336   9.1437   9.2288   9.3009   9.3035   9.4147
     9.4991   9.6593

          k = 0.2500 0.0000 0.0000 ( 35766 PWs)   bands (ev):

   -38.2602 -38.1870 -22.8327 -22.8215 -22.6719 -22.6642 -18.6853 -18.6191
   -18.5863 -18.5170 -18.2542 -18.1778 -15.2114 -15.1589 -14.7650 -14.7224
   -14.5471 -14.5269 -14.4273 -14.3035 -14.2700 -14.1796 -14.1185 -13.8732
   -13.8597 -13.6511 -12.6015  -8.1377  -8.1254  -8.0312  -8.0010  -7.7833
    -7.7729  -7.7421  -7.7316  -7.6109  -7.5694  -7.4813  -7.4215  -2.6104
    -2.5774  -2.5344  -2.4437  -2.0087  -2.0060  -1.9998  -1.9518  -1.8872
    -1.8542  -1.8008  -1.7273  -1.7142  -1.0943  -1.0462  -0.7644  -0.6931
    -0.6571  -0.6540  -0.6422  -0.5636  -0.5485  -0.5455  -0.5315  -0.4733
    -0.4660  -0.2786  -0.2233  -0.1643  -0.0084   0.0573   0.0771   0.0833
     0.1375   0.1671   0.1724   0.3353   0.3380   0.3510   0.4048   0.4171
     0.5195   0.5513   0.5550   0.5736   0.5869   0.5962   0.6491   0.6751
     0.7067   0.7411   0.7759   0.9723   0.9856   1.1000   1.1745   1.2044
     1.2084   1.2706   1.2926   1.4318   1.4607   1.4769   1.4838   1.5407
     1.5752   1.5872   1.9024   1.9122   1.9584   1.9590   2.0786   2.1117
     2.2716   2.4018   2.4416   2.5322   2.6429   2.7335   2.8447   5.6689
     5.8069   5.8190   6.5085   6.5925   7.3982   7.4437   7.4784   7.8522
     7.9451   7.9630   8.0266   8.0313   8.5794   8.6513   8.8754   8.8867
     9.0530   9.2205

          k = 0.2500 0.1281 0.0000 ( 35748 PWs)   bands (ev):

   -38.2579 -38.1847 -22.8137 -22.8026 -22.6533 -22.6474 -18.6513 -18.5849
   -18.5805 -18.5112 -18.3543 -18.2782 -15.1060 -15.0550 -14.7386 -14.6932
   -14.5196 -14.5030 -14.3876 -14.2789 -14.2455 -14.2443 -14.1802 -13.8629
   -13.8489 -13.6575 -12.6053  -8.1449  -8.1330  -8.0291  -8.0260  -8.0158
    -8.0054  -7.8437  -7.7319  -7.6293  -7.6189  -7.4722  -7.3160  -2.7544
    -2.7044  -2.5748  -2.4939  -2.1021  -2.0917  -2.0809  -2.0422  -1.9839
    -1.9780  -1.7135  -1.6995  -1.6380  -1.1374  -1.0904  -1.0808  -1.0797
    -1.0686  -0.9756  -0.9314  -0.9290  -0.8925  -0.7892  -0.7484  -0.4808
    -0.3694  -0.3138  -0.1750  -0.1012  -0.0010   0.0405   0.0618   0.1252
     0.1284   0.1520   0.1883   0.2507   0.2731   0.3047   0.3647   0.3774
     0.3949   0.4670   0.5726   0.6044   0.6164   0.7083   0.7369   0.7519
     0.9014   0.9326   1.0592   1.1197   1.1359   1.1981   1.2167   1.2566
     1.2937   1.3214   1.3946   1.3981   1.4128   1.4443   1.4773   1.6283
     1.6364   1.6817   1.8259   1.8361   1.8528   1.9299   2.3653   2.6362
     2.6726   2.7373   2.7921   2.8658   2.9068   2.9730   2.9990   5.8756
     6.0483   6.0607   6.6421   6.7200   7.6258   7.7034   7.7099   7.7636
     7.8220   8.1334   8.1804   8.2624   8.5996   8.6991   8.7768   8.8852
     8.9161   9.1523

          k = 0.2500 0.2563 0.0000 ( 35777 PWs)   bands (ev):

   -38.2524 -38.1792 -22.7672 -22.7561 -22.6075 -22.6060 -18.5880 -18.5653
   -18.5504 -18.5149 -18.4986 -18.4790 -14.8709 -14.8294 -14.6924 -14.6303
   -14.4660 -14.4545 -14.3886 -14.3381 -14.2894 -14.2217 -14.1653 -13.8309
   -13.8154 -13.6739 -12.6192  -8.3311  -8.3207  -8.1470  -8.0783  -8.0658
    -8.0066  -7.9798  -7.9325  -7.7265  -7.7161  -7.5706  -7.4069  -3.1777
    -3.1214  -2.7980  -2.7217  -2.2376  -2.2235  -2.2032  -2.1489  -2.0809
    -2.0741  -1.9652  -1.8595  -1.8483  -1.6645  -1.6142  -1.5711  -1.5019
    -1.4851  -1.4525  -1.3708  -0.9622  -0.9240  -0.8934  -0.8180  -0.7243
    -0.4696  -0.4392  -0.3100  -0.2693  -0.2318  -0.2046  -0.1678  -0.1397
    -0.1258  -0.0107   0.0851   0.2928   0.4121   0.4308   0.4623   0.5500
     0.5960   0.6150   0.6539   0.6648   0.7580   0.7736   1.1145   1.1454
     1.1824   1.2000   1.2343   1.2665   1.2812   1.2880   1.2971   1.3525
     1.3747   1.3959   1.4158   1.4804   1.6901   1.6964   1.7602   1.8228
     1.8549   1.9193   1.9564   2.0391   2.0493   2.1207   2.5942   2.7019
     3.0908   3.1660   3.2043   3.2468   3.2771   3.4344   3.4640   6.3779
     6.5594   6.5736   6.9949   7.0510   7.4843   7.5841   7.9698   8.2194
     8.2329   8.6188   8.6621   8.6813   8.7100   8.8083   8.9408   8.9891
     9.0423   9.1344

          k = 0.2500 0.3844 0.0000 ( 35801 PWs)   bands (ev):

   -38.2468 -38.1736 -22.7197 -22.7085 -22.5639 -22.5606 -18.7696 -18.6947
   -18.5510 -18.4812 -18.4696 -18.4031 -14.7448 -14.7065 -14.6283 -14.5549
   -14.4512 -14.4343 -14.4316 -14.3996 -14.2339 -14.1286 -14.1080 -13.7878
   -13.7707 -13.6911 -12.6397  -8.4377  -8.4275  -8.2548  -8.0590  -8.0568
    -8.0445  -7.9876  -7.9634  -7.9527  -7.9169  -7.7910  -7.6525  -3.5909
    -3.5372  -3.1472  -3.0740  -2.6485  -2.6354  -2.6343  -2.2682  -2.2488
    -2.1855  -2.1270  -1.9723  -1.9662  -1.9616  -1.9336  -1.7392  -1.6913
    -1.6666  -1.4528  -1.3947  -1.0041  -0.9726  -0.9329  -0.8344  -0.8077
    -0.6883  -0.6245  -0.4699  -0.4588  -0.4401  -0.3979  -0.3962  -0.2245
    -0.1872  -0.0697   0.0525   0.3105   0.4783   0.5272   0.5646   0.6122
     0.6768   0.7153   0.7888   0.8663   0.9265   0.9756   1.1645   1.1833
     1.1915   1.2263   1.3321   1.4188   1.4498   1.4941   1.4958   1.5507
     1.6263   1.6517   1.6992   1.7016   1.7647   1.7888   1.8726   1.9240
     2.1274   2.1357   2.3347   2.4594   2.4737   2.5027   2.5551   2.6248
     3.0442   3.0983   3.2437   3.5212   3.5512   3.7102   3.7311   6.7056
     6.7326   6.7820   6.9850   7.0702   7.7631   7.8078   8.0518   8.4938
     8.5854   8.6001   9.0163   9.1108   9.1126   9.2704   9.3786   9.5469
     9.5764   9.6652

          k = 0.2500-0.5125 0.0000 ( 35798 PWs)   bands (ev):

   -38.2445 -38.1713 -22.6996 -22.6884 -22.5462 -22.5409 -18.8441 -18.7693
   -18.5452 -18.4754 -18.4290 -18.3623 -14.7938 -14.7386 -14.5079 -14.4753
   -14.4701 -14.4363 -14.4245 -14.3819 -14.2352 -14.0890 -14.0710 -13.7670
   -13.7495 -13.6993 -12.6498  -8.4222  -8.4123  -8.2510  -8.1229  -8.1120
    -8.0426  -8.0310  -7.9847  -7.9704  -7.9423  -7.8938  -7.8652  -3.7532
    -3.7007  -3.3044  -3.2302  -2.8910  -2.8842  -2.8728  -2.2627  -2.2419
    -2.1452  -2.1334  -2.0938  -2.0865  -1.9595  -1.9506  -1.8520  -1.8056
    -1.6680  -1.4528  -1.4002  -1.0113  -0.9853  -0.9599  -0.8349  -0.7848
    -0.7837  -0.7110  -0.5410  -0.5156  -0.5115  -0.4799  -0.4350  -0.2282
    -0.2048  -0.0781   0.0460   0.3205   0.5037   0.5443   0.5882   0.6208
     0.6612   0.7194   0.7958   0.8844   1.0562   1.1056   1.2388   1.2465
     1.2696   1.3126   1.4070   1.4584   1.4830   1.5365   1.5501   1.5996
     1.6031   1.6830   1.7017   1.7503   1.7713   1.9449   1.9625   2.1979
     2.2230   2.4030   2.4210   2.4940   2.6048   2.6380   2.6527   2.7428
     2.8850   2.9503   3.1841   3.5788   3.6098   3.7659   3.7859   6.6748
     6.6894   6.8142   6.9098   7.0052   7.9001   7.9805   8.1143   8.5909
     9.0503   9.1059   9.2034   9.2146   9.2323   9.3929   9.5026   9.5795
     9.6649   9.6815

          k = 0.3750 0.0000 0.0000 ( 35770 PWs)   bands (ev):

   -38.2558 -38.1826 -22.7864 -22.7752 -22.6267 -22.6263 -18.7756 -18.7073
   -18.5966 -18.5297 -18.2481 -18.1717 -14.9611 -14.9325 -14.9010 -14.8310
   -14.6781 -14.6415 -14.5274 -14.2880 -14.2683 -14.1730 -14.1084 -13.8618
   -13.8477 -13.6569 -12.7678  -8.1392  -8.1268  -8.0051  -8.0004  -7.7239
    -7.7137  -7.6528  -7.6422  -7.5797  -7.4843  -7.4080  -7.3514  -2.9364
    -2.8988  -2.7991  -2.7168  -2.0769  -2.0751  -1.8442  -1.8025  -1.7832
    -1.7615  -1.7478  -1.7254  -1.6853  -1.1055  -1.0694  -1.0627  -1.0377
    -1.0301  -0.8674  -0.8513  -0.8275  -0.7864  -0.6960  -0.6899  -0.5421
    -0.5266  -0.3708  -0.3114  -0.3092  -0.2606  -0.2374  -0.1731  -0.0505
     0.0816   0.1411   0.2186   0.2771   0.3603   0.3792   0.3914   0.4039
     0.5050   0.6115   0.6159   0.6304   0.6462   0.6637   0.6747   0.6936
     0.7376   0.7957   0.8087   0.9787   1.0035   1.0433   1.2553   1.2771
     1.2929   1.3689   1.3707   1.4179   1.4466   1.4672   1.6426   1.6849
     1.7210   1.7237   1.7892   1.8079   1.8285   1.8486   2.0551   2.1406
     2.1552   2.4234   2.4554   2.5754   2.6549   2.8377   2.9249   6.2711
     6.4437   6.4558   7.1149   7.1809   7.9093   7.9190   7.9498   7.9569
     7.9865   8.2111   8.3671   8.5081   8.7745   8.8371   8.9018   9.1213
     9.1906   9.4102

          k = 0.3750 0.1281 0.0000 ( 35738 PWs)   bands (ev):

   -38.2535 -38.1803 -22.7694 -22.7582 -22.6107 -22.6099 -18.7683 -18.7000
   -18.5637 -18.4968 -18.3465 -18.2704 -14.8968 -14.8740 -14.8209 -14.7421
   -14.6257 -14.5987 -14.4781 -14.2585 -14.2405 -14.2378 -14.1735 -13.8454
   -13.8311 -13.6509 -12.7338  -8.1401  -8.1278  -8.0064  -7.9995  -7.9707
    -7.9600  -7.7954  -7.6853  -7.6749  -7.6591  -7.5351  -7.3705  -3.0886
    -3.0378  -2.8510  -2.7723  -2.1172  -2.1048  -2.0430  -2.0092  -1.9124
    -1.8764  -1.7349  -1.6615  -1.5887  -1.4161  -1.3871  -1.3538  -1.2917
    -1.1247  -1.0862  -1.0733  -0.9611  -0.9088  -0.9013  -0.8207  -0.6469
    -0.5958  -0.3450  -0.2481  -0.1900  -0.0705  -0.0529  -0.0171   0.0426
     0.0618   0.0908   0.1003   0.1818   0.2401   0.3215   0.3254   0.4185
     0.4932   0.5118   0.5191   0.6801   0.6942   0.7919   0.8056   0.8080
     0.9789   1.0241   1.0826   1.1586   1.1701   1.2077   1.2628   1.2846
     1.3359   1.3475   1.4375   1.5093   1.5204   1.5641   1.6606   1.6864
     1.6886   1.7243   1.7380   1.7691   1.8441   1.9130   2.1369   2.6917
     2.7466   2.7901   2.8174   2.8980   2.9239   3.1195   3.1447   6.3926
     6.5660   6.5787   7.1979   7.2592   7.5697   7.6497   7.9363   8.0197
     8.0297   8.3787   8.6901   8.7632   8.8019   8.8545   8.9468   9.0634
     9.1766   9.4352

          k = 0.3750 0.2563 0.0000 ( 35769 PWs)   bands (ev):

   -38.2480 -38.1748 -22.7278 -22.7166 -22.5727 -22.5687 -18.7508 -18.6824
   -18.5617 -18.4863 -18.4805 -18.4133 -14.7794 -14.7526 -14.6287 -14.5676
   -14.4820 -14.4510 -14.4049 -14.3442 -14.3369 -14.1910 -14.1529 -13.8080
   -13.7928 -13.6469 -12.6491  -8.3802  -8.3697  -8.2005  -8.0966  -8.0842
    -8.0369  -7.9782  -7.9541  -7.9499  -7.9435  -7.7942  -7.6275  -3.5319
    -3.4712  -3.0805  -3.0007  -2.3069  -2.2884  -2.2269  -2.1886  -2.0855
    -2.0795  -1.9802  -1.9394  -1.9252  -1.8660  -1.8536  -1.7276  -1.6935
    -1.6762  -1.3788  -1.3107  -0.9506  -0.9010  -0.8542  -0.7940  -0.6826
    -0.5954  -0.5867  -0.3783  -0.3203  -0.2883  -0.2629  -0.2347  -0.1462
    -0.1250  -0.0182   0.0512   0.2651   0.4452   0.5770   0.6103   0.6277
     0.7663   0.8066   0.8733   0.8928   0.9517   0.9916   1.1618   1.1911
     1.1942   1.2261   1.3065   1.3294   1.3426   1.3723   1.3965   1.4765
     1.5321   1.5647   1.5740   1.5988   1.7275   1.7378   1.8604   1.8817
     1.9147   1.9375   1.9521   1.9549   2.0128   2.0491   2.5419   2.6502
     3.0893   3.1705   3.2146   3.6391   3.6610   3.7842   3.8065   6.4997
     6.5476   6.5656   6.9810   7.0534   7.6424   7.7218   7.9349   8.2619
     8.2744   8.5009   9.0154   9.0222   9.0476   9.0840   9.1214   9.2889
     9.4512   9.4963

          k = 0.3750 0.3844 0.0000 ( 35857 PWs)   bands (ev):

   -38.2425 -38.1693 -22.6854 -22.6742 -22.5340 -22.5267 -18.7563 -18.7305
   -18.6820 -18.6613 -18.3912 -18.3237 -14.6740 -14.6354 -14.5681 -14.5179
   -14.4723 -14.4431 -14.3088 -14.2571 -14.1583 -14.1306 -14.0735 -13.7748
   -13.7581 -13.6694 -12.5606  -8.6466  -8.6363  -8.4580  -8.2828  -8.2723
    -8.2672  -8.1021  -8.0845  -8.0727  -7.9927  -7.9605  -7.9427  -3.9843
    -3.9244  -3.4414  -3.3639  -2.6203  -2.6063  -2.6044  -2.4007  -2.3852
    -2.3747  -2.3336  -2.3175  -2.2737  -1.9743  -1.9723  -1.8675  -1.8196
    -1.6735  -1.2281  -1.1767  -1.0425  -0.9931  -0.8555  -0.8304  -0.8098
    -0.7449  -0.6609  -0.6363  -0.5777  -0.5109  -0.4924  -0.4621  -0.0804
    -0.0771   0.0268   0.0483   0.3196   0.5833   0.7283   0.8782   0.8905
     0.9104   0.9234   1.0993   1.2348   1.2957   1.3218   1.3317   1.3448
     1.3897   1.4564   1.4686   1.5248   1.5321   1.5513   1.6030   1.6151
     1.6245   1.7047   1.7560   1.8349   1.8603   1.8632   2.0553   2.1389
     2.1646   2.3221   2.3486   2.3808   2.3951   2.4779   2.5343   2.7662
     3.0289   3.0984   3.2526   4.1802   4.2050   4.2940   4.3095   6.1718
     6.1860   6.3233   6.6769   6.7699   7.8645   8.0309   8.2579   8.3096
     8.7743   8.8331   8.8712   8.9390   9.1604   9.3398   9.4099   9.4708
     9.5221   9.6318

          k = 0.3750-0.5125 0.0000 ( 35878 PWs)   bands (ev):

   -38.2402 -38.1670 -22.6676 -22.6564 -22.5177 -22.5091 -18.8285 -18.7537
   -18.7250 -18.6565 -18.3521 -18.2845 -14.6834 -14.6235 -14.5794 -14.5439
   -14.4097 -14.4005 -14.2279 -14.1863 -14.1416 -14.0423 -14.0343 -13.7634
   -13.7458 -13.6966 -12.5227  -8.7255  -8.7154  -8.5401  -8.4381  -8.4274
    -8.2920  -8.2421  -8.1870  -8.0799  -8.0678  -7.9722  -7.9381  -4.1652
    -4.1060  -3.6065  -3.5298  -2.8611  -2.8573  -2.8441  -2.5152  -2.4718
    -2.4160  -2.4031  -2.3287  -2.2832  -1.9698  -1.9683  -1.9152  -1.8683
    -1.6557  -1.2496  -1.2038  -0.9988  -0.9509  -0.9175  -0.8889  -0.8876
    -0.7581  -0.7281  -0.7105  -0.6396  -0.5923  -0.5755  -0.5463  -0.0455
    -0.0448   0.0258   0.0839   0.3451   0.6177   0.7451   0.9362   0.9491
     0.9895   1.0342   1.1753   1.3502   1.3542   1.3561   1.3759   1.4196
     1.5278   1.5337   1.5699   1.5712   1.6073   1.6309   1.6745   1.7703
     1.7817   1.8254   1.8259   1.8854   1.9162   1.9464   2.0333   2.3455
     2.4219   2.4395   2.5772   2.5872   2.5919   2.6600   2.6613   2.6935
     2.8583   2.9409   3.1892   4.3420   4.3688   4.4618   4.4759   5.9773
     5.9889   6.1630   6.5747   6.6786   8.0338   8.0349   8.1725   8.4265
     8.8729   8.9815   9.0687   9.1240   9.2618   9.3174   9.3498   9.4017
     9.4909   9.6011

          k =-0.5000 0.0000 0.0000 ( 35718 PWs)   bands (ev):

   -38.2540 -38.1808 -22.7669 -22.7557 -22.6103 -22.6077 -18.8476 -18.7798
   -18.5584 -18.4910 -18.2456 -18.1692 -14.9994 -14.9697 -14.7845 -14.7614
   -14.7226 -14.7042 -14.5732 -14.2972 -14.2910 -14.1617 -14.0964 -13.8560
   -13.8418 -13.6568 -12.8339  -8.1385  -8.1260  -7.9981  -7.9905  -7.7011
    -7.6910  -7.6145  -7.6038  -7.5724  -7.4478  -7.3789  -7.3216  -3.0598
    -3.0232  -2.9143  -2.8332  -2.1035  -2.1020  -1.8074  -1.7931  -1.7800
    -1.7705  -1.7118  -1.5441  -1.5023  -1.3455  -1.3152  -1.1598  -0.9992
    -0.9806  -0.9627  -0.9511  -0.9460  -0.8562  -0.7917  -0.7859  -0.5516
    -0.5362  -0.5207  -0.5000  -0.3889  -0.2897  -0.2547  -0.2506  -0.1080
     0.0831   0.1098   0.2550   0.3193   0.3723   0.3858   0.3900   0.3983
     0.4990   0.6264   0.6276   0.6383   0.6722   0.6995   0.7108   0.7124
     0.7278   0.7332   0.7812   0.9081   1.1423   1.1677   1.2883   1.2961
     1.3170   1.3360   1.3559   1.3894   1.4530   1.4933   1.5583   1.7606
     1.7676   1.7725   1.7900   1.8220   1.8889   1.9530   1.9634   2.1260
     2.1370   2.4125   2.4352   2.5770   2.6445   2.8515   2.9305   6.9901
     7.1145   7.1747   7.2087   7.2980   7.3110   7.4240   7.5097   7.9012
     7.9684   8.5383   8.5786   8.5814   9.0774   9.1227   9.1324   9.2736
     9.3309   9.4107

          k =-0.5000 0.1281 0.0000 ( 35740 PWs)   bands (ev):

   -38.2517 -38.1785 -22.7507 -22.7395 -22.5953 -22.5917 -18.8399 -18.7720
   -18.5260 -18.4586 -18.3432 -18.2671 -14.9508 -14.9203 -14.7119 -14.6686
   -14.6643 -14.6066 -14.5219 -14.2664 -14.2602 -14.2284 -14.1626 -13.8377
   -13.8233 -13.6468 -12.7860  -8.1344  -8.1219  -7.9955  -7.9880  -7.8363
    -7.8261  -7.8258  -7.8152  -7.6963  -7.6532  -7.5159  -7.5079  -3.2176
    -3.1675  -2.9745  -2.8962  -2.1281  -2.1201  -2.0327  -1.9967  -1.7977
    -1.6899  -1.6707  -1.6703  -1.6499  -1.6291  -1.5850  -1.5111  -1.4410
    -1.1057  -1.0926  -1.0774  -0.9838  -0.8846  -0.8369  -0.8329  -0.7104
    -0.7018  -0.3224  -0.3115  -0.2394  -0.1007  -0.0820  -0.0377  -0.0300
    -0.0023   0.0386   0.0912   0.1214   0.1386   0.3247   0.3355   0.4227
     0.5010   0.5782   0.6082   0.6731   0.6890   0.8292   0.8778   0.8911
     0.9980   1.0160   1.1257   1.1552   1.2464   1.2542   1.3010   1.3095
     1.3243   1.3521   1.4149   1.4729   1.4828   1.5218   1.7097   1.7418
     1.7474   1.7875   1.7951   1.8703   1.8763   1.9337   1.9568   2.6743
     2.7723   2.7985   2.8120   2.8911   2.9160   3.1411   3.1643   6.9116
     7.0150   7.0297   7.2807   7.4192   7.4941   7.5207   7.6078   7.6425
     7.6723   8.6327   8.8711   8.9630   9.0272   9.1291   9.1771   9.2633
     9.3096   9.4410

          k =-0.5000 0.2563 0.0000 ( 35790 PWs)   bands (ev):

   -38.2463 -38.1730 -22.7113 -22.7001 -22.5587 -22.5524 -18.8211 -18.7532
   -18.5572 -18.4818 -18.4444 -18.3767 -14.8283 -14.7955 -14.5852 -14.5595
   -14.4122 -14.3901 -14.3805 -14.3662 -14.3073 -14.1911 -14.1858 -13.7982
   -13.7831 -13.6354 -12.6629  -8.3024  -8.2919  -8.1476  -8.1372  -8.1278
    -8.1027  -8.0905  -7.9932  -7.9822  -7.9560  -7.9063  -7.8437  -3.6740
    -3.6130  -3.2168  -3.1378  -2.3239  -2.3044  -2.2132  -2.1783  -2.1344
    -2.0905  -2.0797  -2.0733  -1.9083  -1.8674  -1.8551  -1.8081  -1.7547
    -1.7113  -1.3497  -1.2820  -0.9325  -0.8841  -0.8125  -0.7157  -0.7044
    -0.6927  -0.5837  -0.3780  -0.3207  -0.3199  -0.3068  -0.2665  -0.1414
    -0.1259  -0.0113   0.0366   0.2508   0.4635   0.6183   0.6446   0.6486
     0.7754   0.8511   0.9038   0.9372   1.1112   1.1517   1.1933   1.2433
     1.2534   1.2807   1.3572   1.4064   1.4299   1.4383   1.4420   1.4475
     1.4744   1.5655   1.6202   1.6704   1.7668   1.8580   1.8754   1.8805
     1.8926   1.9079   1.9090   1.9702   2.0232   2.2304   2.2901   2.6095
     3.0874   3.1673   3.2138   3.7505   3.7708   3.8789   3.8995   6.4900
     6.5089   6.5803   6.8948   6.9792   7.7721   7.8783   7.8815   8.3562
     8.3717   8.5667   8.7643   9.0894   9.0951   9.2483   9.2634   9.3116
     9.4924   9.5435

          k =-0.5000 0.3844 0.0000 ( 35922 PWs)   bands (ev):

   -38.2408 -38.1675 -22.6711 -22.6599 -22.5215 -22.5125 -18.8024 -18.7482
   -18.7343 -18.6732 -18.3568 -18.2890 -14.6995 -14.6645 -14.5627 -14.5006
   -14.4399 -14.4337 -14.2039 -14.1726 -14.1154 -14.1113 -14.1049 -13.7691
   -13.7525 -13.6594 -12.5268  -8.6959  -8.6856  -8.5085  -8.4415  -8.4309
    -8.2868  -8.2519  -8.1714  -8.0983  -8.0859  -7.9718  -7.9569  -4.1454
    -4.0844  -3.5835  -3.5060  -2.6085  -2.5944  -2.5918  -2.5186  -2.4732
    -2.4328  -2.4204  -2.3465  -2.3067  -1.9734  -1.9716  -1.9052  -1.8557
    -1.6735  -1.1419  -1.1075  -1.0879  -1.0630  -0.8293  -0.8069  -0.7925
    -0.7814  -0.7169  -0.6273  -0.6035  -0.5409  -0.5272  -0.5006  -0.0238
    -0.0140   0.0120   0.0967   0.3248   0.6159   0.7695   0.9993   1.0044
     1.0565   1.0998   1.2385   1.3111   1.3242   1.3596   1.3722   1.4741
     1.4803   1.4992   1.5155   1.5609   1.6015   1.6330   1.6898   1.7101
     1.7401   1.7970   1.7986   1.8398   1.8709   1.9542   2.0271   2.1422
     2.1822   2.3429   2.3514   2.3569   2.4379   2.4769   2.6759   2.6773
     3.0265   3.0970   3.2566   4.4046   4.4277   4.5004   4.5138   5.9346
     5.9475   6.1069   6.5678   6.6683   7.9742   8.0963   8.1666   8.3855
     8.6666   8.7911   8.9690   9.0863   9.2136   9.2637   9.3270   9.4224
     9.5183   9.5363

          k =-0.5000-0.5125 0.0000 ( 35908 PWs)   bands (ev):

   -38.2385 -38.1653 -22.6542 -22.6430 -22.5059 -22.4957 -18.8221 -18.7946
   -18.7472 -18.7265 -18.3186 -18.2506 -14.6449 -14.6347 -14.6094 -14.5721
   -14.3693 -14.3680 -14.1331 -14.0908 -14.0798 -14.0523 -14.0122 -13.7616
   -13.7440 -13.6954 -12.4658  -8.8480  -8.8377  -8.6575  -8.5590  -8.5483
    -8.4260  -8.3593  -8.3086  -8.0959  -8.0838  -7.9706  -7.9537  -4.3347
    -4.2742  -3.7509  -3.6741  -2.8487  -2.8455  -2.8318  -2.6490  -2.6041
    -2.4600  -2.4484  -2.3694  -2.3282  -1.9615  -1.9603  -1.9387  -1.8906
    -1.6458  -1.1877  -1.1449  -1.0672  -1.0205  -0.9315  -0.8486  -0.8369
    -0.8237  -0.7298  -0.7041  -0.6973  -0.6240  -0.6104  -0.5862   0.0119
     0.0196   0.0293   0.1364   0.3565   0.6534   0.7903   1.0639   1.1261
     1.2696   1.3119   1.3630   1.3792   1.3946   1.4040   1.4142   1.4270
     1.4451   1.5263   1.6177   1.6537   1.6959   1.7128   1.7391   1.8979
     1.9201   1.9257   1.9327   1.9393   1.9438   2.0664   2.1540   2.2267
     2.4420   2.4593   2.5499   2.5644   2.6094   2.6449   2.8444   2.8465
     2.8528   2.9364   3.1952   4.6181   4.6422   4.7305   4.7428   5.6870
     5.6981   5.8836   6.4569   6.5678   8.0117   8.0780   8.2814   8.2826
     8.6027   8.8003   9.0025   9.1102   9.1247   9.1597   9.2854   9.3994
     9.4073   9.5711

     the Fermi energy is     2.8461 ev

!    total energy              =   -1868.73090883 Ry
     Harris-Foulkes estimate   =   -1868.73090960 Ry
     estimated scf accuracy    <       0.00000083 Ry

     The total energy is the sum of the following terms:

     one-electron contribution =  -28459.38991807 Ry
     hartree contribution      =   14383.25492920 Ry
     xc contribution           =    -642.19734673 Ry
     ewald contribution        =   12849.61212050 Ry
     smearing contrib. (-TS)   =      -0.01069374 Ry

     convergence has been achieved in  36 iterations

     negative rho (up, down):  9.052E-02 0.000E+00

     Forces acting on atoms (cartesian axes, Ry/au):

     atom    1 type  3   force =     0.00000000    0.00000000   -0.00033263
     atom    2 type  2   force =     0.00000000    0.00000000    0.00246157
     atom    3 type  3   force =     0.00000000    0.00000000    0.00041969
     atom    4 type  1   force =     0.00000000    0.00000000   -0.00012354
     atom    5 type  2   force =     0.00000000    0.00000000   -0.00039270
     atom    6 type  3   force =     0.00000000    0.00000000    0.00139041
     atom    7 type  3   force =     0.00000000    0.00000000    0.00105450
     atom    8 type  4   force =     0.00000000    0.00000000   -0.00269286
     atom    9 type  3   force =     0.00000000    0.00000000    0.00487977
     atom   10 type  3   force =     0.00000000    0.00000000    0.00344380
     atom   11 type  2   force =     0.00000000    0.00000000   -0.00086382
     atom   12 type  1   force =     0.00000000    0.00000000    0.01602085
     atom   13 type  3   force =     0.00000000    0.00000000   -0.01851366
     atom   14 type  3   force =     0.00000000    0.00000000    0.02321563
     atom   15 type  2   force =     0.00000000    0.00000000   -0.01995672
     atom   16 type  3   force =     0.00000000    0.00000000    0.02016551
     atom   17 type  1   force =     0.00000000    0.00000000   -0.01084470
     atom   18 type  2   force =     0.00000000    0.00000000   -0.02471576
     atom   19 type  3   force =     0.00000000    0.00000000    0.00458384
     atom   20 type  3   force =     0.00000000    0.00000000    0.00314643
     atom   21 type  4   force =     0.00000000    0.00000000   -0.00071456
     atom   22 type  3   force =     0.00000000    0.00000000   -0.00043109
     atom   23 type  3   force =     0.00000000    0.00000000    0.00080595
     atom   24 type  2   force =     0.00000000    0.00000000    0.00019529
     atom   25 type  1   force =     0.00000000    0.00000000    0.00009883
     atom   26 type  3   force =     0.00000000    0.00000000   -0.00184131
     atom   27 type  2   force =     0.00000000    0.00000000   -0.00075164
     atom   28 type  3   force =     0.00000000    0.00000000    0.00029293

     Total force =     0.052549     Total SCF correction =     0.006364
     SCF correction compared to forces is large: reduce conv_thr to get better values


     Computing stress (Cartesian axis) and pressure


     negative rho (up, down):  9.052E-02 0.000E+00
          total   stress  (Ry/bohr**3)                   (kbar)     P=       -7.78
  -0.00000684   0.00000000   0.00000000           -1.01        0.00        0.00
   0.00000000  -0.00010895   0.00000000            0.00      -16.03        0.00
   0.00000000   0.00000000  -0.00004297            0.00        0.00       -6.32

 
     init_run     :      8.89s CPU      9.38s WALL (       1 calls)
     electrons    :    585.32s CPU    606.14s WALL (       1 calls)
     forces       :      3.77s CPU      3.95s WALL (       1 calls)
     stress       :     17.52s CPU     17.95s WALL (       1 calls)

     Called by init_run:
     wfcinit      :      6.19s CPU      6.34s WALL (       1 calls)
     potinit      :      0.63s CPU      0.65s WALL (       1 calls)
     hinit0       :      1.02s CPU      1.18s WALL (       1 calls)

     Called by electrons:
     c_bands      :    454.51s CPU    464.90s WALL (      36 calls)
     sum_band     :     86.48s CPU     92.15s WALL (      36 calls)
     v_of_rho     :      2.62s CPU      2.67s WALL (      37 calls)
     newd         :     25.31s CPU     29.95s WALL (      37 calls)
     mix_rho      :     16.90s CPU     17.08s WALL (      36 calls)

     Called by c_bands:
     init_us_2    :      3.67s CPU      3.68s WALL (    1875 calls)
     cegterg      :    427.63s CPU    437.43s WALL (     900 calls)

     Called by sum_band:
     sum_band:bec :      0.24s CPU      0.25s WALL (     900 calls)
     addusdens    :     23.85s CPU     28.74s WALL (      36 calls)

     Called by *egterg:
     h_psi        :    210.91s CPU    217.79s WALL (    3800 calls)
     s_psi        :     21.69s CPU     21.90s WALL (    3800 calls)
     g_psi        :      0.67s CPU      0.67s WALL (    2875 calls)
     cdiaghg      :    111.83s CPU    112.36s WALL (    3775 calls)

     Called by h_psi:
     h_psi:calbec :     25.29s CPU     26.33s WALL (    3800 calls)
     vloc_psi     :    162.05s CPU    164.78s WALL (    3800 calls)
     add_vuspsi   :     22.67s CPU     24.31s WALL (    3800 calls)

     General routines
     calbec       :     39.20s CPU     40.31s WALL (    4825 calls)
     fft          :      1.97s CPU      2.14s WALL (     504 calls)
     ffts         :      8.78s CPU      8.88s WALL (   16032 calls)
     fftw         :    186.08s CPU    189.21s WALL (  643876 calls)
     interpolate  :      0.16s CPU      0.17s WALL (      37 calls)
 
     Parallel routines
     fft_scatt_xy :     23.11s CPU     23.44s WALL (  660412 calls)
     fft_scatt_yz :    115.78s CPU    117.73s WALL (  660412 calls)
 
     PWSCF        :  10m16.44s CPU  10m38.46s WALL

 
   This run was terminated on:  17:25:44   5May2021            

=------------------------------------------------------------------------------=
   JOB DONE.
=------------------------------------------------------------------------------=
[1620249944.189544] [holy7c12505:265503:0]          mpool.c:43   UCX  WARN  object 0x3bc4bc0 was not returned to mpool ucp_requests
[1620249944.189168] [holy7c12504:221719:0]          mpool.c:43   UCX  WARN  object 0x2909900 was not returned to mpool ucp_requests
[1620249944.189187] [holy7c12504:221719:0]          mpool.c:43   UCX  WARN  object 0x2909c80 was not returned to mpool ucp_requests
[1620249944.191656] [holy7c12411:7195 :0]          mpool.c:43   UCX  WARN  object 0x3ec4140 was not returned to mpool ucp_requests
[1620249944.191682] [holy7c12411:7195 :0]          mpool.c:43   UCX  WARN  object 0x3ec4680 was not returned to mpool ucp_requests
[1620249944.193023] [holy7c12502:171103:0]          mpool.c:43   UCX  WARN  object 0x3122100 was not returned to mpool ucp_requests
[1620249944.193114] [holy7c12404:171075:0]          mpool.c:43   UCX  WARN  object 0x35d3780 was not returned to mpool ucp_requests
[1620249944.195675] [holy7c12506:250649:0]          mpool.c:43   UCX  WARN  object 0x44bedc0 was not returned to mpool ucp_requests
[1620249944.200064] [holy7c12403:221353:0]          mpool.c:43   UCX  WARN  object 0x42fcdc0 was not returned to mpool ucp_requests
[1620249944.200085] [holy7c12403:221353:0]          mpool.c:43   UCX  WARN  object 0x42fcf80 was not returned to mpool ucp_requests
