
     Program PWSCF v.6.5 starts on  5May2021 at 17:29:28 

     This program is part of the open-source Quantum ESPRESSO suite
     for quantum simulation of materials; please cite
         "P. Giannozzi et al., J. Phys.:Condens. Matter 21 395502 (2009);
         "P. Giannozzi et al., J. Phys.:Condens. Matter 29 465901 (2017);
          URL http://www.quantum-espresso.org", 
     in publications or presentations arising from this work. More details at
     http://www.quantum-espresso.org/quote

     Parallel version (MPI), running on    20 processors

     MPI processes distributed on     4 nodes
     R & G space division:  proc/nbgrp/npool/nimage =      20
     Reading input from YBCO_BaO_cleave_3.5_sep_scf.pwi
Warning: card &IONS ignored
Warning: card     ION_DYNAMICS = 'BFGS' ignored
Warning: card / ignored
Warning: card &CELL ignored
Warning: card     CELL_DYNAMICS = 'BFGS' ignored
Warning: card / ignored

     Current dimensions of program PWSCF are:
     Max number of different atomic species (ntypx) = 10
     Max number of k-points (npk) =  40000
     Max angular momentum in pseudopotentials (lmaxx) =  3

     Subspace diagonalization in iterative solution of the eigenvalue problem:
     one sub-group per band group will be used
     scalapack distributed-memory algorithm (size of sub-group:  4*  4 procs)

     Message from routine setup:
     using ibrav=0 with symmetry is DISCOURAGED, use correct ibrav instead
 
     Parallelization info
     --------------------
     sticks:   dense  smooth     PW     G-vecs:    dense   smooth      PW
     Min         150      50     14                76742    14760    2302
     Max         151      52     15                76785    14783    2351
     Sum        3015    1011    293              1535249   295383   46557
 


     bravais-lattice index     =            0
     lattice parameter (alat)  =       7.3477  a.u.
     unit-cell volume          =    4705.1293 (a.u.)^3
     number of atoms/cell      =           28
     number of atomic types    =            4
     number of electrons       =       229.00
     number of Kohn-Sham states=          138
     kinetic-energy cutoff     =      60.0000  Ry
     charge density cutoff     =     720.0000  Ry
     convergence threshold     =      1.0E-06
     mixing beta               =       0.2000
     number of iterations used =           10  local-TF  mixing
     Exchange-correlation= SLA PW PBE PBE
                           (   1   4   3   4   0   0   0)

     celldm(1)=   7.347715  celldm(2)=   0.000000  celldm(3)=   0.000000
     celldm(4)=   0.000000  celldm(5)=   0.000000  celldm(6)=   0.000000

     crystal axes: (cart. coord. in units of alat)
               a(1) = (   1.000000   0.000000   0.000000 )  
               a(2) = (   0.000000   0.975577   0.000000 )  
               a(3) = (   0.000000   0.000000  12.157743 )  

     reciprocal axes: (cart. coord. in units 2 pi/alat)
               b(1) = (  1.000000  0.000000  0.000000 )  
               b(2) = (  0.000000  1.025034  0.000000 )  
               b(3) = (  0.000000  0.000000  0.082252 )  


     PseudoPot. # 1 for Ba read from file:
     /n/holyscratch01/hoffman_lab/ruizhe/YBCO_Project/pseudo/Ba.pbe-nsp-van.UPF
     MD5 check sum: 2b9c31dd849566dd297d80989662b7a0
     Pseudo is Ultrasoft + core correction, Zval = 10.0
     Generated by new atomic code, or converted to UPF format
     Using radial grid of  907 points,  6 beta functions with: 
                l(1) =   0
                l(2) =   0
                l(3) =   1
                l(4) =   1
                l(5) =   2
                l(6) =   2
     Q(r) pseudized with  6 coefficients,  rinner =    1.200   1.200   1.200
                                                       1.200   1.200

     PseudoPot. # 2 for Cu read from file:
     /n/holyscratch01/hoffman_lab/ruizhe/YBCO_Project/pseudo/Cu.pbe-n-van_ak.UPF
     MD5 check sum: 34e3282627ffb533726feb647e090d62
     Pseudo is Ultrasoft + core correction, Zval = 11.0
     Generated by new atomic code, or converted to UPF format
     Using radial grid of  867 points,  6 beta functions with: 
                l(1) =   0
                l(2) =   0
                l(3) =   1
                l(4) =   1
                l(5) =   2
                l(6) =   2
     Q(r) pseudized with  8 coefficients,  rinner =    1.400   1.400   1.400
                                                       1.400   1.400

     PseudoPot. # 3 for O  read from file:
     /n/holyscratch01/hoffman_lab/ruizhe/YBCO_Project/pseudo/O.pbe-van_ak.UPF
     MD5 check sum: 783ce7fe4c79b6a4916957118fed0856
     Pseudo is Ultrasoft, Zval =  6.0
     Generated by new atomic code, or converted to UPF format
     Using radial grid of  737 points,  4 beta functions with: 
                l(1) =   0
                l(2) =   0
                l(3) =   1
                l(4) =   1
     Q(r) pseudized with  8 coefficients,  rinner =    0.800   0.800   0.800


     PseudoPot. # 4 for Y  read from file:
     /n/holyscratch01/hoffman_lab/ruizhe/YBCO_Project/pseudo/Y.pbe-nsp-van.UPF
     MD5 check sum: 4412fed3ab108fed87a1b7d6a69a4a38
     Pseudo is Ultrasoft + core correction, Zval = 11.0
     Generated by new atomic code, or converted to UPF format
     Using radial grid of  885 points,  6 beta functions with: 
                l(1) =   0
                l(2) =   0
                l(3) =   1
                l(4) =   1
                l(5) =   2
                l(6) =   2
     Q(r) pseudized with  6 coefficients,  rinner =    1.200   1.200   1.200
                                                       1.200   1.200

     atomic species   valence    mass     pseudopotential
        Ba            10.00   137.32700     Ba( 1.00)
        Cu            11.00    63.54600     Cu( 1.00)
        O              6.00    15.99900     O ( 1.00)
        Y             11.00    88.90584     Y ( 1.00)

      4 Sym. Ops. (no inversion) found



   Cartesian axes

     site n.     atom                  positions (alat units)
         1           O   tau(   1) = (   0.0000000   0.4877884  -0.0257983  )
         2           Cu  tau(   2) = (   0.0000000   0.0000000   0.0215779  )
         3           O   tau(   3) = (   0.0000000   0.0000000   0.5073114  )
         4           Ba  tau(   4) = (   0.4999996   0.4877884   0.5319677  )
         5           Cu  tau(   5) = (   0.0000000   0.0000000   1.0495845  )
         6           O   tau(   6) = (   0.4999996   0.0000000   1.1181579  )
         7           O   tau(   7) = (   0.0000000   0.4877884   1.1273137  )
         8           Y   tau(   8) = (   0.4999996   0.4877884   1.4938777  )
         9           O   tau(   9) = (   0.0000000   0.4877884   1.8497402  )
        10           O   tau(  10) = (   0.4999996   0.0000000   1.8692709  )
        11           Cu  tau(  11) = (   0.0000000   0.0000000   1.9417560  )
        12           Ba  tau(  12) = (   0.4999996   0.4877884   2.4526063  )
        13           O   tau(  13) = (   0.0000000   0.0000000   2.5103470  )
        14           O   tau(  14) = (   0.0000000   0.4877884   2.9968469  )
        15           Cu  tau(  15) = (   0.0000000   0.0000000   2.9968521  )
        16           O   tau(  16) = (   0.0000000   0.0000000   3.4833288  )
        17           Ba  tau(  17) = (   0.4999996   0.4877884   3.5410618  )
        18           Cu  tau(  18) = (   0.0000000   0.0000000   4.9520846  )
        19           O   tau(  19) = (   0.4999996   0.0000000   5.0245569  )
        20           O   tau(  20) = (   0.0000000   0.4877884   5.0440696  )
        21           Y   tau(  21) = (   0.4999996   0.4877884   5.3999347  )
        22           O   tau(  22) = (   0.0000000   0.4877884   5.7664987  )
        23           O   tau(  23) = (   0.4999996   0.0000000   5.7756673  )
        24           Cu  tau(  24) = (   0.0000000   0.0000000   5.8442459  )
        25           Ba  tau(  25) = (   0.4999996   0.4877884   6.3618472  )
        26           O   tau(  26) = (   0.0000000   0.0000000   6.3865036  )
        27           Cu  tau(  27) = (   0.0000000   0.0000000   6.8722088  )
        28           O   tau(  28) = (   0.0000000   0.4877884   6.9195901  )

     number of k points=    25  Gaussian smearing, width (Ry)=  0.0100
                       cart. coord. in units 2pi/alat
        k(    1) = (   0.0000000   0.0000000   0.0000000), wk =   0.0312500
        k(    2) = (   0.0000000   0.1281293   0.0000000), wk =   0.0625000
        k(    3) = (   0.0000000   0.2562585   0.0000000), wk =   0.0625000
        k(    4) = (   0.0000000   0.3843878   0.0000000), wk =   0.0625000
        k(    5) = (   0.0000000  -0.5125170   0.0000000), wk =   0.0312500
        k(    6) = (   0.1250000   0.0000000   0.0000000), wk =   0.0625000
        k(    7) = (   0.1250000   0.1281293   0.0000000), wk =   0.1250000
        k(    8) = (   0.1250000   0.2562585   0.0000000), wk =   0.1250000
        k(    9) = (   0.1250000   0.3843878   0.0000000), wk =   0.1250000
        k(   10) = (   0.1250000  -0.5125170   0.0000000), wk =   0.0625000
        k(   11) = (   0.2500000   0.0000000   0.0000000), wk =   0.0625000
        k(   12) = (   0.2500000   0.1281293   0.0000000), wk =   0.1250000
        k(   13) = (   0.2500000   0.2562585   0.0000000), wk =   0.1250000
        k(   14) = (   0.2500000   0.3843878   0.0000000), wk =   0.1250000
        k(   15) = (   0.2500000  -0.5125170   0.0000000), wk =   0.0625000
        k(   16) = (   0.3750000   0.0000000   0.0000000), wk =   0.0625000
        k(   17) = (   0.3750000   0.1281293   0.0000000), wk =   0.1250000
        k(   18) = (   0.3750000   0.2562585   0.0000000), wk =   0.1250000
        k(   19) = (   0.3750000   0.3843878   0.0000000), wk =   0.1250000
        k(   20) = (   0.3750000  -0.5125170   0.0000000), wk =   0.0625000
        k(   21) = (  -0.5000000   0.0000000   0.0000000), wk =   0.0312500
        k(   22) = (  -0.5000000   0.1281293   0.0000000), wk =   0.0625000
        k(   23) = (  -0.5000000   0.2562585   0.0000000), wk =   0.0625000
        k(   24) = (  -0.5000000   0.3843878   0.0000000), wk =   0.0625000
        k(   25) = (  -0.5000000  -0.5125170   0.0000000), wk =   0.0312500

     Dense  grid:  1535249 G-vectors     FFT dimensions: (  64,  64, 768)

     Smooth grid:   295383 G-vectors     FFT dimensions: (  40,  36, 450)

     Estimated max dynamical RAM per process >     489.94 MB

     Estimated total dynamical RAM >       9.57 GB

     Initial potential from superposition of free atoms

     starting charge  228.84827, renormalised to  229.00000

     negative rho (up, down):  8.949E-02 0.000E+00
     Starting wfcs are  201 randomized atomic wfcs

     total cpu time spent up to now is       13.5 secs

     Self-consistent Calculation

     iteration #  1     ecut=    60.00 Ry     beta= 0.20
     Davidson diagonalization with overlap
     ethr =  1.00E-02,  avg # of iterations =  2.0

     negative rho (up, down):  8.740E-02 0.000E+00

     total cpu time spent up to now is       29.5 secs

     total energy              =   -1869.58433793 Ry
     Harris-Foulkes estimate   =   -1871.19353363 Ry
     estimated scf accuracy    <      15.10273484 Ry

     iteration #  2     ecut=    60.00 Ry     beta= 0.20
     Davidson diagonalization with overlap
     ethr =  6.60E-03,  avg # of iterations =  1.0

     negative rho (up, down):  8.627E-02 0.000E+00

     total cpu time spent up to now is       57.5 secs

     total energy              =   -1869.11028586 Ry
     Harris-Foulkes estimate   =   -1869.94977885 Ry
     estimated scf accuracy    <       5.83876650 Ry

     iteration #  3     ecut=    60.00 Ry     beta= 0.20
     Davidson diagonalization with overlap
     ethr =  2.55E-03,  avg # of iterations =  1.0

     negative rho (up, down):  8.586E-02 0.000E+00

     total cpu time spent up to now is       73.5 secs

     total energy              =   -1868.74634997 Ry
     Harris-Foulkes estimate   =   -1869.31197012 Ry
     estimated scf accuracy    <       4.02844698 Ry

     iteration #  4     ecut=    60.00 Ry     beta= 0.20
     Davidson diagonalization with overlap
     ethr =  1.76E-03,  avg # of iterations =  1.5

     negative rho (up, down):  8.612E-02 0.000E+00

     total cpu time spent up to now is       93.1 secs

     total energy              =   -1868.91757203 Ry
     Harris-Foulkes estimate   =   -1868.98551626 Ry
     estimated scf accuracy    <       2.51552146 Ry

     iteration #  5     ecut=    60.00 Ry     beta= 0.20
     Davidson diagonalization with overlap
     ethr =  1.10E-03,  avg # of iterations =  1.0

     negative rho (up, down):  8.671E-02 0.000E+00

     total cpu time spent up to now is      137.0 secs

     total energy              =   -1868.86605198 Ry
     Harris-Foulkes estimate   =   -1868.95898672 Ry
     estimated scf accuracy    <       1.49431366 Ry

     iteration #  6     ecut=    60.00 Ry     beta= 0.20
     Davidson diagonalization with overlap
     ethr =  6.53E-04,  avg # of iterations =  1.1

     negative rho (up, down):  8.807E-02 0.000E+00

     total cpu time spent up to now is      151.4 secs

     total energy              =   -1868.81111994 Ry
     Harris-Foulkes estimate   =   -1868.88580218 Ry
     estimated scf accuracy    <       0.92706689 Ry

     iteration #  7     ecut=    60.00 Ry     beta= 0.20
     Davidson diagonalization with overlap
     ethr =  4.05E-04,  avg # of iterations =  3.3

     negative rho (up, down):  8.970E-02 0.000E+00

     total cpu time spent up to now is      176.6 secs

     total energy              =   -1868.78304760 Ry
     Harris-Foulkes estimate   =   -1868.82904827 Ry
     estimated scf accuracy    <       0.48332237 Ry

     iteration #  8     ecut=    60.00 Ry     beta= 0.20
     Davidson diagonalization with overlap
     ethr =  2.11E-04,  avg # of iterations =  6.4

     negative rho (up, down):  9.046E-02 0.000E+00

     total cpu time spent up to now is      343.4 secs

     total energy              =   -1868.78686037 Ry
     Harris-Foulkes estimate   =   -1868.81210046 Ry
     estimated scf accuracy    <       0.32207787 Ry

     iteration #  9     ecut=    60.00 Ry     beta= 0.20
     Davidson diagonalization with overlap
     ethr =  1.41E-04,  avg # of iterations =  2.6

     negative rho (up, down):  9.116E-02 0.000E+00

     total cpu time spent up to now is      359.2 secs

     total energy              =   -1868.79141966 Ry
     Harris-Foulkes estimate   =   -1868.79934156 Ry
     estimated scf accuracy    <       0.45399665 Ry

     iteration # 10     ecut=    60.00 Ry     beta= 0.20
     Davidson diagonalization with overlap
     ethr =  1.41E-04,  avg # of iterations =  1.4

     negative rho (up, down):  9.118E-02 0.000E+00

     total cpu time spent up to now is      373.6 secs

     total energy              =   -1868.77875839 Ry
     Harris-Foulkes estimate   =   -1868.79944860 Ry
     estimated scf accuracy    <       0.32265716 Ry

     iteration # 11     ecut=    60.00 Ry     beta= 0.20
     Davidson diagonalization with overlap
     ethr =  1.41E-04,  avg # of iterations =  1.9

     negative rho (up, down):  9.089E-02 0.000E+00

     total cpu time spent up to now is      396.6 secs

     total energy              =   -1868.78337035 Ry
     Harris-Foulkes estimate   =   -1868.78657927 Ry
     estimated scf accuracy    <       0.05797861 Ry

     iteration # 12     ecut=    60.00 Ry     beta= 0.20
     Davidson diagonalization with overlap
     c_bands:  1 eigenvalues not converged
     ethr =  2.53E-05,  avg # of iterations =  9.4

     negative rho (up, down):  9.052E-02 0.000E+00

     total cpu time spent up to now is      422.2 secs

     total energy              =   -1868.78147261 Ry
     Harris-Foulkes estimate   =   -1868.78561597 Ry
     estimated scf accuracy    <       0.05196313 Ry

     iteration # 13     ecut=    60.00 Ry     beta= 0.20
     Davidson diagonalization with overlap
     ethr =  2.27E-05,  avg # of iterations =  1.0

     negative rho (up, down):  9.092E-02 0.000E+00

     total cpu time spent up to now is      448.3 secs

     total energy              =   -1868.77853524 Ry
     Harris-Foulkes estimate   =   -1868.78229582 Ry
     estimated scf accuracy    <       0.02504112 Ry

     iteration # 14     ecut=    60.00 Ry     beta= 0.20
     Davidson diagonalization with overlap
     ethr =  1.09E-05,  avg # of iterations =  6.4

     negative rho (up, down):  8.958E-02 0.000E+00

     total cpu time spent up to now is      470.1 secs

     total energy              =   -1868.77932912 Ry
     Harris-Foulkes estimate   =   -1868.78159917 Ry
     estimated scf accuracy    <       0.01777658 Ry

     iteration # 15     ecut=    60.00 Ry     beta= 0.20
     Davidson diagonalization with overlap
     ethr =  7.76E-06,  avg # of iterations =  2.1

     negative rho (up, down):  8.931E-02 0.000E+00

     total cpu time spent up to now is      495.4 secs

     total energy              =   -1868.78011491 Ry
     Harris-Foulkes estimate   =   -1868.78043522 Ry
     estimated scf accuracy    <       0.01016243 Ry

     iteration # 16     ecut=    60.00 Ry     beta= 0.20
     Davidson diagonalization with overlap
     ethr =  4.44E-06,  avg # of iterations =  2.4

     negative rho (up, down):  8.906E-02 0.000E+00

     total cpu time spent up to now is      511.0 secs

     total energy              =   -1868.77912651 Ry
     Harris-Foulkes estimate   =   -1868.78027662 Ry
     estimated scf accuracy    <       0.01034547 Ry

     iteration # 17     ecut=    60.00 Ry     beta= 0.20
     Davidson diagonalization with overlap
     c_bands:  1 eigenvalues not converged
     ethr =  4.44E-06,  avg # of iterations =  3.1

     negative rho (up, down):  9.271E-02 0.000E+00

     total cpu time spent up to now is      527.2 secs

     total energy              =   -1868.77852287 Ry
     Harris-Foulkes estimate   =   -1868.77930981 Ry
     estimated scf accuracy    <       0.01209437 Ry

     iteration # 18     ecut=    60.00 Ry     beta= 0.20
     Davidson diagonalization with overlap
     ethr =  4.44E-06,  avg # of iterations =  6.8

     negative rho (up, down):  9.161E-02 0.000E+00

     total cpu time spent up to now is      556.6 secs

     total energy              =   -1868.77821206 Ry
     Harris-Foulkes estimate   =   -1868.77867148 Ry
     estimated scf accuracy    <       0.01200166 Ry

     iteration # 19     ecut=    60.00 Ry     beta= 0.20
     Davidson diagonalization with overlap
     ethr =  4.44E-06,  avg # of iterations =  1.3

     negative rho (up, down):  8.966E-02 0.000E+00

     total cpu time spent up to now is      571.1 secs

     total energy              =   -1868.77794274 Ry
     Harris-Foulkes estimate   =   -1868.77825421 Ry
     estimated scf accuracy    <       0.01100658 Ry

     iteration # 20     ecut=    60.00 Ry     beta= 0.20
     Davidson diagonalization with overlap
     ethr =  4.44E-06,  avg # of iterations =  3.4

     negative rho (up, down):  8.982E-02 0.000E+00

     total cpu time spent up to now is      597.0 secs

     total energy              =   -1868.77764877 Ry
     Harris-Foulkes estimate   =   -1868.77804020 Ry
     estimated scf accuracy    <       0.00734677 Ry

     iteration # 21     ecut=    60.00 Ry     beta= 0.20
     Davidson diagonalization with overlap
     ethr =  3.21E-06,  avg # of iterations =  4.1

     negative rho (up, down):  9.115E-02 0.000E+00

     total cpu time spent up to now is      614.4 secs

     total energy              =   -1868.77640326 Ry
     Harris-Foulkes estimate   =   -1868.77768155 Ry
     estimated scf accuracy    <       0.00563908 Ry

     iteration # 22     ecut=    60.00 Ry     beta= 0.20
     Davidson diagonalization with overlap
     ethr =  2.46E-06,  avg # of iterations =  8.1

     negative rho (up, down):  9.008E-02 0.000E+00

     total cpu time spent up to now is      644.8 secs

     total energy              =   -1868.77620128 Ry
     Harris-Foulkes estimate   =   -1868.77650384 Ry
     estimated scf accuracy    <       0.00390121 Ry

     iteration # 23     ecut=    60.00 Ry     beta= 0.20
     Davidson diagonalization with overlap
     ethr =  1.70E-06,  avg # of iterations =  4.6

     negative rho (up, down):  8.978E-02 0.000E+00

     total cpu time spent up to now is      665.3 secs

     total energy              =   -1868.77600509 Ry
     Harris-Foulkes estimate   =   -1868.77624495 Ry
     estimated scf accuracy    <       0.00208852 Ry

     iteration # 24     ecut=    60.00 Ry     beta= 0.20
     Davidson diagonalization with overlap
     ethr =  9.12E-07,  avg # of iterations =  5.4

     negative rho (up, down):  9.021E-02 0.000E+00

     total cpu time spent up to now is      684.7 secs

     total energy              =   -1868.77596258 Ry
     Harris-Foulkes estimate   =   -1868.77604071 Ry
     estimated scf accuracy    <       0.00145375 Ry

     iteration # 25     ecut=    60.00 Ry     beta= 0.20
     Davidson diagonalization with overlap
     ethr =  6.35E-07,  avg # of iterations =  4.2

     negative rho (up, down):  9.013E-02 0.000E+00

     total cpu time spent up to now is      707.8 secs

     total energy              =   -1868.77597374 Ry
     Harris-Foulkes estimate   =   -1868.77599794 Ry
     estimated scf accuracy    <       0.00082975 Ry

     iteration # 26     ecut=    60.00 Ry     beta= 0.20
     Davidson diagonalization with overlap
     ethr =  3.62E-07,  avg # of iterations =  2.2

     negative rho (up, down):  9.005E-02 0.000E+00

     total cpu time spent up to now is      723.6 secs

     total energy              =   -1868.77596358 Ry
     Harris-Foulkes estimate   =   -1868.77598630 Ry
     estimated scf accuracy    <       0.00078318 Ry

     iteration # 27     ecut=    60.00 Ry     beta= 0.20
     Davidson diagonalization with overlap
     ethr =  3.42E-07,  avg # of iterations =  2.2

     negative rho (up, down):  9.057E-02 0.000E+00

     total cpu time spent up to now is      745.0 secs

     total energy              =   -1868.77598235 Ry
     Harris-Foulkes estimate   =   -1868.77598045 Ry
     estimated scf accuracy    <       0.00033618 Ry

     iteration # 28     ecut=    60.00 Ry     beta= 0.20
     Davidson diagonalization with overlap
     ethr =  1.47E-07,  avg # of iterations =  2.9

     negative rho (up, down):  9.100E-02 0.000E+00

     total cpu time spent up to now is      762.1 secs

     total energy              =   -1868.77599062 Ry
     Harris-Foulkes estimate   =   -1868.77598905 Ry
     estimated scf accuracy    <       0.00029199 Ry

     iteration # 29     ecut=    60.00 Ry     beta= 0.20
     Davidson diagonalization with overlap
     ethr =  1.28E-07,  avg # of iterations =  2.5

     negative rho (up, down):  9.093E-02 0.000E+00

     total cpu time spent up to now is      778.1 secs

     total energy              =   -1868.77599971 Ry
     Harris-Foulkes estimate   =   -1868.77599497 Ry
     estimated scf accuracy    <       0.00024009 Ry

     iteration # 30     ecut=    60.00 Ry     beta= 0.20
     Davidson diagonalization with overlap
     ethr =  1.05E-07,  avg # of iterations =  3.3

     negative rho (up, down):  9.114E-02 0.000E+00

     total cpu time spent up to now is      805.4 secs

     total energy              =   -1868.77600413 Ry
     Harris-Foulkes estimate   =   -1868.77600489 Ry
     estimated scf accuracy    <       0.00010571 Ry

     iteration # 31     ecut=    60.00 Ry     beta= 0.20
     Davidson diagonalization with overlap
     ethr =  4.62E-08,  avg # of iterations =  2.6

     negative rho (up, down):  9.119E-02 0.000E+00

     total cpu time spent up to now is      821.2 secs

     total energy              =   -1868.77600903 Ry
     Harris-Foulkes estimate   =   -1868.77600639 Ry
     estimated scf accuracy    <       0.00003393 Ry

     iteration # 32     ecut=    60.00 Ry     beta= 0.20
     Davidson diagonalization with overlap
     ethr =  1.48E-08,  avg # of iterations =  2.5

     negative rho (up, down):  9.071E-02 0.000E+00

     total cpu time spent up to now is      837.3 secs

     total energy              =   -1868.77600445 Ry
     Harris-Foulkes estimate   =   -1868.77600978 Ry
     estimated scf accuracy    <       0.00001784 Ry

     iteration # 33     ecut=    60.00 Ry     beta= 0.20
     Davidson diagonalization with overlap
     ethr =  7.79E-09,  avg # of iterations =  2.1

     negative rho (up, down):  9.070E-02 0.000E+00

     total cpu time spent up to now is      863.8 secs

     total energy              =   -1868.77600207 Ry
     Harris-Foulkes estimate   =   -1868.77600513 Ry
     estimated scf accuracy    <       0.00000843 Ry

     iteration # 34     ecut=    60.00 Ry     beta= 0.20
     Davidson diagonalization with overlap
     ethr =  3.68E-09,  avg # of iterations =  2.6

     negative rho (up, down):  9.061E-02 0.000E+00

     total cpu time spent up to now is      880.2 secs

     total energy              =   -1868.77600300 Ry
     Harris-Foulkes estimate   =   -1868.77600276 Ry
     estimated scf accuracy    <       0.00000296 Ry

     iteration # 35     ecut=    60.00 Ry     beta= 0.20
     Davidson diagonalization with overlap
     ethr =  1.29E-09,  avg # of iterations =  1.0

     negative rho (up, down):  9.052E-02 0.000E+00

     total cpu time spent up to now is      906.4 secs

     total energy              =   -1868.77600319 Ry
     Harris-Foulkes estimate   =   -1868.77600312 Ry
     estimated scf accuracy    <       0.00000137 Ry

     iteration # 36     ecut=    60.00 Ry     beta= 0.20
     Davidson diagonalization with overlap
     ethr =  5.98E-10,  avg # of iterations =  2.0

     negative rho (up, down):  9.053E-02 0.000E+00

     total cpu time spent up to now is      921.4 secs

     End of self-consistent calculation

          k = 0.0000 0.0000 0.0000 ( 36815 PWs)   bands (ev):

   -38.3294 -38.0013 -24.1390 -22.9842 -22.9571 -22.8804 -18.8646 -18.5065
   -18.3339 -18.3244 -18.0241 -18.0073 -15.6606 -15.3900 -14.9295 -14.7011
   -14.4831 -14.4690 -14.4459 -14.3000 -14.2751 -14.1846 -13.9670 -13.9631
   -13.8336 -13.7336 -13.6984  -9.4424  -8.9720  -8.9507  -8.2078  -8.1724
    -8.1558  -7.9766  -7.9515  -7.9499  -7.9238  -7.8339  -7.8115  -2.2891
    -2.2551  -2.1207  -2.0851  -2.0732  -2.0700  -2.0682  -2.0079  -1.9997
    -1.9241  -1.9117  -1.6973  -1.5670  -1.1379  -1.0910  -0.8129  -0.7542
    -0.6748  -0.6685  -0.6667  -0.6127  -0.3154  -0.2778  -0.2758  -0.2411
    -0.2387  -0.1337  -0.1301  -0.0763  -0.0755  -0.0612   0.0220   0.0760
     0.0818   0.0824   0.1610   0.1615   0.1731   0.1884   0.2034   0.2308
     0.2806   0.3255   0.3283   0.3366   0.3546   0.4508   0.4536   0.5861
     0.6340   0.7477   0.8102   0.8754   1.0221   1.0223   1.0614   1.1468
     1.1480   1.1864   1.1867   1.1952   1.2727   1.2952   1.3419   1.3510
     1.5753   1.6475   1.6972   1.7517   1.7772   1.8187   1.8357   1.9756
     1.9982   2.0173   2.1014   2.1466   2.1820   2.4581   2.4613   4.2911
     5.0528   5.0827   5.2357   5.6216   5.8066   6.2505   6.4757   6.5147
     6.9012   7.2752   7.5870   7.6240   7.9251   7.9690   8.0540   8.1772
     8.2501   8.4059

          k = 0.0000 0.1281 0.0000 ( 36867 PWs)   bands (ev):

   -38.3271 -37.9990 -24.1210 -22.9627 -22.9355 -22.8596 -18.8286 -18.4705
   -18.4288 -18.3307 -18.1119 -18.0209 -15.5518 -15.2901 -14.8830 -14.7094
   -14.4987 -14.4783 -14.4153 -14.3021 -14.2466 -14.2307 -13.9723 -13.9694
   -13.9009 -13.7650 -13.7612  -9.4284  -8.9842  -8.9178  -8.1900  -8.1560
    -8.1450  -7.9694  -7.9434  -7.9354  -7.9102  -7.8314  -7.7952  -2.3916
    -2.3631  -2.3215  -2.2398  -2.0695  -2.0505  -2.0439  -2.0234  -1.9926
    -1.9290  -1.9086  -1.7089  -1.6599  -1.5519  -1.1920  -1.1864  -1.0756
    -1.0363  -0.7483  -0.6669  -0.6416  -0.5916  -0.5724  -0.4790  -0.3888
    -0.3293  -0.3261  -0.3099  -0.2801  -0.2339  -0.2203  -0.1121  -0.0792
     0.0415   0.0793   0.0861   0.2207   0.2333   0.3181   0.3316   0.3334
     0.3367   0.3402   0.3876   0.4165   0.4947   0.5735   0.6359   0.6399
     0.6724   0.7106   0.8312   0.8609   0.9262   0.9465   0.9501   1.1221
     1.1489   1.2575   1.3079   1.3094   1.3301   1.4070   1.4199   1.4656
     1.5170   1.5868   1.6597   1.7199   1.7533   1.7941   1.8166   1.9277
     1.9512   1.9998   2.2472   2.3593   2.6777   2.7797   2.7937   4.4899
     5.4240   5.4493   5.5159   5.9003   6.0624   6.4425   6.7914   6.8281
     7.1520   7.5166   7.7153   7.8557   7.9085   8.0248   8.1301   8.1881
     8.3224   8.4517

          k = 0.0000 0.2563 0.0000 ( 36890 PWs)   bands (ev):

   -38.3215 -37.9933 -24.0767 -22.9096 -22.8823 -22.8086 -18.7375 -18.6539
   -18.3842 -18.3323 -18.3229 -18.0131 -15.3037 -15.0722 -14.7853 -14.7602
   -14.5864 -14.5357 -14.3575 -14.3496 -14.2965 -14.1410 -14.0705 -13.9531
   -13.9495 -13.9203 -13.7982  -9.3888  -9.0129  -8.8364  -8.1483  -8.1162
    -8.1160  -8.0105  -7.9846  -7.8748  -7.8321  -7.8067  -7.6986  -2.8206
    -2.7381  -2.7003  -2.5790  -2.3301  -2.2183  -2.2109  -2.0982  -2.0059
    -1.9513  -1.9476  -1.9258  -1.8678  -1.8558  -1.6529  -1.5139  -1.5028
    -1.0855  -1.0011  -0.9852  -0.8827  -0.8079  -0.7331  -0.6927  -0.6411
    -0.6068  -0.5576  -0.5539  -0.5524  -0.5004  -0.3845  -0.3265  -0.2630
    -0.2577  -0.1279  -0.0746   0.0403   0.1144   0.1787   0.2332   0.2689
     0.3667   0.3720   0.3906   0.4004   0.4595   0.5585   0.7451   0.7954
     0.8657   0.8676   0.9460   0.9786   1.0596   1.1314   1.1565   1.2408
     1.3000   1.3002   1.3074   1.3838   1.4055   1.4895   1.5110   1.5183
     1.5900   1.6175   1.6179   1.7599   1.8728   1.8961   2.0341   2.0507
     2.0548   2.0666   2.4136   2.5089   3.0757   3.0854   3.5313   4.9771
     6.2158   6.3372   6.3380   6.5870   6.6885   6.8351   7.5611   7.6463
     7.6806   7.7784   7.8438   8.0431   8.0550   8.3426   8.4223   8.5551
     8.5728   8.6649

          k = 0.0000 0.3844 0.0000 ( 36778 PWs)   bands (ev):

   -38.3159 -37.9877 -24.0316 -22.8551 -22.8278 -22.7562 -18.8517 -18.6392
   -18.5386 -18.3152 -18.2772 -18.0053 -15.0541 -14.9278 -14.8957 -14.6960
   -14.6484 -14.5947 -14.4496 -14.3234 -14.2996 -14.2617 -14.0581 -14.0132
   -13.8997 -13.8905 -13.8214  -9.3376  -9.0456  -8.7518  -8.1089  -8.0818
    -8.0758  -8.0435  -8.0179  -7.9145  -7.7231  -7.6975  -7.5970  -3.3232
    -3.1756  -3.1126  -2.9512  -2.7779  -2.7744  -2.6582  -2.1263  -2.1219
    -2.0542  -2.0069  -1.8916  -1.7883  -1.7621  -1.7611  -1.7462  -1.4443
    -1.2612  -1.1514  -1.1396  -1.0492  -1.0003  -0.9523  -0.9399  -0.9399
    -0.7990  -0.7918  -0.7140  -0.6976  -0.6412  -0.5617  -0.5065  -0.5013
    -0.4647  -0.3011  -0.2531  -0.1316  -0.1131  -0.0280   0.0900   0.2224
     0.3473   0.3665   0.4145   0.4232   0.4793   0.6633   0.7202   0.8414
     0.8709   0.8869   0.9970   1.0632   1.1536   1.1800   1.2240   1.2525
     1.3168   1.3544   1.3737   1.4560   1.5041   1.5553   1.6980   1.7733
     1.8082   1.9025   1.9108   1.9580   2.0034   2.0212   2.0575   2.1283
     2.3915   2.4542   2.4572   2.4623   3.0478   3.0544   4.0874   5.5976
     6.4640   7.1643   7.2590   7.2769   7.4321   7.5707   7.6659   7.8227
     7.9400   8.1066   8.3873   8.4878   8.5610   8.7060   8.7349   8.8599
     8.9803   9.1805

          k = 0.0000-0.5125 0.0000 ( 36914 PWs)   bands (ev):

   -38.3135 -37.9854 -24.0126 -22.8320 -22.8047 -22.7341 -18.9277 -18.6144
   -18.5960 -18.3119 -18.2340 -18.0020 -15.0083 -14.9224 -14.8768 -14.7103
   -14.6946 -14.4987 -14.4504 -14.4321 -14.3341 -14.2803 -14.1017 -13.9317
   -13.8632 -13.8615 -13.8592  -9.3109  -9.0629  -8.7157  -8.0936  -8.0640
    -8.0591  -8.0551  -8.0296  -7.9316  -7.6760  -7.6503  -7.5533  -3.5659
    -3.3235  -3.2638  -3.0850  -3.0140  -3.0062  -2.7911  -2.1610  -2.1562
    -2.1107  -2.0733  -1.8796  -1.8460  -1.7452  -1.6906  -1.5529  -1.5257
    -1.3263  -1.2444  -1.2381  -1.1958  -1.1351  -1.0389  -0.9784  -0.9098
    -0.9033  -0.8917  -0.8162  -0.7344  -0.6321  -0.5937  -0.5884  -0.5694
    -0.5554  -0.5272  -0.2973  -0.2110  -0.1469  -0.1011   0.0191   0.2934
     0.3363   0.3393   0.3530   0.4205   0.4288   0.7044   0.7552   0.8932
     0.8947   0.9241   0.9449   1.1471   1.1599   1.2250   1.2820   1.3258
     1.3289   1.3304   1.3368   1.4412   1.5139   1.5414   1.8258   1.8471
     1.9121   1.9311   1.9655   2.0495   2.1517   2.2115   2.2611   2.3162
     2.3205   2.3264   2.6193   2.6247   2.9116   2.9171   4.2734   6.0470
     6.2854   7.3356   7.5620   7.6233   7.7181   7.7268   7.8965   7.9404
     8.0890   8.0978   8.6846   8.7367   8.8063   8.9760   8.9877   9.0450
     9.1703   9.2778

          k = 0.1250 0.0000 0.0000 ( 36852 PWs)   bands (ev):

   -38.3276 -37.9995 -24.1240 -22.9658 -22.9386 -22.8627 -18.8321 -18.4733
   -18.4340 -18.3219 -18.1259 -18.0048 -15.5452 -15.2806 -14.9536 -14.7274
   -14.5385 -14.5168 -14.4240 -14.3307 -14.2464 -14.2141 -13.9676 -13.9658
   -13.8933 -13.7429 -13.7305  -9.4639  -8.9454  -8.9101  -8.2176  -8.1829
    -8.1747  -7.9415  -7.9164  -7.9156  -7.8894  -7.7965  -7.7793  -2.3790
    -2.2908  -2.2795  -2.2057  -2.0555  -2.0354  -2.0333  -1.9993  -1.9890
    -1.9453  -1.8987  -1.6961  -1.6848  -1.1625  -1.0792  -0.7977  -0.7924
    -0.7545  -0.6693  -0.6628  -0.6612  -0.5104  -0.3840  -0.3624  -0.3566
    -0.3505  -0.3098  -0.2610  -0.2574  -0.1547  -0.1176  -0.0902  -0.0860
    -0.0268   0.1755   0.1814   0.1935   0.1982   0.2664   0.3035   0.3038
     0.3136   0.3368   0.3377   0.3481   0.4479   0.4504   0.4610   0.4699
     0.7392   0.7589   0.8003   0.8277   0.8829   0.9431   1.0349   1.0393
     1.0444   1.0582   1.1873   1.2341   1.2804   1.3175   1.3600   1.5114
     1.5522   1.5545   1.6185   1.7588   1.8419   1.8868   1.8995   1.9224
     1.9565   2.0702   2.1297   2.2306   2.3818   2.5019   2.5048   4.4684
     5.2568   5.2702   5.4219   5.8515   6.0347   6.3916   6.7152   6.7497
     7.1180   7.4868   7.7975   7.8730   7.9496   8.0632   8.1687   8.2286
     8.3249   8.5880

          k = 0.1250 0.1281 0.0000 ( 36854 PWs)   bands (ev):

   -38.3253 -37.9972 -24.1064 -22.9450 -22.9178 -22.8426 -18.7966 -18.4379
   -18.4377 -18.4168 -18.1270 -18.1027 -15.4373 -15.1840 -14.9046 -14.7253
   -14.5384 -14.5134 -14.3962 -14.2927 -14.2674 -14.2611 -13.9669 -13.9655
   -13.9407 -13.7859 -13.7694  -9.4432  -9.0951  -8.7940  -8.2033  -8.1712
    -8.1617  -8.0893  -8.0633  -7.9497  -7.7917  -7.7662  -7.6590  -2.4855
    -2.4279  -2.4091  -2.2380  -2.1145  -2.0880  -2.0464  -2.0287  -2.0045
    -1.9971  -1.8683  -1.7502  -1.6735  -1.6362  -1.1875  -1.1806  -1.1273
    -0.9899  -0.8402  -0.7596  -0.7395  -0.6788  -0.6534  -0.6063  -0.5619
    -0.5345  -0.4992  -0.3571  -0.3237  -0.3007  -0.1359  -0.0602  -0.0383
     0.0032   0.0708   0.0918   0.1844   0.2426   0.2659   0.3055   0.3131
     0.3368   0.3869   0.3881   0.4064   0.4671   0.5290   0.5637   0.6370
     0.6396   0.7808   0.8975   0.9387   0.9862   0.9928   1.0261   1.0325
     1.0846   1.1272   1.2527   1.2863   1.3310   1.3589   1.3948   1.4724
     1.5284   1.6040   1.6355   1.6553   1.6933   1.7155   1.8969   1.9748
     2.2739   2.3163   2.4836   2.6707   2.6950   2.7961   2.8052   4.6401
     5.5825   5.5913   5.6727   6.0871   6.2566   6.5417   7.0204   7.0531
     7.3506   7.6616   7.7628   7.8497   7.9531   8.0630   8.2028   8.2744
     8.4236   8.4742

          k = 0.1250 0.2563 0.0000 ( 36914 PWs)   bands (ev):

   -38.3197 -37.9915 -24.0635 -22.8938 -22.8665 -22.7932 -18.7067 -18.6493
   -18.4183 -18.3583 -18.3220 -18.1101 -15.1917 -14.9788 -14.7745 -14.7695
   -14.5733 -14.5369 -14.3530 -14.3359 -14.3326 -14.1794 -14.0671 -13.9439
   -13.9408 -13.9192 -13.8002  -9.3944  -9.2013  -8.7600  -8.2132  -8.1871
    -8.1480  -8.1253  -8.1169  -8.0603  -7.7477  -7.7221  -7.6223  -2.9209
    -2.8146  -2.7206  -2.5828  -2.3529  -2.2379  -2.2174  -2.1448  -2.0698
    -2.0430  -1.9852  -1.9413  -1.9405  -1.8060  -1.7128  -1.5907  -1.5196
    -1.1654  -1.0684  -1.0243  -1.0066  -0.9571  -0.9353  -0.8807  -0.7874
    -0.7254  -0.6729  -0.5459  -0.4941  -0.4774  -0.4005  -0.3120  -0.2529
    -0.1283  -0.0581  -0.0180   0.1479   0.1800   0.1863   0.2477   0.2575
     0.3255   0.3635   0.4198   0.4226   0.4824   0.5575   0.6124   0.7766
     0.9969   1.0109   1.0210   1.0904   1.0996   1.1648   1.1878   1.1924
     1.2296   1.3136   1.3512   1.4026   1.4199   1.4512   1.5007   1.5092
     1.5295   1.6485   1.6903   1.7314   1.8687   2.0227   2.0254   2.0439
     2.5141   2.5739   2.7553   2.9014   3.0804   3.1016   3.5341   5.1020
     6.2446   6.3908   6.3933   6.6845   6.7265   6.9360   7.5023   7.6277
     7.8452   7.8700   7.8802   8.0096   8.1919   8.3039   8.4074   8.5841
     8.6064   8.6464

          k = 0.1250 0.3844 0.0000 ( 36899 PWs)   bands (ev):

   -38.3141 -37.9859 -24.0196 -22.8413 -22.8139 -22.7426 -18.8457 -18.6098
   -18.5324 -18.4084 -18.2471 -18.1001 -14.9522 -14.8830 -14.8365 -14.6231
   -14.6178 -14.5885 -14.4310 -14.3591 -14.3006 -14.2336 -14.0474 -14.0390
   -13.8943 -13.8865 -13.8129  -9.3442  -9.2110  -8.8143  -8.2179  -8.1922
    -8.1178  -8.0917  -8.0860  -8.0777  -7.7957  -7.7701  -7.6693  -3.3356
    -3.2632  -3.2025  -3.0035  -2.7721  -2.7643  -2.6983  -2.1583  -2.1419
    -2.0873  -1.9808  -1.9673  -1.9114  -1.8789  -1.7115  -1.6743  -1.6136
    -1.4718  -1.3794  -1.3501  -1.2282  -1.1142  -1.0987  -1.0520  -0.9043
    -0.8602  -0.7156  -0.6833  -0.6433  -0.6037  -0.5407  -0.5314  -0.4990
    -0.3941  -0.1538  -0.0518   0.0423   0.0620   0.1575   0.1979   0.2807
     0.3541   0.3849   0.4148   0.4464   0.4927   0.5606   0.7845   0.8248
     0.9284   1.0373   1.0429   1.0608   1.2128   1.2430   1.2995   1.3087
     1.3557   1.3755   1.3993   1.4348   1.5130   1.6253   1.6837   1.7411
     1.8284   1.9194   1.9506   2.0387   2.0434   2.1297   2.4320   2.4363
     2.5419   2.6120   2.7753   2.8754   3.0722   3.1035   4.0844   5.6916
     6.2716   7.0849   7.1422   7.2033   7.3325   7.3871   7.5707   7.6607
     7.8926   8.2165   8.3978   8.4310   8.6619   8.8318   8.8550   8.9504
     9.0187   9.1363

          k = 0.1250-0.5125 0.0000 ( 36892 PWs)   bands (ev):

   -38.3118 -37.9836 -24.0011 -22.8191 -22.7917 -22.7213 -18.9213 -18.6079
   -18.5673 -18.4043 -18.2045 -18.0959 -14.9676 -14.8318 -14.8050 -14.6754
   -14.5945 -14.4782 -14.4313 -14.4078 -14.3412 -14.3037 -14.0753 -13.9711
   -13.8627 -13.8580 -13.8369  -9.3190  -9.1917  -8.8621  -8.1926  -8.1670
    -8.1048  -8.0753  -8.0717  -8.0619  -7.8437  -7.8182  -7.7119  -3.5578
    -3.4360  -3.3569  -3.1439  -3.0100  -3.0005  -2.8411  -2.1760  -2.1652
    -2.0911  -1.9861  -1.9239  -1.8535  -1.8021  -1.7495  -1.7235  -1.6314
    -1.6221  -1.5942  -1.3698  -1.2978  -1.2558  -1.1759  -1.1366  -0.9643
    -0.8225  -0.7813  -0.7550  -0.6986  -0.6418  -0.5914  -0.5323  -0.5249
    -0.5125  -0.1914  -0.0855  -0.0528   0.0547   0.1518   0.1552   0.2981
     0.3520   0.4028   0.4046   0.4924   0.4964   0.5493   0.6171   0.9393
     0.9905   1.0345   1.0636   1.1299   1.1963   1.2249   1.3222   1.3300
     1.3618   1.3891   1.4342   1.4760   1.4762   1.6580   1.7829   1.9088
     1.9579   2.0194   2.1384   2.1858   2.3129   2.3195   2.5067   2.5772
     2.5987   2.6037   2.6923   2.7626   2.9687   3.0151   4.2688   5.9306
     6.4117   6.9848   7.2882   7.3619   7.3913   7.4648   7.5997   7.8706
     8.1791   8.2102   8.8453   8.8992   8.9420   9.0885   9.1113   9.2628
     9.3080   9.3626

          k = 0.2500 0.0000 0.0000 ( 36946 PWs)   bands (ev):

   -38.3232 -37.9951 -24.0873 -22.9206 -22.8934 -22.8193 -18.7504 -18.6489
   -18.3902 -18.3431 -18.3158 -17.9986 -15.2811 -15.0495 -15.0251 -14.8348
   -14.6720 -14.6277 -14.4330 -14.3866 -14.2492 -14.1628 -14.0365 -13.9656
   -13.9618 -13.7909 -13.7527  -9.4924  -8.8796  -8.8360  -8.2274  -8.1967
    -8.1942  -7.8716  -7.8467  -7.8303  -7.8039  -7.7335  -7.6995  -2.6872
    -2.6165  -2.5959  -2.1771  -2.0996  -2.0861  -2.0612  -2.0229  -1.9537
    -1.9230  -1.8611  -1.6484  -1.6392  -1.2333  -1.1698  -0.9478  -0.9453
    -0.8951  -0.8587  -0.7469  -0.7054  -0.6785  -0.6507  -0.6479  -0.6239
    -0.5634  -0.5630  -0.5405  -0.3833  -0.3611  -0.2164  -0.1490  -0.1076
    -0.0661   0.0508   0.0699   0.0704   0.1556   0.1793   0.2464   0.2473
     0.3048   0.3128   0.3740   0.4635   0.4787   0.4825   0.4874   0.5807
     0.6190   0.7015   0.8227   0.8835   0.9085   0.9097   0.9622   0.9982
     1.0910   1.1922   1.2681   1.3264   1.3368   1.3428   1.3839   1.3852
     1.4767   1.5494   1.5730   1.7456   1.7960   1.8136   1.9140   1.9457
     2.0096   2.0708   2.2748   2.4154   2.5397   2.6419   2.6704   4.9095
     5.7149   5.7168   5.9177   6.4453   6.6063   6.8054   7.3472   7.3761
     7.6701   7.8102   7.9040   7.9806   8.1786   8.1909   8.3378   8.5766
     8.6487   8.7379

          k = 0.2500 0.1281 0.0000 ( 36930 PWs)   bands (ev):

   -38.3209 -37.9928 -24.0710 -22.9017 -22.8744 -22.8008 -18.7162 -18.6431
   -18.4159 -18.3579 -18.3354 -18.0989 -15.1760 -14.9686 -14.9683 -14.8074
   -14.6328 -14.6030 -14.3928 -14.3571 -14.3147 -14.1765 -14.0425 -13.9545
   -13.9514 -13.8218 -13.7765  -9.4730  -9.1327  -8.7314  -8.2329  -8.2034
    -8.1950  -8.1167  -8.0898  -7.9812  -7.7176  -7.6920  -7.5952  -2.8255
    -2.7167  -2.6416  -2.2310  -2.1820  -2.1449  -2.1217  -2.0734  -2.0429
    -2.0134  -1.8314  -1.7867  -1.7000  -1.5633  -1.2476  -1.1849  -1.1831
    -1.1743  -1.0648  -1.0341  -1.0068  -0.8887  -0.8849  -0.8396  -0.7428
    -0.6750  -0.5931  -0.5643  -0.4453  -0.3618  -0.2078  -0.0893  -0.0308
     0.0291   0.0327   0.0639   0.1434   0.1703   0.1836   0.2329   0.2699
     0.2966   0.3214   0.4969   0.5128   0.5166   0.5300   0.5913   0.6480
     0.6483   0.7876   0.8365   1.0110   1.0277   1.0876   1.0908   1.1242
     1.1449   1.2042   1.2239   1.2951   1.3214   1.3317   1.3568   1.4793
     1.5344   1.5380   1.5825   1.7492   1.7553   1.7894   1.8787   2.0040
     2.5677   2.6320   2.7369   2.7977   2.8375   2.8939   3.0203   5.0484
     5.9573   5.9582   6.0662   6.5848   6.6837   6.8864   7.5973   7.6347
     7.6581   7.6869   7.7867   7.9336   8.1166   8.1828   8.4932   8.5960
     8.6994   8.7827

          k = 0.2500 0.2563 0.0000 ( 36939 PWs)   bands (ev):

   -38.3154 -37.9872 -24.0311 -22.8552 -22.8278 -22.7556 -18.6497 -18.6301
   -18.6131 -18.3417 -18.3066 -18.2616 -14.9438 -14.8160 -14.8148 -14.7537
   -14.5531 -14.5446 -14.4580 -14.3108 -14.2906 -14.2196 -14.0679 -13.9220
   -13.9191 -13.9090 -13.7906  -9.4411  -9.3733  -8.8212  -8.4194  -8.3936
    -8.2750  -8.1657  -8.1352  -8.1301  -7.8149  -7.7893  -7.6917  -3.2461
    -3.0925  -2.8679  -2.5703  -2.4824  -2.3221  -2.2741  -2.2517  -2.1707
    -2.1601  -2.0078  -1.9729  -1.9525  -1.9501  -1.6877  -1.6039  -1.5843
    -1.5312  -1.4653  -1.4288  -1.1418  -1.0548  -0.9527  -0.9374  -0.9083
    -0.7802  -0.7414  -0.5529  -0.5055  -0.4317  -0.3747  -0.3516  -0.2758
    -0.2224  -0.0987  -0.0223   0.1022   0.1324   0.2308   0.3537   0.3839
     0.4640   0.4905   0.5067   0.5564   0.5919   0.6567   0.8425   1.0370
     1.0409   1.0999   1.1775   1.1829   1.1834   1.1931   1.1997   1.2828
     1.3150   1.3254   1.3748   1.3862   1.4080   1.5241   1.5593   1.6109
     1.6629   1.7466   1.7576   1.8179   1.9398   1.9494   1.9845   2.1032
     3.0497   3.0526   3.1798   3.2535   3.3690   3.5331   3.5436   5.4538
     6.0037   6.4702   6.4801   6.8531   6.9448   7.1826   7.4081   7.4256
     7.9593   8.1294   8.1417   8.1682   8.3655   8.5625   8.5998   8.7211
     8.8168   8.8954

          k = 0.2500 0.3844 0.0000 ( 36955 PWs)   bands (ev):

   -38.3098 -37.9816 -23.9904 -22.8076 -22.7802 -22.7094 -18.8313 -18.6133
   -18.5347 -18.5177 -18.3073 -18.1709 -14.8203 -14.7248 -14.6926 -14.5971
   -14.5318 -14.5089 -14.4722 -14.3890 -14.2463 -14.1530 -14.0917 -13.9928
   -13.8817 -13.8753 -13.7732  -9.5112  -9.3630  -9.0396  -8.5261  -8.5003
    -8.3739  -8.1447  -8.1177  -8.1136  -8.0516  -8.0263  -7.9142  -3.6604
    -3.5056  -3.2789  -3.1722  -2.8661  -2.7386  -2.7379  -2.3479  -2.2962
    -2.2490  -2.0576  -2.0531  -2.0513  -2.0193  -1.9511  -1.8897  -1.8311
    -1.6379  -1.5184  -1.4970  -1.3426  -1.1837  -1.0607  -1.0344  -0.9244
    -0.7878  -0.7779  -0.7101  -0.5956  -0.5538  -0.5169  -0.4795  -0.4726
    -0.3225  -0.2727  -0.0920   0.1178   0.2093   0.2231   0.4426   0.4722
     0.5136   0.5736   0.6277   0.6829   0.7641   0.8577   1.0960   1.1141
     1.1195   1.1415   1.2174   1.3333   1.3673   1.3814   1.3966   1.4750
     1.4929   1.5040   1.5552   1.5647   1.6157   1.6182   1.7205   1.7827
     1.8823   1.8983   1.9177   2.0618   2.0701   2.1355   2.3660   2.3702
     2.9791   2.9794   3.4577   3.5457   3.6367   3.7803   4.0725   5.5664
     6.0617   6.6359   6.6522   6.9201   6.9369   7.1291   7.6835   7.7473
     7.9930   8.3889   8.4974   8.5383   8.7785   9.0161   9.0904   9.2533
     9.2714   9.4669

          k = 0.2500-0.5125 0.0000 ( 36998 PWs)   bands (ev):

   -38.3075 -37.9793 -23.9733 -22.7876 -22.7602 -22.6900 -18.9058 -18.6075
   -18.5922 -18.4940 -18.3016 -18.1298 -14.8642 -14.7129 -14.5887 -14.5435
   -14.4932 -14.4385 -14.4339 -14.4267 -14.3018 -14.2274 -14.0098 -14.0076
   -13.8599 -13.8545 -13.7718  -9.4993  -9.3447  -9.1784  -8.5107  -8.4849
    -8.3666  -8.2110  -8.1856  -8.1322  -8.1110  -8.0994  -8.0500  -3.8240
    -3.6719  -3.5126  -3.3402  -3.0357  -2.9767  -2.9703  -2.3411  -2.2878
    -2.2174  -2.2160  -2.0580  -2.0546  -2.0468  -2.0064  -1.9494  -1.9051
    -1.6642  -1.5861  -1.5365  -1.3661  -1.2524  -1.0831  -1.0709  -0.9004
    -0.8055  -0.7996  -0.7789  -0.6711  -0.6174  -0.5771  -0.5196  -0.4548
    -0.3651  -0.2881  -0.1083   0.1204   0.2143   0.2737   0.4755   0.5235
     0.5253   0.6091   0.6767   0.6879   0.8553   0.9682   1.0147   1.1960
     1.1994   1.2306   1.2370   1.3872   1.3933   1.4195   1.4678   1.4729
     1.4820   1.5523   1.5731   1.6239   1.6766   1.7142   1.7847   1.8822
     1.9260   1.9732   2.0913   2.1355   2.3087   2.3143   2.5441   2.5487
     2.8206   2.8216   3.5153   3.6077   3.6910   3.8272   4.2480   5.3861
     6.5753   6.5883   6.6497   6.6928   6.8661   7.0027   7.5090   7.9547
     8.2390   8.3739   9.0922   9.1038   9.1478   9.1536   9.1543   9.3549
     9.4682   9.5653

          k = 0.3750 0.0000 0.0000 ( 36982 PWs)   bands (ev):

   -38.3188 -37.9907 -24.0499 -22.8743 -22.8470 -22.7748 -18.8380 -18.6617
   -18.5353 -18.3098 -18.2982 -17.9925 -15.1174 -15.0394 -14.9520 -14.9512
   -14.7434 -14.6971 -14.5521 -14.3931 -14.2419 -14.1683 -14.0772 -13.9540
   -13.9502 -13.8307 -13.7628  -9.4996  -8.8116  -8.7852  -8.2284  -8.1972
    -8.1958  -7.8123  -7.7878  -7.7410  -7.7142  -7.6942  -7.6161  -3.0107
    -2.9312  -2.8607  -2.4905  -2.1679  -2.1588  -2.0352  -1.8991  -1.8340
    -1.8334  -1.7833  -1.6358  -1.5384  -1.3210  -1.2049  -1.1446  -1.1342
    -1.0147  -1.0137  -1.0106  -0.9732  -0.9226  -0.8890  -0.7868  -0.7840
    -0.6918  -0.6476  -0.6401  -0.6325  -0.4202  -0.4061  -0.3072  -0.2415
    -0.1922  -0.1247  -0.1190  -0.0578   0.1712   0.2149   0.2643   0.2716
     0.2913   0.2994   0.4457   0.4839   0.5228   0.5355   0.5446   0.5775
     0.5802   0.7048   0.7249   0.8946   0.9386   1.0429   1.0559   1.1066
     1.1448   1.1961   1.2737   1.2838   1.3282   1.3428   1.3876   1.4032
     1.6108   1.6599   1.7122   1.7225   1.7873   1.7890   1.9368   2.0033
     2.0721   2.1301   2.3024   2.4533   2.5209   2.7480   2.7536   5.5010
     6.3371   6.3538   6.3586   6.9806   7.0741   7.4718   7.6115   7.8529
     7.8601   7.8643   8.0684   8.1310   8.3012   8.5028   8.5698   8.7451
     8.7749   8.9318

          k = 0.3750 0.1281 0.0000 ( 36902 PWs)   bands (ev):

   -38.3166 -37.9884 -24.0349 -22.8573 -22.8300 -22.7581 -18.8308 -18.6287
   -18.5279 -18.4081 -18.2655 -18.0908 -15.0511 -14.9741 -14.9002 -14.8686
   -14.7000 -14.6252 -14.4994 -14.3587 -14.3093 -14.1413 -14.0676 -13.9389
   -13.9338 -13.8414 -13.7907  -9.4821  -9.0724  -8.7894  -8.2280  -8.1975
    -8.1975  -8.0591  -8.0331  -7.9243  -7.7736  -7.7479  -7.6566  -3.1585
    -3.0421  -2.9159  -2.5466  -2.2000  -2.1732  -2.1148  -2.0288  -2.0020
    -1.9648  -1.7544  -1.7411  -1.7074  -1.5345  -1.4943  -1.4315  -1.3960
    -1.3027  -1.1809  -1.1800  -1.0628  -1.0291  -0.9748  -0.9059  -0.8584
    -0.7782  -0.7281  -0.6652  -0.5394  -0.5351  -0.2922  -0.2217  -0.1236
    -0.0527  -0.0290   0.0504   0.1060   0.1296   0.1978   0.2046   0.2357
     0.2937   0.3995   0.4789   0.5897   0.5906   0.6289   0.6963   0.7026
     0.7173   0.7636   0.9191   0.9728   0.9960   1.0564   1.0853   1.1761
     1.1996   1.2049   1.2675   1.2715   1.3340   1.4210   1.4350   1.4381
     1.5882   1.6331   1.7170   1.7527   1.7670   1.9263   1.9681   1.9981
     2.6777   2.7271   2.7659   2.8256   2.8730   3.0478   3.1392   5.6168
     6.2443   6.4759   6.4805   6.8142   7.1470   7.4689   7.5111   7.6325
     7.7491   7.9280   7.9309   8.2444   8.4785   8.6237   8.7323   8.7976
     8.9341   8.9794

          k = 0.3750 0.2563 0.0000 ( 36937 PWs)   bands (ev):

   -38.3111 -37.9828 -23.9981 -22.8158 -22.7884 -22.7173 -18.8133 -18.6234
   -18.5454 -18.5101 -18.3099 -18.1787 -14.8774 -14.8401 -14.7737 -14.6816
   -14.5621 -14.5131 -14.4750 -14.3826 -14.2760 -14.0782 -14.0585 -13.9002
   -13.8962 -13.8866 -13.7966  -9.4852  -9.3975  -9.0263  -8.4685  -8.4426
    -8.3283  -8.1842  -8.1534  -8.1446  -8.0423  -8.0171  -7.9126  -3.5981
    -3.4295  -3.1465  -2.7714  -2.5424  -2.3857  -2.3318  -2.2818  -2.1754
    -2.1710  -2.0565  -2.0536  -2.0165  -1.9618  -1.9565  -1.8897  -1.8044
    -1.5045  -1.4641  -1.4414  -1.2610  -1.0220  -0.9772  -0.8855  -0.8600
    -0.8328  -0.7754  -0.6613  -0.5036  -0.4893  -0.4259  -0.3900  -0.3668
    -0.2196  -0.2127  -0.1224   0.2028   0.2265   0.3073   0.4330   0.5171
     0.5567   0.6541   0.6641   0.7380   0.7510   0.8765   1.0671   1.0932
     1.1021   1.1675   1.1691   1.2269   1.2457   1.2778   1.2971   1.3353
     1.3588   1.3939   1.4537   1.4720   1.4971   1.5211   1.5961   1.6866
     1.8069   1.8252   1.8450   1.8493   1.8991   1.9702   1.9885   2.0452
     3.0508   3.0513   3.5389   3.5812   3.6413   3.7244   3.8703   5.5789
     5.9701   6.4498   6.4622   6.8248   6.9274   7.0114   7.6075   7.9248
     8.0511   8.1720   8.1791   8.4135   8.6182   8.9219   8.9322   9.0157
     9.1300   9.3039

          k = 0.3750 0.3844 0.0000 ( 37023 PWs)   bands (ev):

   -38.3056 -37.9773 -23.9608 -22.7734 -22.7460 -22.6757 -18.8180 -18.7929
   -18.5055 -18.4880 -18.4560 -18.0897 -14.7482 -14.6383 -14.6315 -14.6072
   -14.5475 -14.4486 -14.4002 -14.3733 -14.2020 -14.0647 -13.9600 -13.9435
   -13.8680 -13.8625 -13.7381  -9.7259  -9.3897  -9.3181  -8.7349  -8.7089
    -8.5797  -8.3711  -8.3462  -8.2193  -8.1736  -8.1410  -8.1406  -4.0502
    -3.8723  -3.5091  -3.2030  -3.1379  -2.7148  -2.7102  -2.4836  -2.4547
    -2.4387  -2.3697  -2.2534  -2.1470  -2.0659  -2.0611  -2.0205  -1.9525
    -1.6383  -1.5729  -1.3234  -1.1547  -1.1530  -1.1014  -1.0103  -0.9369
    -0.9058  -0.7761  -0.7036  -0.6448  -0.6169  -0.5950  -0.4707  -0.4539
    -0.3824  -0.1680  -0.1650   0.1917   0.3179   0.3634   0.6269   0.6984
     0.7960   0.8438   0.9314   1.0030   1.0708   1.2310   1.2505   1.2626
     1.3247   1.3319   1.3842   1.4481   1.4866   1.5148   1.5337   1.5496
     1.5734   1.6143   1.7042   1.7335   1.7372   1.7694   1.8148   1.8694
     1.9027   1.9425   1.9719   2.0914   2.0926   2.2023   2.2877   2.2914
     2.9680   2.9728   4.0440   4.1289   4.2011   4.2204   4.3666   4.9751
     6.0853   6.0955   6.3258   6.6258   6.6651   6.9786   7.7502   7.9649
     8.2772   8.4780   8.7447   8.8068   8.8226   8.8679   9.1494   9.1931
     9.3623   9.3797

          k = 0.3750-0.5125 0.0000 ( 37046 PWs)   bands (ev):

   -38.3033 -37.9750 -23.9451 -22.7555 -22.7281 -22.6582 -18.8902 -18.7875
   -18.5764 -18.4839 -18.4169 -18.0504 -14.7523 -14.6512 -14.5659 -14.4988
   -14.4608 -14.4292 -14.4097 -14.2970 -14.1929 -14.1461 -13.9311 -13.8974
   -13.8559 -13.8508 -13.7044  -9.8063  -9.4830  -9.3511  -8.8139  -8.7877
    -8.6612  -8.5263  -8.5016  -8.3592  -8.1707  -8.1354  -8.1343  -4.2312
    -4.0539  -3.6777  -3.4473  -3.3066  -2.9533  -2.9483  -2.5953  -2.4998
    -2.4580  -2.3870  -2.3823  -2.1579  -2.0616  -2.0563  -2.0199  -2.0020
    -1.6987  -1.5973  -1.3410  -1.2252  -1.1953  -1.0649  -0.9915  -0.9915
    -0.9541  -0.8030  -0.7845  -0.6941  -0.6781  -0.6462  -0.5325  -0.4357
    -0.4146  -0.1365  -0.1348   0.1991   0.3457   0.3886   0.6405   0.7500
     0.9243   0.9991   0.9999   1.1173   1.1924   1.2830   1.3190   1.3571
     1.3805   1.4221   1.4665   1.5225   1.5870   1.5924   1.6025   1.6902
     1.7104   1.7108   1.7403   1.7445   1.7880   1.8160   1.8949   1.9570
     2.0011   2.0672   2.0941   2.1969   2.3292   2.3331   2.4833   2.4879
     2.7957   2.8033   4.1870   4.2978   4.3735   4.3839   4.5242   4.7398
     5.8879   5.8979   6.3523   6.5416   6.8312   6.8992   7.5975   8.1202
     8.2471   8.5575   8.7989   8.9715   8.9957   9.0792   9.1064   9.2530
     9.3710   9.4505

          k =-0.5000 0.0000 0.0000 ( 36894 PWs)   bands (ev):

   -38.3170 -37.9888 -24.0343 -22.8548 -22.8274 -22.7561 -18.9102 -18.6233
   -18.6081 -18.3072 -18.2587 -17.9899 -15.1628 -15.0628 -14.9894 -14.8526
   -14.8071 -14.6415 -14.5935 -14.4247 -14.2303 -14.2149 -14.0452 -13.9445
   -13.9395 -13.8420 -13.7749  -9.4981  -8.7828  -8.7697  -8.2279  -8.1949
    -8.1924  -7.7896  -7.7652  -7.7026  -7.6827  -7.6758  -7.5805  -3.1342
    -3.0559  -2.9755  -2.6189  -2.1946  -2.1863  -2.0321  -1.8654  -1.8640
    -1.7137  -1.6799  -1.6139  -1.4088  -1.4085  -1.3616  -1.2705  -1.2313
    -1.1347  -1.0598  -1.0486  -1.0057  -0.9893  -0.8826  -0.8781  -0.8644
    -0.7834  -0.7609  -0.6423  -0.6350  -0.6266  -0.4379  -0.3458  -0.3368
    -0.2660  -0.1769  -0.1302  -0.1266   0.2052   0.2378   0.2784   0.2831
     0.2857   0.2938   0.3942   0.5002   0.5373   0.5504   0.5646   0.6175
     0.6180   0.6246   0.7189   0.9739   0.9960   1.0830   1.0935   1.0953
     1.1543   1.2284   1.2531   1.3140   1.3375   1.3485   1.3700   1.4129
     1.6706   1.6769   1.7037   1.7226   1.8093   1.8383   2.0330   2.0559
     2.1108   2.1197   2.3061   2.4420   2.4790   2.7491   2.7610   6.0643
     6.2029   6.8780   7.1004   7.1270   7.2031   7.2066   7.3814   7.8058
     7.8423   7.8466   8.0658   8.1119   8.4815   8.6813   8.7935   8.9661
     9.0289   9.1268

          k =-0.5000 0.1281 0.0000 ( 36904 PWs)   bands (ev):

   -38.3148 -37.9865 -24.0198 -22.8387 -22.8112 -22.7402 -18.9024 -18.6002
   -18.5910 -18.4049 -18.2268 -18.0874 -15.0932 -15.0111 -14.9344 -14.7658
   -14.7366 -14.6083 -14.5026 -14.3900 -14.2970 -14.1769 -14.0138 -13.9261
   -13.9223 -13.8455 -13.8148  -9.4796  -8.9754  -8.8931  -8.2227  -8.1911
    -8.1901  -7.9247  -7.9140  -7.9004  -7.8872  -7.8079  -7.7844  -3.2874
    -3.1730  -3.0388  -2.6815  -2.2142  -2.1944  -2.1076  -2.0194  -1.9689
    -1.7749  -1.7406  -1.7366  -1.7224  -1.6149  -1.6001  -1.5901  -1.5309
    -1.3319  -1.1878  -1.1821  -1.1622  -1.0900  -0.9385  -0.9130  -0.8088
    -0.8010  -0.7389  -0.7163  -0.6796  -0.5623  -0.3423  -0.2770  -0.1396
    -0.1028  -0.0783  -0.0170   0.0735   0.1318   0.1751   0.2170   0.2487
     0.2813   0.4460   0.4903   0.5823   0.5844   0.6425   0.7052   0.7793
     0.7864   0.8435   0.9181   0.9279   0.9602   1.0668   1.1313   1.1680
     1.2353   1.2567   1.2609   1.2615   1.3619   1.3842   1.4215   1.4459
     1.6391   1.6783   1.7195   1.7497   1.8253   1.9804   1.9990   2.1091
     2.7015   2.7399   2.7663   2.8194   2.8665   3.0711   3.1409   6.0503
     6.2778   6.5218   6.9244   6.9420   7.3320   7.3944   7.4766   7.5545
     7.5678   7.9193   7.9720   8.2783   8.7722   8.8943   9.0235   9.1262
     9.1605   9.1740

          k =-0.5000 0.2563 0.0000 ( 36970 PWs)   bands (ev):

   -38.3093 -37.9810 -23.9844 -22.7992 -22.7718 -22.7012 -18.8837 -18.6189
   -18.5812 -18.5093 -18.3050 -18.1419 -14.9203 -14.8610 -14.7887 -14.6573
   -14.5291 -14.4784 -14.4602 -14.3728 -14.3068 -14.0820 -13.9358 -13.8867
   -13.8859 -13.8736 -13.8454  -9.4484  -9.3863  -9.1852  -8.3907  -8.3640
    -8.2660  -8.2359  -8.2116  -8.1903  -8.1595  -8.1414  -8.0969  -3.7398
    -3.5707  -3.2822  -2.9154  -2.5297  -2.4007  -2.3431  -2.2723  -2.2113
    -2.1719  -2.1691  -2.0501  -2.0310  -2.0142  -1.9623  -1.9578  -1.8875
    -1.5308  -1.4919  -1.4254  -1.2435  -0.9914  -0.9861  -0.8444  -0.8409
    -0.7966  -0.7950  -0.6939  -0.5511  -0.5048  -0.4221  -0.4146  -0.4104
    -0.2269  -0.2121  -0.1596   0.2264   0.2343   0.4069   0.5043   0.5779
     0.6233   0.6359   0.7390   0.7776   0.7868   1.0335   1.0402   1.1342
     1.1437   1.1953   1.2208   1.2369   1.3364   1.3396   1.3562   1.3828
     1.3884   1.3921   1.3927   1.4360   1.4623   1.5713   1.7240   1.7738
     1.7907   1.7996   1.8277   1.8672   1.8753   1.9592   2.0054   2.0734
     3.0468   3.0480   3.5502   3.6852   3.7498   3.8194   3.9587   5.3911
     6.4082   6.4194   6.4234   6.5835   6.8371   6.9002   7.7446   8.1187
     8.2476   8.2662   8.2694   8.3587   8.8714   8.9346   9.1510   9.2055
     9.2474   9.2782

          k =-0.5000 0.3844 0.0000 ( 37078 PWs)   bands (ev):

   -38.3038 -37.9755 -23.9484 -22.7590 -22.7316 -22.6615 -18.8649 -18.8099
   -18.5621 -18.4959 -18.4216 -18.0543 -14.7737 -14.6308 -14.6108 -14.6085
   -14.5269 -14.4598 -14.4028 -14.2407 -14.2286 -14.0261 -13.9202 -13.8620
   -13.8568 -13.8542 -13.7432  -9.7868  -9.4726  -9.3830  -8.7842  -8.7578
    -8.6333  -8.5298  -8.5053  -8.3687  -8.1879  -8.1541  -8.1507  -4.2106
    -4.0284  -3.6492  -3.2787  -3.1910  -2.7038  -2.6984  -2.5978  -2.5170
    -2.4760  -2.3983  -2.3863  -2.1893  -2.0650  -2.0611  -2.0159  -1.9893
    -1.6840  -1.5661  -1.2424  -1.1571  -1.1469  -1.0802  -1.0662  -0.8962
    -0.8871  -0.8442  -0.7023  -0.6366  -0.6308  -0.6094  -0.5168  -0.4523
    -0.4224  -0.1169  -0.1156   0.1908   0.3528   0.4759   0.6657   0.8020
     0.9325   1.0518   1.0752   1.1749   1.1833   1.2580   1.2927   1.3315
     1.3754   1.4009   1.4087   1.4839   1.4852   1.5838   1.6321   1.6465
     1.6566   1.7125   1.7159   1.7286   1.7601   1.7728   1.7851   1.9093
     1.9942   2.0863   2.0881   2.0945   2.0966   2.1512   2.2511   2.2535
     2.9641   2.9710   4.0441   4.3483   4.4247   4.4251   4.5671   4.7272
     5.8468   5.8578   6.3329   6.5202   6.7861   6.8378   7.8031   8.0934
     8.2890   8.5523   8.6095   8.7738   8.9409   9.0222   9.1141   9.2274
     9.3923   9.4475

          k =-0.5000-0.5125 0.0000 ( 37044 PWs)   bands (ev):

   -38.3015 -37.9732 -23.9333 -22.7421 -22.7147 -22.6449 -18.8838 -18.8571
   -18.5699 -18.5543 -18.3833 -18.0158 -14.7169 -14.7028 -14.5042 -14.4608
   -14.4549 -14.4471 -14.4306 -14.2014 -14.1478 -14.1111 -13.8951 -13.8577
   -13.8490 -13.8196 -13.6758  -9.9345  -9.5910  -9.3638  -8.9363  -8.9099
    -8.7812  -8.6472  -8.6226  -8.4765  -8.1879  -8.1506  -8.1452  -4.4000
    -4.2171  -3.8177  -3.4474  -3.4381  -2.9418  -2.9361  -2.7291  -2.5448
    -2.5163  -2.5057  -2.4216  -2.2117  -2.0532  -2.0492  -2.0245  -2.0125
    -1.7333  -1.5880  -1.2535  -1.2357  -1.1611  -1.1336  -1.0291  -0.9508
    -0.9314  -0.8732  -0.7922  -0.7188  -0.7141  -0.5682  -0.5283  -0.5085
    -0.4573  -0.0757  -0.0725   0.1995   0.3969   0.4948   0.6833   0.8713
     1.1437   1.1698   1.1995   1.3034   1.3375   1.3578   1.3703   1.3804
     1.4028   1.4107   1.5383   1.5438   1.5773   1.6347   1.6874   1.7890
     1.8232   1.8324   1.8356   1.8499   1.8638   1.8919   1.9013   1.9038
     1.9532   2.2087   2.2541   2.3009   2.3478   2.3530   2.4560   2.4606
     2.7878   2.7982   4.1778   4.4701   4.5647   4.6517   4.6526   4.7812
     5.5973   5.6082   6.2314   6.4271   6.8170   6.9048   7.7732   8.2072
     8.2209   8.5220   8.6662   8.7713   8.8680   8.9849   8.9958   9.0442
     9.2889   9.3131

     the Fermi energy is     2.7588 ev

!    total energy              =   -1868.77600306 Ry
     Harris-Foulkes estimate   =   -1868.77600328 Ry
     estimated scf accuracy    <       0.00000039 Ry

     The total energy is the sum of the following terms:

     one-electron contribution =  -26603.39541688 Ry
     hartree contribution      =   13453.93506684 Ry
     xc contribution           =    -642.20615151 Ry
     ewald contribution        =   11922.89903629 Ry
     smearing contrib. (-TS)   =      -0.00853779 Ry

     convergence has been achieved in  36 iterations

     negative rho (up, down):  9.053E-02 0.000E+00

     Forces acting on atoms (cartesian axes, Ry/au):

     atom    1 type  3   force =     0.00000000    0.00000000   -0.00005140
     atom    2 type  2   force =     0.00000000    0.00000000   -0.00053846
     atom    3 type  3   force =     0.00000000    0.00000000   -0.00002209
     atom    4 type  1   force =     0.00000000    0.00000000   -0.00013487
     atom    5 type  2   force =     0.00000000    0.00000000   -0.00065733
     atom    6 type  3   force =     0.00000000    0.00000000    0.00036413
     atom    7 type  3   force =     0.00000000    0.00000000   -0.00003658
     atom    8 type  4   force =     0.00000000    0.00000000   -0.00065980
     atom    9 type  3   force =     0.00000000    0.00000000    0.00103532
     atom   10 type  3   force =     0.00000000    0.00000000    0.00137485
     atom   11 type  2   force =     0.00000000    0.00000000   -0.00176839
     atom   12 type  1   force =     0.00000000    0.00000000   -0.00469219
     atom   13 type  3   force =     0.00000000    0.00000000    0.00281486
     atom   14 type  3   force =     0.00000000    0.00000000    0.01545412
     atom   15 type  2   force =     0.00000000    0.00000000   -0.01279353
     atom   16 type  3   force =     0.00000000    0.00000000    0.03410033
     atom   17 type  1   force =     0.00000000    0.00000000   -0.03179795
     atom   18 type  2   force =     0.00000000    0.00000000    0.00340344
     atom   19 type  3   force =     0.00000000    0.00000000    0.01560997
     atom   20 type  3   force =     0.00000000    0.00000000    0.00767221
     atom   21 type  4   force =     0.00000000    0.00000000   -0.04045416
     atom   22 type  3   force =     0.00000000    0.00000000    0.00374865
     atom   23 type  3   force =     0.00000000    0.00000000    0.00617031
     atom   24 type  2   force =     0.00000000    0.00000000    0.00261448
     atom   25 type  1   force =     0.00000000    0.00000000   -0.00169408
     atom   26 type  3   force =     0.00000000    0.00000000    0.00139093
     atom   27 type  2   force =     0.00000000    0.00000000   -0.00094230
     atom   28 type  3   force =     0.00000000    0.00000000    0.00048952

     Total force =     0.068039     Total SCF correction =     0.002785


     Computing stress (Cartesian axis) and pressure


     negative rho (up, down):  9.053E-02 0.000E+00
          total   stress  (Ry/bohr**3)                   (kbar)     P=       -5.77
  -0.00007122   0.00000000   0.00000000          -10.48        0.00        0.00
   0.00000000  -0.00003120   0.00000000            0.00       -4.59        0.00
   0.00000000   0.00000000  -0.00001526            0.00        0.00       -2.25

 
     init_run     :     11.47s CPU     12.01s WALL (       1 calls)
     electrons    :    868.16s CPU    907.99s WALL (       1 calls)
     forces       :      3.63s CPU      3.99s WALL (       1 calls)
     stress       :     31.33s CPU     32.32s WALL (       1 calls)

     Called by init_run:
     wfcinit      :      8.26s CPU      8.40s WALL (       1 calls)
     potinit      :      0.83s CPU      0.84s WALL (       1 calls)
     hinit0       :      1.47s CPU      1.48s WALL (       1 calls)

     Called by electrons:
     c_bands      :    701.46s CPU    716.04s WALL (      36 calls)
     sum_band     :    106.46s CPU    120.55s WALL (      36 calls)
     v_of_rho     :      9.66s CPU      9.72s WALL (      37 calls)
     newd         :     26.52s CPU     37.74s WALL (      37 calls)
     mix_rho      :     23.44s CPU     23.63s WALL (      36 calls)

     Called by c_bands:
     init_us_2    :      3.79s CPU      3.88s WALL (    1875 calls)
     cegterg      :    675.43s CPU    689.40s WALL (     900 calls)

     Called by sum_band:
     sum_band:bec :      0.24s CPU      0.25s WALL (     900 calls)
     addusdens    :     20.57s CPU     33.73s WALL (      36 calls)

     Called by *egterg:
     h_psi        :    255.34s CPU    263.74s WALL (    3710 calls)
     s_psi        :     23.02s CPU     23.33s WALL (    3710 calls)
     g_psi        :      0.70s CPU      0.70s WALL (    2785 calls)
     cdiaghg      :    285.76s CPU    286.72s WALL (    3685 calls)

     Called by h_psi:
     h_psi:calbec :     27.95s CPU     29.29s WALL (    3710 calls)
     vloc_psi     :    202.49s CPU    205.43s WALL (    3710 calls)
     add_vuspsi   :     23.75s CPU     25.95s WALL (    3710 calls)

     General routines
     calbec       :     64.49s CPU     65.96s WALL (    4735 calls)
     fft          :     10.68s CPU     10.71s WALL (     504 calls)
     ffts         :     10.88s CPU     10.98s WALL (   15964 calls)
     fftw         :    235.39s CPU    238.71s WALL (  644244 calls)
     interpolate  :      0.57s CPU      0.58s WALL (      37 calls)
 
     Parallel routines
     fft_scatt_xy :     25.57s CPU     25.95s WALL (  660712 calls)
     fft_scatt_yz :    166.47s CPU    168.48s WALL (  660712 calls)
 
     PWSCF        :  15m16.05s CPU  15m57.83s WALL

 
   This run was terminated on:  17:45:26   5May2021            

=------------------------------------------------------------------------------=
   JOB DONE.
=------------------------------------------------------------------------------=
[1620251127.123985] [holy7c04109:70294:0]          mpool.c:43   UCX  WARN  object 0x331e8c0 was not returned to mpool ucp_requests
[1620251127.125000] [holy7c04109:70295:0]          mpool.c:43   UCX  WARN  object 0x3797b00 was not returned to mpool ucp_requests
[1620251127.121196] [holy7c04211:92047:0]          mpool.c:43   UCX  WARN  object 0x31bc400 was not returned to mpool ucp_requests
[1620251127.121213] [holy7c04211:92047:0]          mpool.c:43   UCX  WARN  object 0x31bcb00 was not returned to mpool ucp_requests
[1620251127.202959] [holy7c04301:258215:0]          mpool.c:43   UCX  WARN  object 0x4530b80 was not returned to mpool ucp_requests
[1620251127.202958] [holy7c04301:258212:0]          mpool.c:43   UCX  WARN  object 0x31d1e40 was not returned to mpool ucp_requests
[1620251127.202964] [holy7c04301:258214:0]          mpool.c:43   UCX  WARN  object 0x33b9500 was not returned to mpool ucp_requests
[1620251127.203020] [holy7c04301:258214:0]          mpool.c:43   UCX  WARN  object 0x33b9dc0 was not returned to mpool ucp_requests
[1620251127.202959] [holy7c04301:258216:0]          mpool.c:43   UCX  WARN  object 0x47c1800 was not returned to mpool ucp_requests
[1620251127.203032] [holy7c04301:258216:0]          mpool.c:43   UCX  WARN  object 0x47c1b80 was not returned to mpool ucp_requests
