
     Program PWSCF v.6.5 starts on  5May2021 at 17: 8:59 

     This program is part of the open-source Quantum ESPRESSO suite
     for quantum simulation of materials; please cite
         "P. Giannozzi et al., J. Phys.:Condens. Matter 21 395502 (2009);
         "P. Giannozzi et al., J. Phys.:Condens. Matter 29 465901 (2017);
          URL http://www.quantum-espresso.org", 
     in publications or presentations arising from this work. More details at
     http://www.quantum-espresso.org/quote

     Parallel version (MPI), running on    20 processors

     MPI processes distributed on    17 nodes
     R & G space division:  proc/nbgrp/npool/nimage =      20
     Reading input from YBCO_BaO_cleave_1.5_sep_scf.pwi
Warning: card &IONS ignored
Warning: card     ION_DYNAMICS = 'BFGS' ignored
Warning: card / ignored
Warning: card &CELL ignored
Warning: card     CELL_DYNAMICS = 'BFGS' ignored
Warning: card / ignored

     Current dimensions of program PWSCF are:
     Max number of different atomic species (ntypx) = 10
     Max number of k-points (npk) =  40000
     Max angular momentum in pseudopotentials (lmaxx) =  3

     Subspace diagonalization in iterative solution of the eigenvalue problem:
     one sub-group per band group will be used
     scalapack distributed-memory algorithm (size of sub-group:  4*  4 procs)

     Message from routine setup:
     using ibrav=0 with symmetry is DISCOURAGED, use correct ibrav instead
 
     Parallelization info
     --------------------
     sticks:   dense  smooth     PW     G-vecs:    dense   smooth      PW
     Min         150      50     14                73488    14136    2204
     Max         151      51     15                73529    14159    2251
     Sum        3015    1011    293              1470165   282891   44571
 


     bravais-lattice index     =            0
     lattice parameter (alat)  =       7.3477  a.u.
     unit-cell volume          =    4506.0642 (a.u.)^3
     number of atoms/cell      =           28
     number of atomic types    =            4
     number of electrons       =       229.00
     number of Kohn-Sham states=          138
     kinetic-energy cutoff     =      60.0000  Ry
     charge density cutoff     =     720.0000  Ry
     convergence threshold     =      1.0E-06
     mixing beta               =       0.2000
     number of iterations used =           10  local-TF  mixing
     Exchange-correlation= SLA PW PBE PBE
                           (   1   4   3   4   0   0   0)

     celldm(1)=   7.347715  celldm(2)=   0.000000  celldm(3)=   0.000000
     celldm(4)=   0.000000  celldm(5)=   0.000000  celldm(6)=   0.000000

     crystal axes: (cart. coord. in units of alat)
               a(1) = (   1.000000   0.000000   0.000000 )  
               a(2) = (   0.000000   0.975577   0.000000 )  
               a(3) = (   0.000000   0.000000  11.643372 )  

     reciprocal axes: (cart. coord. in units 2 pi/alat)
               b(1) = (  1.000000  0.000000  0.000000 )  
               b(2) = (  0.000000  1.025034  0.000000 )  
               b(3) = (  0.000000  0.000000  0.085886 )  


     PseudoPot. # 1 for Ba read from file:
     /n/holyscratch01/hoffman_lab/ruizhe/YBCO_Project/pseudo/Ba.pbe-nsp-van.UPF
     MD5 check sum: 2b9c31dd849566dd297d80989662b7a0
     Pseudo is Ultrasoft + core correction, Zval = 10.0
     Generated by new atomic code, or converted to UPF format
     Using radial grid of  907 points,  6 beta functions with: 
                l(1) =   0
                l(2) =   0
                l(3) =   1
                l(4) =   1
                l(5) =   2
                l(6) =   2
     Q(r) pseudized with  6 coefficients,  rinner =    1.200   1.200   1.200
                                                       1.200   1.200

     PseudoPot. # 2 for Cu read from file:
     /n/holyscratch01/hoffman_lab/ruizhe/YBCO_Project/pseudo/Cu.pbe-n-van_ak.UPF
     MD5 check sum: 34e3282627ffb533726feb647e090d62
     Pseudo is Ultrasoft + core correction, Zval = 11.0
     Generated by new atomic code, or converted to UPF format
     Using radial grid of  867 points,  6 beta functions with: 
                l(1) =   0
                l(2) =   0
                l(3) =   1
                l(4) =   1
                l(5) =   2
                l(6) =   2
     Q(r) pseudized with  8 coefficients,  rinner =    1.400   1.400   1.400
                                                       1.400   1.400

     PseudoPot. # 3 for O  read from file:
     /n/holyscratch01/hoffman_lab/ruizhe/YBCO_Project/pseudo/O.pbe-van_ak.UPF
     MD5 check sum: 783ce7fe4c79b6a4916957118fed0856
     Pseudo is Ultrasoft, Zval =  6.0
     Generated by new atomic code, or converted to UPF format
     Using radial grid of  737 points,  4 beta functions with: 
                l(1) =   0
                l(2) =   0
                l(3) =   1
                l(4) =   1
     Q(r) pseudized with  8 coefficients,  rinner =    0.800   0.800   0.800


     PseudoPot. # 4 for Y  read from file:
     /n/holyscratch01/hoffman_lab/ruizhe/YBCO_Project/pseudo/Y.pbe-nsp-van.UPF
     MD5 check sum: 4412fed3ab108fed87a1b7d6a69a4a38
     Pseudo is Ultrasoft + core correction, Zval = 11.0
     Generated by new atomic code, or converted to UPF format
     Using radial grid of  885 points,  6 beta functions with: 
                l(1) =   0
                l(2) =   0
                l(3) =   1
                l(4) =   1
                l(5) =   2
                l(6) =   2
     Q(r) pseudized with  6 coefficients,  rinner =    1.200   1.200   1.200
                                                       1.200   1.200

     atomic species   valence    mass     pseudopotential
        Ba            10.00   137.32700     Ba( 1.00)
        Cu            11.00    63.54600     Cu( 1.00)
        O              6.00    15.99900     O ( 1.00)
        Y             11.00    88.90584     Y ( 1.00)

      4 Sym. Ops. (no inversion) found



   Cartesian axes

     site n.     atom                  positions (alat units)
         1           O   tau(   1) = (   0.0000000   0.4877884  -0.0257983  )
         2           Cu  tau(   2) = (   0.0000000   0.0000000   0.0215779  )
         3           O   tau(   3) = (   0.0000000   0.0000000   0.5073114  )
         4           Ba  tau(   4) = (   0.4999996   0.4877884   0.5319677  )
         5           Cu  tau(   5) = (   0.0000000   0.0000000   1.0495845  )
         6           O   tau(   6) = (   0.4999996   0.0000000   1.1181579  )
         7           O   tau(   7) = (   0.0000000   0.4877884   1.1273137  )
         8           Y   tau(   8) = (   0.4999996   0.4877884   1.4938777  )
         9           O   tau(   9) = (   0.0000000   0.4877884   1.8497402  )
        10           O   tau(  10) = (   0.4999996   0.0000000   1.8692709  )
        11           Cu  tau(  11) = (   0.0000000   0.0000000   1.9417560  )
        12           Ba  tau(  12) = (   0.4999996   0.4877884   2.4526063  )
        13           O   tau(  13) = (   0.0000000   0.0000000   2.5103470  )
        14           O   tau(  14) = (   0.0000000   0.4877884   2.9968469  )
        15           Cu  tau(  15) = (   0.0000000   0.0000000   2.9968521  )
        16           O   tau(  16) = (   0.0000000   0.0000000   3.4833288  )
        17           Ba  tau(  17) = (   0.4999996   0.4877884   3.5410618  )
        18           Cu  tau(  18) = (   0.0000000   0.0000000   4.4377135  )
        19           O   tau(  19) = (   0.4999996   0.0000000   4.5101858  )
        20           O   tau(  20) = (   0.0000000   0.4877884   4.5296985  )
        21           Y   tau(  21) = (   0.4999996   0.4877884   4.8855636  )
        22           O   tau(  22) = (   0.0000000   0.4877884   5.2521276  )
        23           O   tau(  23) = (   0.4999996   0.0000000   5.2612962  )
        24           Cu  tau(  24) = (   0.0000000   0.0000000   5.3298748  )
        25           Ba  tau(  25) = (   0.4999996   0.4877884   5.8474761  )
        26           O   tau(  26) = (   0.0000000   0.0000000   5.8721325  )
        27           Cu  tau(  27) = (   0.0000000   0.0000000   6.3578377  )
        28           O   tau(  28) = (   0.0000000   0.4877884   6.4052190  )

     number of k points=    25  Gaussian smearing, width (Ry)=  0.0100
                       cart. coord. in units 2pi/alat
        k(    1) = (   0.0000000   0.0000000   0.0000000), wk =   0.0312500
        k(    2) = (   0.0000000   0.1281293   0.0000000), wk =   0.0625000
        k(    3) = (   0.0000000   0.2562585   0.0000000), wk =   0.0625000
        k(    4) = (   0.0000000   0.3843878   0.0000000), wk =   0.0625000
        k(    5) = (   0.0000000  -0.5125170   0.0000000), wk =   0.0312500
        k(    6) = (   0.1250000   0.0000000   0.0000000), wk =   0.0625000
        k(    7) = (   0.1250000   0.1281293   0.0000000), wk =   0.1250000
        k(    8) = (   0.1250000   0.2562585   0.0000000), wk =   0.1250000
        k(    9) = (   0.1250000   0.3843878   0.0000000), wk =   0.1250000
        k(   10) = (   0.1250000  -0.5125170   0.0000000), wk =   0.0625000
        k(   11) = (   0.2500000   0.0000000   0.0000000), wk =   0.0625000
        k(   12) = (   0.2500000   0.1281293   0.0000000), wk =   0.1250000
        k(   13) = (   0.2500000   0.2562585   0.0000000), wk =   0.1250000
        k(   14) = (   0.2500000   0.3843878   0.0000000), wk =   0.1250000
        k(   15) = (   0.2500000  -0.5125170   0.0000000), wk =   0.0625000
        k(   16) = (   0.3750000   0.0000000   0.0000000), wk =   0.0625000
        k(   17) = (   0.3750000   0.1281293   0.0000000), wk =   0.1250000
        k(   18) = (   0.3750000   0.2562585   0.0000000), wk =   0.1250000
        k(   19) = (   0.3750000   0.3843878   0.0000000), wk =   0.1250000
        k(   20) = (   0.3750000  -0.5125170   0.0000000), wk =   0.0625000
        k(   21) = (  -0.5000000   0.0000000   0.0000000), wk =   0.0312500
        k(   22) = (  -0.5000000   0.1281293   0.0000000), wk =   0.0625000
        k(   23) = (  -0.5000000   0.2562585   0.0000000), wk =   0.0625000
        k(   24) = (  -0.5000000   0.3843878   0.0000000), wk =   0.0625000
        k(   25) = (  -0.5000000  -0.5125170   0.0000000), wk =   0.0312500

     Dense  grid:  1470165 G-vectors     FFT dimensions: (  64,  64, 750)

     Smooth grid:   282891 G-vectors     FFT dimensions: (  40,  36, 432)

     Estimated max dynamical RAM per process >     469.69 MB

     Estimated total dynamical RAM >       9.17 GB

     Initial potential from superposition of free atoms

     starting charge  228.84827, renormalised to  229.00000

     negative rho (up, down):  8.946E-02 0.000E+00
     Starting wfcs are  201 randomized atomic wfcs

     total cpu time spent up to now is       11.7 secs

     Self-consistent Calculation

     iteration #  1     ecut=    60.00 Ry     beta= 0.20
     Davidson diagonalization with overlap
     ethr =  1.00E-02,  avg # of iterations =  2.0

     negative rho (up, down):  8.735E-02 0.000E+00

     total cpu time spent up to now is       30.4 secs

     total energy              =   -1869.55033613 Ry
     Harris-Foulkes estimate   =   -1871.14647860 Ry
     estimated scf accuracy    <      13.98478495 Ry

     iteration #  2     ecut=    60.00 Ry     beta= 0.20
     Davidson diagonalization with overlap
     ethr =  6.11E-03,  avg # of iterations =  1.0

     negative rho (up, down):  8.618E-02 0.000E+00

     total cpu time spent up to now is       47.0 secs

     total energy              =   -1869.02461602 Ry
     Harris-Foulkes estimate   =   -1869.91003450 Ry
     estimated scf accuracy    <       5.72401501 Ry

     iteration #  3     ecut=    60.00 Ry     beta= 0.20
     Davidson diagonalization with overlap
     ethr =  2.50E-03,  avg # of iterations =  1.0

     negative rho (up, down):  8.579E-02 0.000E+00

     total cpu time spent up to now is       64.5 secs

     total energy              =   -1868.74404232 Ry
     Harris-Foulkes estimate   =   -1869.25145308 Ry
     estimated scf accuracy    <       3.71464717 Ry

     iteration #  4     ecut=    60.00 Ry     beta= 0.20
     Davidson diagonalization with overlap
     ethr =  1.62E-03,  avg # of iterations =  1.6

     negative rho (up, down):  8.606E-02 0.000E+00

     total cpu time spent up to now is       81.9 secs

     total energy              =   -1868.89641170 Ry
     Harris-Foulkes estimate   =   -1868.96417004 Ry
     estimated scf accuracy    <       2.37235333 Ry

     iteration #  5     ecut=    60.00 Ry     beta= 0.20
     Davidson diagonalization with overlap
     ethr =  1.04E-03,  avg # of iterations =  1.0

     negative rho (up, down):  8.671E-02 0.000E+00

     total cpu time spent up to now is       98.7 secs

     total energy              =   -1868.85057264 Ry
     Harris-Foulkes estimate   =   -1868.94025157 Ry
     estimated scf accuracy    <       1.08818370 Ry

     iteration #  6     ecut=    60.00 Ry     beta= 0.20
     Davidson diagonalization with overlap
     ethr =  4.75E-04,  avg # of iterations =  1.6

     negative rho (up, down):  8.774E-02 0.000E+00

     total cpu time spent up to now is      116.0 secs

     total energy              =   -1868.82039770 Ry
     Harris-Foulkes estimate   =   -1868.87113255 Ry
     estimated scf accuracy    <       0.51174497 Ry

     iteration #  7     ecut=    60.00 Ry     beta= 0.20
     Davidson diagonalization with overlap
     ethr =  2.23E-04,  avg # of iterations =  5.3

     negative rho (up, down):  8.913E-02 0.000E+00

     total cpu time spent up to now is      138.6 secs

     total energy              =   -1868.80352794 Ry
     Harris-Foulkes estimate   =   -1868.83484422 Ry
     estimated scf accuracy    <       0.24010704 Ry

     iteration #  8     ecut=    60.00 Ry     beta= 0.20
     Davidson diagonalization with overlap
     ethr =  1.05E-04,  avg # of iterations =  6.0

     negative rho (up, down):  8.994E-02 0.000E+00

     total cpu time spent up to now is      163.8 secs

     total energy              =   -1868.80833754 Ry
     Harris-Foulkes estimate   =   -1868.82675304 Ry
     estimated scf accuracy    <       0.22195151 Ry

     iteration #  9     ecut=    60.00 Ry     beta= 0.20
     Davidson diagonalization with overlap
     ethr =  9.69E-05,  avg # of iterations =  1.1

     negative rho (up, down):  9.021E-02 0.000E+00

     total cpu time spent up to now is      180.6 secs

     total energy              =   -1868.81626430 Ry
     Harris-Foulkes estimate   =   -1868.81786491 Ry
     estimated scf accuracy    <       0.44612822 Ry

     iteration # 10     ecut=    60.00 Ry     beta= 0.20
     Davidson diagonalization with overlap
     ethr =  9.69E-05,  avg # of iterations =  1.0

     negative rho (up, down):  9.048E-02 0.000E+00

     total cpu time spent up to now is      196.6 secs

     total energy              =   -1868.80793207 Ry
     Harris-Foulkes estimate   =   -1868.81782882 Ry
     estimated scf accuracy    <       0.38125563 Ry

     iteration # 11     ecut=    60.00 Ry     beta= 0.20
     Davidson diagonalization with overlap
     ethr =  9.69E-05,  avg # of iterations =  1.0

     negative rho (up, down):  9.020E-02 0.000E+00

     total cpu time spent up to now is      212.6 secs

     total energy              =   -1868.80648094 Ry
     Harris-Foulkes estimate   =   -1868.81154345 Ry
     estimated scf accuracy    <       0.07241671 Ry

     iteration # 12     ecut=    60.00 Ry     beta= 0.20
     Davidson diagonalization with overlap
     ethr =  3.16E-05,  avg # of iterations =  5.9

     negative rho (up, down):  8.989E-02 0.000E+00

     total cpu time spent up to now is      236.6 secs

     total energy              =   -1868.80402331 Ry
     Harris-Foulkes estimate   =   -1868.81277332 Ry
     estimated scf accuracy    <       0.04772004 Ry

     iteration # 13     ecut=    60.00 Ry     beta= 0.20
     Davidson diagonalization with overlap
     ethr =  2.08E-05,  avg # of iterations =  3.2

     negative rho (up, down):  8.991E-02 0.000E+00

     total cpu time spent up to now is      255.6 secs

     total energy              =   -1868.80404179 Ry
     Harris-Foulkes estimate   =   -1868.80654774 Ry
     estimated scf accuracy    <       0.02438846 Ry

     iteration # 14     ecut=    60.00 Ry     beta= 0.20
     Davidson diagonalization with overlap
     ethr =  1.06E-05,  avg # of iterations =  7.7

     negative rho (up, down):  8.948E-02 0.000E+00

     total cpu time spent up to now is      282.1 secs

     total energy              =   -1868.80493361 Ry
     Harris-Foulkes estimate   =   -1868.80563105 Ry
     estimated scf accuracy    <       0.01506082 Ry

     iteration # 15     ecut=    60.00 Ry     beta= 0.20
     Davidson diagonalization with overlap
     ethr =  6.58E-06,  avg # of iterations =  1.4

     negative rho (up, down):  8.907E-02 0.000E+00

     total cpu time spent up to now is      298.9 secs

     total energy              =   -1868.80509797 Ry
     Harris-Foulkes estimate   =   -1868.80557368 Ry
     estimated scf accuracy    <       0.01829538 Ry

     iteration # 16     ecut=    60.00 Ry     beta= 0.20
     Davidson diagonalization with overlap
     ethr =  6.58E-06,  avg # of iterations =  1.1

     negative rho (up, down):  9.038E-02 0.000E+00

     total cpu time spent up to now is      315.1 secs

     total energy              =   -1868.80374811 Ry
     Harris-Foulkes estimate   =   -1868.80531088 Ry
     estimated scf accuracy    <       0.02744944 Ry

     iteration # 17     ecut=    60.00 Ry     beta= 0.20
     Davidson diagonalization with overlap
     ethr =  6.58E-06,  avg # of iterations =  2.6

     negative rho (up, down):  9.709E-02 0.000E+00

     total cpu time spent up to now is      333.3 secs

     total energy              =   -1868.80257742 Ry
     Harris-Foulkes estimate   =   -1868.80467062 Ry
     estimated scf accuracy    <       0.01493297 Ry

     iteration # 18     ecut=    60.00 Ry     beta= 0.20
     Davidson diagonalization with overlap
     ethr =  6.52E-06,  avg # of iterations =  6.0

     negative rho (up, down):  1.011E-01 0.000E+00

     total cpu time spent up to now is      356.9 secs

     total energy              =   -1868.80237225 Ry
     Harris-Foulkes estimate   =   -1868.80312454 Ry
     estimated scf accuracy    <       0.01145423 Ry

     iteration # 19     ecut=    60.00 Ry     beta= 0.20
     Davidson diagonalization with overlap
     ethr =  5.00E-06,  avg # of iterations =  4.2

     negative rho (up, down):  1.012E-01 0.000E+00

     total cpu time spent up to now is      377.5 secs

     total energy              =   -1868.80130767 Ry
     Harris-Foulkes estimate   =   -1868.80267689 Ry
     estimated scf accuracy    <       0.01188668 Ry

     iteration # 20     ecut=    60.00 Ry     beta= 0.20
     Davidson diagonalization with overlap
     c_bands:  1 eigenvalues not converged
     ethr =  5.00E-06,  avg # of iterations =  5.6

     negative rho (up, down):  1.023E-01 0.000E+00

     total cpu time spent up to now is      399.8 secs

     total energy              =   -1868.80129032 Ry
     Harris-Foulkes estimate   =   -1868.80180109 Ry
     estimated scf accuracy    <       0.00517758 Ry

     iteration # 21     ecut=    60.00 Ry     beta= 0.20
     Davidson diagonalization with overlap
     ethr =  2.26E-06,  avg # of iterations =  7.2

     negative rho (up, down):  1.077E-01 0.000E+00

     total cpu time spent up to now is      424.8 secs

     total energy              =   -1868.80067997 Ry
     Harris-Foulkes estimate   =   -1868.80137948 Ry
     estimated scf accuracy    <       0.00389180 Ry

     iteration # 22     ecut=    60.00 Ry     beta= 0.20
     Davidson diagonalization with overlap
     ethr =  1.70E-06,  avg # of iterations =  8.6

     negative rho (up, down):  1.035E-01 0.000E+00

     total cpu time spent up to now is      453.6 secs

     total energy              =   -1868.80055025 Ry
     Harris-Foulkes estimate   =   -1868.80081123 Ry
     estimated scf accuracy    <       0.00218377 Ry

     iteration # 23     ecut=    60.00 Ry     beta= 0.20
     Davidson diagonalization with overlap
     ethr =  9.54E-07,  avg # of iterations =  4.0

     negative rho (up, down):  9.796E-02 0.000E+00

     total cpu time spent up to now is      474.3 secs

     total energy              =   -1868.80053786 Ry
     Harris-Foulkes estimate   =   -1868.80064756 Ry
     estimated scf accuracy    <       0.00102208 Ry

     iteration # 24     ecut=    60.00 Ry     beta= 0.20
     Davidson diagonalization with overlap
     ethr =  4.46E-07,  avg # of iterations =  4.2

     negative rho (up, down):  9.274E-02 0.000E+00

     total cpu time spent up to now is      495.4 secs

     total energy              =   -1868.80045063 Ry
     Harris-Foulkes estimate   =   -1868.80055873 Ry
     estimated scf accuracy    <       0.00052119 Ry

     iteration # 25     ecut=    60.00 Ry     beta= 0.20
     Davidson diagonalization with overlap
     ethr =  2.28E-07,  avg # of iterations =  6.0

     negative rho (up, down):  9.179E-02 0.000E+00

     total cpu time spent up to now is      519.6 secs

     total energy              =   -1868.80050361 Ry
     Harris-Foulkes estimate   =   -1868.80047591 Ry
     estimated scf accuracy    <       0.00023551 Ry

     iteration # 26     ecut=    60.00 Ry     beta= 0.20
     Davidson diagonalization with overlap
     ethr =  1.03E-07,  avg # of iterations =  3.2

     negative rho (up, down):  9.044E-02 0.000E+00

     total cpu time spent up to now is      539.1 secs

     total energy              =   -1868.80051245 Ry
     Harris-Foulkes estimate   =   -1868.80051102 Ry
     estimated scf accuracy    <       0.00011967 Ry

     iteration # 27     ecut=    60.00 Ry     beta= 0.20
     Davidson diagonalization with overlap
     c_bands:  1 eigenvalues not converged
     c_bands:  1 eigenvalues not converged
     ethr =  5.23E-08,  avg # of iterations =  5.5

     negative rho (up, down):  9.010E-02 0.000E+00

     total cpu time spent up to now is      561.4 secs

     total energy              =   -1868.80051049 Ry
     Harris-Foulkes estimate   =   -1868.80051497 Ry
     estimated scf accuracy    <       0.00007048 Ry

     iteration # 28     ecut=    60.00 Ry     beta= 0.20
     Davidson diagonalization with overlap
     c_bands:  1 eigenvalues not converged
     ethr =  3.08E-08,  avg # of iterations =  5.0

     negative rho (up, down):  9.052E-02 0.000E+00

     total cpu time spent up to now is      582.9 secs

     total energy              =   -1868.80051494 Ry
     Harris-Foulkes estimate   =   -1868.80051424 Ry
     estimated scf accuracy    <       0.00002682 Ry

     iteration # 29     ecut=    60.00 Ry     beta= 0.20
     Davidson diagonalization with overlap
     ethr =  1.17E-08,  avg # of iterations =  2.9

     negative rho (up, down):  9.083E-02 0.000E+00

     total cpu time spent up to now is      601.8 secs

     total energy              =   -1868.80051551 Ry
     Harris-Foulkes estimate   =   -1868.80051598 Ry
     estimated scf accuracy    <       0.00001310 Ry

     iteration # 30     ecut=    60.00 Ry     beta= 0.20
     Davidson diagonalization with overlap
     ethr =  5.72E-09,  avg # of iterations =  2.2

     negative rho (up, down):  9.078E-02 0.000E+00

     total cpu time spent up to now is      619.9 secs

     total energy              =   -1868.80051578 Ry
     Harris-Foulkes estimate   =   -1868.80051629 Ry
     estimated scf accuracy    <       0.00000585 Ry

     iteration # 31     ecut=    60.00 Ry     beta= 0.20
     Davidson diagonalization with overlap
     ethr =  2.55E-09,  avg # of iterations =  1.3

     negative rho (up, down):  9.053E-02 0.000E+00

     total cpu time spent up to now is      636.2 secs

     total energy              =   -1868.80051441 Ry
     Harris-Foulkes estimate   =   -1868.80051593 Ry
     estimated scf accuracy    <       0.00000449 Ry

     iteration # 32     ecut=    60.00 Ry     beta= 0.20
     Davidson diagonalization with overlap
     ethr =  1.96E-09,  avg # of iterations =  1.1

     negative rho (up, down):  9.064E-02 0.000E+00

     total cpu time spent up to now is      652.6 secs

     total energy              =   -1868.80051382 Ry
     Harris-Foulkes estimate   =   -1868.80051460 Ry
     estimated scf accuracy    <       0.00000317 Ry

     iteration # 33     ecut=    60.00 Ry     beta= 0.20
     Davidson diagonalization with overlap
     ethr =  1.38E-09,  avg # of iterations =  1.5

     negative rho (up, down):  9.062E-02 0.000E+00

     total cpu time spent up to now is      669.5 secs

     total energy              =   -1868.80051380 Ry
     Harris-Foulkes estimate   =   -1868.80051395 Ry
     estimated scf accuracy    <       0.00000103 Ry

     iteration # 34     ecut=    60.00 Ry     beta= 0.20
     Davidson diagonalization with overlap
     ethr =  4.50E-10,  avg # of iterations =  1.5

     negative rho (up, down):  9.048E-02 0.000E+00

     total cpu time spent up to now is      685.8 secs

     End of self-consistent calculation

          k = 0.0000 0.0000 0.0000 ( 35281 PWs)   bands (ev):

   -38.0776 -37.8423 -23.3923 -22.7331 -22.7150 -22.5949 -18.6126 -18.3470
   -18.0823 -18.0723 -17.8622 -17.8474 -15.4083 -15.2008 -14.5752 -14.4477
   -14.2435 -14.2185 -14.1936 -14.1407 -14.0588 -13.9320 -13.7168 -13.7157
   -13.6115 -13.4344 -13.2936  -8.6625  -8.2389  -8.2262  -7.9547  -7.9315
    -7.8706  -7.7257  -7.7088  -7.6988  -7.6812  -7.5482  -7.5276  -2.0368
    -2.0035  -1.8736  -1.8655  -1.8566  -1.8214  -1.8175  -1.7490  -1.7481
    -1.6939  -1.6715  -1.5373  -1.4159  -0.8384  -0.8015  -0.6251  -0.4774
    -0.4241  -0.4169  -0.2988  -0.2674  -0.0546  -0.0275  -0.0262   0.0090
     0.0110   0.0355   0.1485   0.1740   0.1803   0.1865   0.2710   0.3117
     0.3268   0.3336   0.3948   0.4200   0.4383   0.4438   0.4736   0.4860
     0.5157   0.5775   0.5796   0.5867   0.6296   0.6985   0.7037   0.7694
     0.8046   0.9157   1.0840   1.1419   1.2558   1.2748   1.3283   1.3699
     1.4003   1.4189   1.4236   1.4862   1.5323   1.5456   1.5864   1.7380
     1.8491   1.9377   1.9731   2.0279   2.0438   2.0491   2.1458   2.2264
     2.2402   2.2631   2.3485   2.4336   2.4489   2.7037   2.7126   5.1136
     5.3189   5.4019   5.8324   5.9632   6.5123   6.7102   6.7467   6.8655
     7.3446   7.7531   7.9828   8.1879   8.2210   8.2649   8.4036   8.4192
     8.7119   8.7597

          k = 0.0000 0.1281 0.0000 ( 35279 PWs)   bands (ev):

   -38.0753 -37.8400 -23.3741 -22.7116 -22.6934 -22.5741 -18.5767 -18.3109
   -18.1766 -18.0791 -17.9518 -17.8589 -15.2997 -15.0984 -14.5281 -14.4551
   -14.2613 -14.2275 -14.1631 -14.1318 -14.0387 -13.9784 -13.7222 -13.7216
   -13.6430 -13.4928 -13.3676  -8.6487  -8.2534  -8.1927  -7.9374  -7.9151
    -7.8590  -7.7183  -7.7008  -7.6845  -7.6675  -7.5475  -7.5095  -2.1410
    -2.1080  -2.0927  -1.9875  -1.8356  -1.8305  -1.8188  -1.8045  -1.7067
    -1.6756  -1.6560  -1.5395  -1.4006  -1.3492  -0.9417  -0.9366  -0.7840
    -0.7675  -0.5621  -0.3899  -0.3610  -0.3482  -0.1871  -0.1824  -0.1335
    -0.0792  -0.0765  -0.0601  -0.0505  -0.0375   0.0304   0.1334   0.1790
     0.2942   0.3302   0.3362   0.4382   0.4838   0.5496   0.5681   0.5806
     0.5847   0.5867   0.6591   0.6676   0.6927   0.8606   0.8811   0.8904
     0.9112   0.9631   1.0442   1.0875   1.0879   1.2155   1.2576   1.3466
     1.4770   1.5159   1.5388   1.5511   1.6444   1.6569   1.7126   1.7316
     1.8035   1.8188   1.9059   1.9981   2.0039   2.0286   2.1072   2.1815
     2.2531   2.2786   2.5256   2.5493   2.9638   3.0262   3.0530   5.4187
     5.6931   5.7225   6.1031   6.2300   6.7393   7.0148   7.0518   7.1139
     7.5748   7.9350   8.1581   8.1606   8.3554   8.3573   8.4506   8.5518
     8.8708   8.9706

          k = 0.0000 0.2563 0.0000 ( 35304 PWs)   bands (ev):

   -38.0697 -37.8344 -23.3293 -22.6585 -22.6403 -22.5230 -18.4856 -18.4016
   -18.2227 -18.1737 -18.0714 -17.8511 -15.0521 -14.8722 -14.5318 -14.3998
   -14.3578 -14.2838 -14.1600 -14.0967 -14.0450 -13.9599 -13.7099 -13.6995
   -13.6760 -13.6341 -13.5499  -8.6098  -8.2866  -8.1097  -7.8963  -7.8751
    -7.8293  -7.7594  -7.7419  -7.5907  -7.5812  -7.5642  -7.4127  -2.5676
    -2.5070  -2.4317  -2.2846  -2.1653  -1.9682  -1.9627  -1.8462  -1.7075
    -1.7024  -1.7007  -1.6974  -1.6094  -1.6031  -1.4670  -1.3490  -1.1998
    -0.8310  -0.7806  -0.7303  -0.5813  -0.5439  -0.4856  -0.4426  -0.4056
    -0.3507  -0.3074  -0.3033  -0.2498  -0.1905  -0.1801  -0.1309  -0.0126
    -0.0076   0.1493   0.1958   0.2654   0.3676   0.4377   0.4702   0.5611
     0.6048   0.6224   0.6403   0.6486   0.6590   0.8144   0.9795   1.0266
     1.1067   1.1128   1.2257   1.2695   1.3124   1.3903   1.4190   1.4693
     1.5451   1.5522   1.5858   1.6581   1.6595   1.7308   1.7415   1.7857
     1.8206   1.8780   1.9167   2.0633   2.0710   2.1736   2.2625   2.3008
     2.3049   2.3746   2.6814   2.7084   3.3265   3.3320   3.8488   6.0529
     6.5861   6.5864   6.8005   6.8477   7.3400   7.4505   7.8957   7.9191
     8.0306   8.2002   8.2245   8.2517   8.6016   8.7165   8.7900   8.8446
     9.0014   9.0626

          k = 0.0000 0.3844 0.0000 ( 35218 PWs)   bands (ev):

   -38.0641 -37.8288 -23.2835 -22.6040 -22.5857 -22.4706 -18.5994 -18.3874
   -18.3765 -18.1192 -18.0636 -17.8433 -14.8033 -14.6773 -14.6738 -14.4843
   -14.3898 -14.2411 -14.2336 -14.0649 -14.0437 -13.8530 -13.8022 -13.7225
   -13.7062 -13.6410 -13.6406  -8.5583  -8.3239  -8.0232  -7.8563  -7.8349
    -7.7959  -7.7919  -7.7751  -7.6306  -7.4722  -7.4550  -7.3109  -3.0205
    -2.9226  -2.8796  -2.6998  -2.5324  -2.5246  -2.4855  -1.8761  -1.8722
    -1.7465  -1.7186  -1.6402  -1.5474  -1.5241  -1.5083  -1.4969  -1.2738
    -1.0040  -0.9488  -0.8432  -0.7973  -0.7262  -0.7227  -0.6966  -0.6186
    -0.5486  -0.5438  -0.5179  -0.5159  -0.3829  -0.2908  -0.2562  -0.2513
    -0.1790  -0.0302   0.0040   0.0758   0.1781   0.2656   0.3435   0.4769
     0.5930   0.6169   0.6642   0.6714   0.8104   0.9070   1.0239   1.0386
     1.0772   1.1282   1.2090   1.3147   1.3719   1.4323   1.4607   1.5043
     1.5575   1.6254   1.6509   1.6826   1.7884   1.8703   1.9521   2.0257
     2.0851   2.1180   2.1634   2.1892   2.1935   2.2739   2.2936   2.4730
     2.6529   2.6679   2.7075   2.7125   3.2976   3.3008   4.4212   6.6899
     7.0765   7.4578   7.5220   7.6793   7.9181   7.9405   8.0613   8.1099
     8.3564   8.6732   8.7236   8.8631   8.9424   9.0025   9.1345   9.2253
     9.2959   9.6945

          k = 0.0000-0.5125 0.0000 ( 35346 PWs)   bands (ev):

   -38.0618 -37.8264 -23.2643 -22.5809 -22.5627 -22.4484 -18.6754 -18.4523
   -18.3442 -18.0760 -18.0604 -17.8401 -14.7549 -14.6718 -14.6456 -14.4959
   -14.4554 -14.2852 -14.1034 -14.0946 -14.0245 -13.9247 -13.7809 -13.7740
   -13.7328 -13.6137 -13.6094  -8.5299  -8.3443  -7.9863  -7.8402  -7.8182
    -7.8041  -7.7867  -7.7783  -7.6479  -7.4251  -7.4079  -7.2672  -3.2625
    -3.0729  -3.0294  -2.8343  -2.7670  -2.7563  -2.6194  -1.9108  -1.9065
    -1.8090  -1.7642  -1.6233  -1.5995  -1.4942  -1.4380  -1.3393  -1.3141
    -1.0676  -0.9964  -0.9845  -0.9636  -0.8629  -0.8008  -0.7230  -0.6964
    -0.6528  -0.6456  -0.5616  -0.4766  -0.4258  -0.3782  -0.3434  -0.3383
    -0.2725  -0.1836  -0.0244  -0.0170   0.1726   0.1974   0.2367   0.5484
     0.5855   0.5892   0.6702   0.6770   0.8039   0.8762   1.0342   1.0743
     1.0793   1.1554   1.1649   1.3993   1.4276   1.4562   1.5006   1.5753
     1.5790   1.5855   1.6205   1.6629   1.8243   1.8275   2.0761   2.0970
     2.1403   2.1810   2.2395   2.2756   2.3304   2.5133   2.5351   2.5670
     2.5702   2.5764   2.8697   2.8748   3.1608   3.1637   4.6075   6.8366
     7.3708   7.7992   7.8756   7.9005   7.9682   7.9736   8.0666   8.2609
     8.6272   8.9046   8.9951   9.1365   9.2369   9.2564   9.2983   9.4007
     9.4768   9.6948

          k = 0.1250 0.0000 0.0000 ( 35280 PWs)   bands (ev):

   -38.0758 -37.8405 -23.3770 -22.7147 -22.6965 -22.5772 -18.5801 -18.3139
   -18.1824 -18.0698 -17.9634 -17.8449 -15.2927 -15.0889 -14.5965 -14.4752
   -14.2990 -14.2663 -14.1718 -14.1608 -14.0414 -13.9610 -13.7185 -13.7174
   -13.6231 -13.4877 -13.3324  -8.6856  -8.2115  -8.1901  -7.9644  -7.9420
    -7.8855  -7.6906  -7.6738  -7.6646  -7.6469  -7.5106  -7.4954  -2.1269
    -2.0506  -2.0341  -1.9541  -1.8143  -1.8032  -1.7993  -1.7416  -1.7384
    -1.7016  -1.6793  -1.5324  -1.5255  -0.8262  -0.8245  -0.6101  -0.5125
    -0.4186  -0.4114  -0.3992  -0.3225  -0.2235  -0.1800  -0.1122  -0.1071
    -0.1005  -0.0695  -0.0068  -0.0024   0.0465   0.1195   0.1695   0.1711
     0.2269   0.3840   0.4427   0.4482   0.5156   0.5217   0.5406   0.5537
     0.5629   0.5868   0.5940   0.5991   0.6613   0.6982   0.6998   0.7217
     0.9215   1.0155   1.0489   1.0607   1.1050   1.1635   1.2876   1.2892
     1.2932   1.4082   1.4822   1.4879   1.4971   1.5146   1.5793   1.7659
     1.7860   1.9912   2.0111   2.0409   2.0500   2.1163   2.1731   2.1908
     2.2127   2.3528   2.3872   2.4996   2.5541   2.7486   2.7557   5.3528
     5.5125   5.5586   6.0542   6.1758   6.6893   6.9390   6.9801   7.0509
     7.5364   7.9480   8.1371   8.2015   8.3476   8.3978   8.5481   8.5857
     8.8966   9.0163

          k = 0.1250 0.1281 0.0000 ( 35302 PWs)   bands (ev):

   -38.0735 -37.8382 -23.3593 -22.6939 -22.6757 -22.5571 -18.5447 -18.2783
   -18.1861 -18.1649 -17.9651 -17.9420 -15.1851 -14.9891 -14.5465 -14.4727
   -14.2988 -14.2628 -14.1440 -14.1379 -14.0410 -14.0147 -13.7177 -13.7168
   -13.6539 -13.5301 -13.3920  -8.6644  -8.3672  -8.0703  -7.9512  -7.9302
    -7.8711  -7.8381  -7.8209  -7.6645  -7.5408  -7.5236  -7.3740  -2.2338
    -2.1804  -2.1720  -1.9866  -1.8902  -1.8452  -1.8362  -1.7907  -1.7864
    -1.6941  -1.6142  -1.5887  -1.4672  -1.3614  -0.9370  -0.9308  -0.8187
    -0.7364  -0.5819  -0.5476  -0.4935  -0.4034  -0.4011  -0.3709  -0.2876
    -0.2065  -0.1831  -0.1540  -0.0731  -0.0585   0.1234   0.2069   0.2195
     0.2351   0.3219   0.3278   0.3897   0.4940   0.5307   0.5464   0.5535
     0.5831   0.6371   0.6380   0.6612   0.6741   0.7275   0.8839   0.8850
     0.8899   1.0344   1.1797   1.1876   1.2150   1.2354   1.2639   1.2744
     1.2913   1.4888   1.5085   1.5242   1.5845   1.5983   1.6152   1.6638
     1.8375   1.8890   1.8958   1.9321   1.9565   1.9602   2.2542   2.3020
     2.5326   2.5426   2.7408   2.8521   2.9825   3.0405   3.0648   5.5950
     5.8378   5.8520   6.2857   6.3963   6.9067   7.1617   7.2743   7.3074
     7.7406   8.0407   8.1380   8.2394   8.3694   8.5023   8.5705   8.6952
     8.9868   9.0149

          k = 0.1250 0.2563 0.0000 ( 35346 PWs)   bands (ev):

   -38.0680 -37.8326 -23.3158 -22.6427 -22.6245 -22.5077 -18.4548 -18.3971
   -18.1952 -18.1668 -18.1653 -17.9476 -14.9400 -14.7731 -14.5167 -14.4123
   -14.3406 -14.2853 -14.1471 -14.1019 -14.0792 -13.9977 -13.7010 -13.6908
   -13.6799 -13.6364 -13.5448  -8.6148  -8.4757  -8.0392  -7.9622  -7.9446
    -7.8963  -7.8759  -7.8334  -7.7743  -7.4967  -7.4795  -7.3370  -2.6685
    -2.5872  -2.4591  -2.2819  -2.1908  -1.9877  -1.9716  -1.8917  -1.8132
    -1.8110  -1.6946  -1.6927  -1.6820  -1.5540  -1.5467  -1.4009  -1.2067
    -0.9080  -0.8592  -0.7693  -0.7542  -0.7218  -0.6764  -0.5850  -0.5546
    -0.4789  -0.4665  -0.2445  -0.2324  -0.1558  -0.1375  -0.0751   0.0008
     0.0679   0.2272   0.2562   0.3991   0.4306   0.4591   0.4780   0.5132
     0.5855   0.5890   0.6553   0.6726   0.6839   0.7439   0.9622   1.0329
     1.2174   1.2291   1.2489   1.3157   1.3440   1.4285   1.4376   1.4802
     1.5217   1.5379   1.6514   1.6807   1.6951   1.7394   1.7574   1.7662
     1.7713   1.8895   1.9101   1.9242   2.1906   2.2720   2.2768   2.4052
     2.7675   2.8019   3.0095   3.0972   3.3317   3.3418   3.8514   6.1549
     6.6401   6.6413   6.8111   6.9417   7.3416   7.5374   7.8804   8.0846
     8.0970   8.1135   8.3263   8.3784   8.7039   8.7393   8.7826   8.8312
     9.0163   9.0923

          k = 0.1250 0.3844 0.0000 ( 35341 PWs)   bands (ev):

   -38.0624 -37.8270 -23.2714 -22.5902 -22.5719 -22.4570 -18.5934 -18.3704
   -18.3580 -18.1569 -18.0892 -17.9377 -14.7016 -14.6285 -14.6110 -14.4056
   -14.3611 -14.2332 -14.2244 -14.1075 -14.0425 -13.8922 -13.7782 -13.6997
   -13.6913 -13.6381 -13.6366  -8.5657  -8.4871  -8.0945  -7.9668  -7.9494
    -7.8659  -7.8451  -7.7987  -7.7926  -7.5447  -7.5276  -7.3831  -3.0651
    -2.9803  -2.9736  -2.7513  -2.5470  -2.5144  -2.5067  -1.9080  -1.8951
    -1.8030  -1.7277  -1.6824  -1.6800  -1.5973  -1.4811  -1.4326  -1.4170
    -1.2207  -1.1379  -1.1211  -0.9609  -0.9054  -0.8737  -0.8244  -0.6067
    -0.5702  -0.4868  -0.4287  -0.3877  -0.3843  -0.3095  -0.2499  -0.2021
    -0.1403   0.1188   0.2442   0.3009   0.3464   0.3957   0.4206   0.5341
     0.5777   0.6373   0.6619   0.6859   0.7000   0.9123   0.9788   1.1335
     1.1915   1.2709   1.2843   1.3124   1.4079   1.4971   1.5364   1.5594
     1.6124   1.6167   1.6600   1.7073   1.7946   1.9194   1.9379   2.0346
     2.1086   2.1227   2.1266   2.2857   2.2913   2.4907   2.6820   2.6865
     2.7934   2.8396   3.0269   3.0883   3.3231   3.3368   4.4141   6.7034
     6.8622   7.3519   7.3850   7.5683   7.6948   7.8228   8.0634   8.0879
     8.3575   8.6463   8.6703   9.0148   9.0859   9.1714   9.2335   9.2542
     9.4365   9.6892

          k = 0.1250-0.5125 0.0000 ( 35328 PWs)   bands (ev):

   -38.0601 -37.8247 -23.2527 -22.5680 -22.5497 -22.4356 -18.6690 -18.4459
   -18.3155 -18.1528 -18.0467 -17.9336 -14.7141 -14.6009 -14.5543 -14.4210
   -14.3902 -14.2636 -14.1085 -14.0739 -14.0710 -13.8929 -13.8280 -13.7376
   -13.7071 -13.6132 -13.6081  -8.5380  -8.4721  -8.1414  -7.9416  -7.9242
    -7.8522  -7.8309  -7.7829  -7.7782  -7.5928  -7.5757  -7.4249  -3.2615
    -3.1796  -3.1275  -2.8926  -2.7643  -2.7507  -2.6691  -1.9257  -1.9169
    -1.7922  -1.6800  -1.6622  -1.6026  -1.5825  -1.5208  -1.4610  -1.4164
    -1.3660  -1.3318  -1.1977  -1.1023  -1.0203  -0.9239  -0.8946  -0.6212
    -0.5708  -0.5368  -0.5004  -0.4455  -0.4181  -0.3407  -0.3249  -0.3108
    -0.1417   0.0826   0.1685   0.2449   0.3380   0.3596   0.3896   0.5517
     0.5739   0.6514   0.6544   0.6907   0.7482   0.9674   1.0000   1.0735
     1.2179   1.2541   1.2678   1.3816   1.4255   1.4863   1.5485   1.5759
     1.6118   1.6283   1.6981   1.7335   1.8038   1.9428   2.0330   2.1642
     2.2039   2.2639   2.3184   2.5423   2.5631   2.5695   2.7576   2.8053
     2.8489   2.8539   2.9428   2.9873   3.2197   3.2417   4.5978   6.6336
     7.3550   7.5165   7.5415   7.6216   7.6421   7.8626   7.9807   8.3402
     8.5136   9.0106   9.1606   9.1796   9.3333   9.4906   9.5062   9.5328
     9.5682   9.7143

          k = 0.2500 0.0000 0.0000 ( 35382 PWs)   bands (ev):

   -38.0715 -37.8361 -23.3396 -22.6696 -22.6513 -22.5338 -18.4983 -18.3974
   -18.2306 -18.1804 -18.0638 -17.8388 -15.0284 -14.8467 -14.6641 -14.5819
   -14.4389 -14.3768 -14.2476 -14.1340 -13.9952 -13.9787 -13.7191 -13.7117
   -13.6328 -13.6221 -13.4048  -8.7176  -8.1438  -8.1223  -7.9746  -7.9533
    -7.9016  -7.6207  -7.6039  -7.5793  -7.5614  -7.4470  -7.4155  -2.4357
    -2.3844  -2.3403  -2.0249  -1.8492  -1.8392  -1.8096  -1.7145  -1.7033
    -1.6980  -1.6065  -1.4806  -1.4683  -0.9143  -0.8911  -0.7469  -0.6376
    -0.6074  -0.5090  -0.4966  -0.4435  -0.4016  -0.3980  -0.3726  -0.3725
    -0.3474  -0.3146  -0.3127  -0.1899  -0.0970  -0.0105   0.1376   0.1506
     0.2153   0.2893   0.3091   0.3225   0.3659   0.4830   0.4934   0.4987
     0.5561   0.5583   0.5629   0.7133   0.7255   0.7337   0.7351   0.8362
     0.8844   1.0156   1.0970   1.1167   1.1332   1.1351   1.1552   1.2657
     1.3474   1.4455   1.4874   1.5676   1.5957   1.6332   1.6356   1.7065
     1.7296   1.8431   1.8943   2.0164   2.0647   2.1240   2.1399   2.1877
     2.2639   2.3033   2.5374   2.6716   2.7479   2.8935   2.8946   5.8749
     5.9647   5.9737   6.6324   6.7111   7.1638   7.3881   7.6006   7.6198
     8.0373   8.1559   8.3484   8.3528   8.4580   8.7715   8.8401   8.9921
     9.2271   9.4149

          k = 0.2500 0.1281 0.0000 ( 35364 PWs)   bands (ev):

   -38.0692 -37.8338 -23.3231 -22.6506 -22.6323 -22.5153 -18.4642 -18.3916
   -18.1968 -18.1742 -18.1638 -17.9388 -14.9235 -14.7597 -14.6080 -14.5530
   -14.3985 -14.3521 -14.2136 -14.1051 -14.0605 -13.9896 -13.7091 -13.7014
   -13.6596 -13.6279 -13.4358  -8.6993  -8.4026  -8.0137  -7.9816  -7.9620
    -7.8982  -7.8655  -7.8477  -7.6938  -7.4666  -7.4493  -7.3102  -2.5731
    -2.4891  -2.3869  -2.0783  -1.9315  -1.8925  -1.8884  -1.8230  -1.8036
    -1.7014  -1.6627  -1.5298  -1.3873  -1.3759  -0.9636  -0.9331  -0.9287
    -0.8931  -0.8522  -0.7775  -0.7546  -0.6614  -0.6094  -0.5759  -0.5056
    -0.4712  -0.2802  -0.2229  -0.1795  -0.1408   0.0536   0.1210   0.2206
     0.2643   0.2931   0.3502   0.3841   0.4105   0.4485   0.4698   0.5289
     0.5483   0.5791   0.6816   0.7605   0.7631   0.7755   0.8275   0.8967
     0.8989   1.0895   1.1444   1.2224   1.2680   1.2821   1.3622   1.3694
     1.4067   1.4215   1.4816   1.5614   1.5769   1.6011   1.7350   1.7761
     1.7831   1.7885   1.8156   1.9001   2.0051   2.0307   2.2318   2.3317
     2.8201   2.8628   3.0262   3.0488   3.0807   3.1519   3.2109   6.0176
     6.2069   6.2078   6.7378   6.8383   7.2803   7.4315   7.8495   7.8804
     7.9379   8.1585   8.2739   8.3889   8.5805   8.6798   8.8831   8.9892
     9.0979   9.2999

          k = 0.2500 0.2563 0.0000 ( 35361 PWs)   bands (ev):

   -38.0637 -37.8283 -23.2828 -22.6041 -22.5858 -22.4701 -18.3977 -18.3783
   -18.3613 -18.1777 -18.1443 -18.1052 -14.6920 -14.5917 -14.5083 -14.4433
   -14.3073 -14.3023 -14.2055 -14.1136 -14.0713 -14.0379 -13.6769 -13.6715
   -13.6690 -13.6493 -13.5265  -8.6958  -8.6156  -8.1684  -8.1511  -8.1070
    -7.9846  -7.9147  -7.8943  -7.8343  -7.5639  -7.5466  -7.4060  -2.9938
    -2.8737  -2.6132  -2.3293  -2.2644  -2.0721  -2.0379  -1.9997  -1.9206
    -1.9131  -1.7989  -1.7024  -1.7002  -1.6990  -1.4353  -1.3355  -1.3189
    -1.3061  -1.2579  -1.1265  -1.0069  -0.7971  -0.7262  -0.6822  -0.6066
    -0.5346  -0.4621  -0.2734  -0.2129  -0.1445  -0.1229  -0.1042  -0.0242
     0.0420   0.1075   0.1488   0.3992   0.4224   0.4606   0.6181   0.6860
     0.6903   0.7252   0.7627   0.8197   0.8318   0.9499   1.0219   1.2808
     1.2893   1.3557   1.4093   1.4322   1.4338   1.4426   1.4634   1.5178
     1.5368   1.5796   1.6050   1.7132   1.7638   1.7922   1.8499   1.8713
     1.8818   1.8886   2.0205   2.0493   2.1953   2.1975   2.3049   2.4547
     3.2994   3.3021   3.4304   3.4826   3.6197   3.7247   3.8606   6.3236
     6.6511   6.7211   6.7275   7.1948   7.3660   7.6665   7.7064   8.0722
     8.3753   8.3927   8.5723   8.8069   8.8459   8.9140   8.9594   9.0916
     9.1226   9.2256

          k = 0.2500 0.3844 0.0000 ( 35403 PWs)   bands (ev):

   -38.0581 -37.8227 -23.2418 -22.5565 -22.5382 -22.4238 -18.5790 -18.3618
   -18.3558 -18.2829 -18.1437 -18.0137 -14.5678 -14.4920 -14.4379 -14.2816
   -14.2584 -14.2404 -14.2355 -14.1824 -13.9911 -13.9644 -13.7218 -13.6571
   -13.6259 -13.6254 -13.6203  -8.7866  -8.5870  -8.3255  -8.2751  -8.2577
    -8.0841  -7.8933  -7.8727  -7.8245  -7.8006  -7.7836  -7.6258  -3.4083
    -3.2878  -2.9966  -2.9021  -2.7031  -2.4905  -2.4881  -2.0977  -2.0599
    -1.9944  -1.8123  -1.8067  -1.7989  -1.7679  -1.7100  -1.6708  -1.5707
    -1.3399  -1.3291  -1.2461  -1.1562  -0.8935  -0.8020  -0.7949  -0.6709
    -0.5606  -0.4914  -0.4206  -0.3755  -0.2968  -0.2631  -0.2615  -0.1229
    -0.1173  -0.0055   0.0798   0.4015   0.4448   0.5097   0.7106   0.7579
     0.7797   0.8472   0.8608   0.9125   1.0644   1.1240   1.3420   1.3508
     1.3642   1.3676   1.4931   1.5680   1.5857   1.6526   1.6819   1.7055
     1.7225   1.7838   1.8127   1.8596   1.8615   1.8739   2.0095   2.0502
     2.0770   2.0989   2.2042   2.3061   2.3206   2.5032   2.6160   2.6203
     3.2267   3.2302   3.7085   3.7724   3.8876   3.9777   4.3936   6.1165
     6.7646   6.8875   6.9099   7.1858   7.4395   7.8962   8.0494   8.2532
     8.4507   8.7450   8.7705   9.0843   9.2797   9.4104   9.4715   9.6152
     9.7462   9.7792

          k = 0.2500-0.5125 0.0000 ( 35406 PWs)   bands (ev):

   -38.0558 -37.8204 -23.2246 -22.5365 -22.5182 -22.4044 -18.6534 -18.4302
   -18.3561 -18.2422 -18.1380 -17.9727 -14.6105 -14.4834 -14.3357 -14.2930
   -14.2424 -14.2170 -14.2160 -14.0853 -14.0009 -13.8845 -13.8180 -13.6471
   -13.6367 -13.6100 -13.6046  -8.7764  -8.5697  -8.4601  -8.2597  -8.2421
    -8.0830  -7.9601  -7.9430  -7.8795  -7.8585  -7.8201  -7.7570  -3.5717
    -3.4536  -3.2192  -3.0835  -2.8651  -2.7280  -2.7269  -2.0906  -2.0509
    -1.9621  -1.9602  -1.8284  -1.8173  -1.8015  -1.7236  -1.7010  -1.6909
    -1.4355  -1.3551  -1.2738  -1.1646  -0.9561  -0.8307  -0.8270  -0.6480
    -0.5552  -0.5465  -0.4647  -0.4520  -0.3671  -0.3289  -0.3178  -0.1454
    -0.1094  -0.0163   0.0582   0.4015   0.4541   0.5430   0.7293   0.7717
     0.7889   0.8891   0.9162   0.9224   1.2165   1.2339   1.3976   1.4541
     1.4592   1.4595   1.5129   1.5619   1.5766   1.6529   1.6954   1.7180
     1.7310   1.7856   1.7982   1.9228   1.9279   2.0168   2.1071   2.1341
     2.1395   2.2343   2.2752   2.5005   2.5583   2.5643   2.7942   2.7989
     3.0676   3.0726   3.7663   3.8337   3.9417   4.0270   4.5657   5.9434
     6.7973   6.8386   6.8876   7.1214   7.6746   7.8327   8.0601   8.3742
     8.5773   8.8302   9.3635   9.3673   9.3900   9.5750   9.6416   9.7377
     9.8476   9.8827

          k = 0.3750 0.0000 0.0000 ( 35398 PWs)   bands (ev):

   -38.0671 -37.8317 -23.3014 -22.6233 -22.6049 -22.4893 -18.5866 -18.4096
   -18.3707 -18.1403 -18.0577 -17.8326 -14.7909 -14.7607 -14.7187 -14.6850
   -14.4905 -14.4831 -14.3601 -14.1357 -13.9875 -13.9149 -13.7551 -13.7083
   -13.7000 -13.6382 -13.4532  -8.7275  -8.0739  -8.0735  -7.9760  -7.9549
    -7.9000  -7.5614  -7.5448  -7.4899  -7.4719  -7.4078  -7.3322  -2.7591
    -2.6987  -2.6062  -2.3325  -1.9177  -1.9100  -1.7291  -1.6489  -1.5819
    -1.5786  -1.5614  -1.4340  -1.3653  -0.9748  -0.9359  -0.8827  -0.8727
    -0.7944  -0.7800  -0.7163  -0.6689  -0.6294  -0.5427  -0.5364  -0.5355
    -0.4947  -0.4618  -0.3899  -0.3827  -0.1551  -0.1379  -0.0467  -0.0296
     0.0255   0.1216   0.1341   0.1908   0.4338   0.4907   0.5130   0.5220
     0.5425   0.5494   0.6617   0.7726   0.7826   0.7939   0.8036   0.8424
     0.8566   0.9584   0.9595   1.0870   1.1643   1.2246   1.3104   1.3387
     1.4332   1.5246   1.5302   1.5484   1.6060   1.6375   1.6410   1.7076
     1.8674   1.9155   1.9578   1.9756   2.0529   2.0979   2.1709   2.1975
     2.3222   2.3616   2.5678   2.7090   2.7357   2.9834   3.0003   6.4029
     6.6020   6.6032   7.0190   7.3164   7.6726   7.9033   8.1032   8.1119
     8.1128   8.3013   8.4545   8.5558   8.7602   8.8701   9.0364   9.2446
     9.4530   9.5495

          k = 0.3750 0.1281 0.0000 ( 35342 PWs)   bands (ev):

   -38.0648 -37.8294 -23.2863 -22.6063 -22.5879 -22.4726 -18.5793 -18.3767
   -18.3634 -18.1560 -18.1075 -17.9309 -14.7320 -14.6861 -14.6662 -14.6037
   -14.4477 -14.4005 -14.3140 -14.1027 -14.0548 -13.9059 -13.7284 -13.7007
   -13.6837 -13.6638 -13.4626  -8.7110  -8.3428  -8.0699  -7.9767  -7.9564
    -7.9002  -7.8081  -7.7906  -7.6377  -7.5226  -7.5053  -7.3715  -2.9063
    -2.8152  -2.6618  -2.3901  -1.9498  -1.9282  -1.8603  -1.7756  -1.7500
    -1.6890  -1.5610  -1.4825  -1.4034  -1.3299  -1.2417  -1.1763  -1.1729
    -0.9713  -0.9322  -0.9277  -0.8802  -0.7974  -0.7083  -0.6540  -0.5660
    -0.5599  -0.4555  -0.3493  -0.3005  -0.2456  -0.0343   0.0039   0.1278
     0.1898   0.2226   0.3095   0.3122   0.4277   0.4558   0.4785   0.5049
     0.5244   0.6525   0.7509   0.8094   0.8398   0.8407   0.9172   0.9478
     0.9528   1.0791   1.1767   1.1978   1.2356   1.2827   1.3894   1.4215
     1.4462   1.4998   1.5081   1.5582   1.6346   1.6716   1.6820   1.7626
     1.8420   1.8874   1.9862   1.9883   2.0753   2.0897   2.1332   2.3371
     2.9314   2.9654   3.0600   3.0762   3.1069   3.3024   3.3422   6.4072
     6.7252   6.7278   6.9241   7.4037   7.6095   7.7624   7.7856   8.0696
     8.1772   8.2019   8.5860   8.8439   8.8968   8.9946   9.0131   9.2436
     9.3957   9.6454

          k = 0.3750 0.2563 0.0000 ( 35387 PWs)   bands (ev):

   -38.0593 -37.8239 -23.2493 -22.5647 -22.5464 -22.4318 -18.5619 -18.3712
   -18.3457 -18.2935 -18.1482 -18.0221 -14.6090 -14.5389 -14.5026 -14.4181
   -14.3100 -14.2853 -14.2213 -14.1762 -14.0221 -13.9225 -13.6821 -13.6676
   -13.6489 -13.6462 -13.5022  -8.7482  -8.6336  -8.3124  -8.2175  -8.2000
    -8.0372  -7.9331  -7.9126  -7.8494  -7.7913  -7.7743  -7.6258  -3.3458
    -3.2139  -2.8929  -2.6172  -2.2396  -2.1357  -2.0963  -2.0310  -1.9252
    -1.9246  -1.8681  -1.8038  -1.7120  -1.7083  -1.7055  -1.6695  -1.5500
    -1.3061  -1.2138  -1.1414  -1.0724  -0.7643  -0.6997  -0.6446  -0.6071
    -0.5973  -0.4870  -0.3715  -0.3171  -0.1801  -0.1427  -0.1375  -0.1101
    -0.0017   0.0341   0.0758   0.4334   0.4827   0.6004   0.7504   0.7906
     0.8016   0.8810   0.9465   0.9791   1.0128   1.1289   1.3266   1.3356
     1.3711   1.3783   1.4347   1.4611   1.4984   1.5272   1.5399   1.5623
     1.6514   1.6666   1.7269   1.7464   1.7625   1.8254   1.8846   1.9628
     2.0188   2.0492   2.0816   2.1023   2.1052   2.1606   2.3233   2.3600
     3.2988   3.3029   3.8150   3.8661   3.8731   3.9793   4.0647   6.0391
     6.6992   6.7010   6.7501   7.1699   7.4356   7.7644   7.8920   8.2713
     8.4182   8.4395   8.8359   9.0783   9.1821   9.2702   9.3417   9.4074
     9.5625   9.6055

          k = 0.3750 0.3844 0.0000 ( 35453 PWs)   bands (ev):

   -38.0538 -37.8184 -23.2118 -22.5223 -22.5040 -22.3901 -18.5658 -18.5414
   -18.3433 -18.3243 -18.2042 -17.9330 -14.4961 -14.3985 -14.3852 -14.3037
   -14.2430 -14.2294 -14.1867 -14.1199 -13.9490 -13.8270 -13.6656 -13.6253
   -13.6126 -13.6087 -13.5406  -8.9978  -8.6384  -8.5882  -8.4839  -8.4663
    -8.2901  -8.1202  -8.1034  -7.9279  -7.9208  -7.9002  -7.8457  -3.7982
    -3.6598  -3.2553  -2.9820  -2.9063  -2.4648  -2.4604  -2.2334  -2.2018
    -2.2005  -2.1182  -2.0480  -1.9619  -1.8157  -1.8113  -1.7092  -1.6967
    -1.4862  -1.2527  -1.0607  -0.9441  -0.8589  -0.8462  -0.7778  -0.6861
    -0.6672  -0.5205  -0.4426  -0.3827  -0.3486  -0.3310  -0.3082  -0.2366
    -0.0825   0.0815   0.0839   0.4130   0.5956   0.6476   0.8699   0.9656
     1.0650   1.1673   1.2087   1.2142   1.3597   1.4871   1.5018   1.5046
     1.5627   1.5821   1.6927   1.6977   1.7164   1.7541   1.7847   1.7903
     1.8301   1.9250   1.9405   2.0197   2.0266   2.0285   2.0519   2.0880
     2.0959   2.1750   2.2628   2.3316   2.3504   2.5376   2.5415   2.5619
     3.2157   3.2239   4.3399   4.3958   4.4328   4.4715   4.5614   5.4758
     6.3357   6.3407   6.5825   6.8844   7.5443   7.7924   8.2432   8.4583
     8.6262   8.9058   8.9996   9.0441   9.1025   9.3655   9.4725   9.6402
     9.7412   9.7731

          k = 0.3750-0.5125 0.0000 ( 35450 PWs)   bands (ev):

   -38.0515 -37.8161 -23.1960 -22.5045 -22.4861 -22.3726 -18.6379 -18.5361
   -18.4146 -18.3198 -18.1651 -17.8938 -14.4983 -14.4008 -14.3398 -14.2511
   -14.2474 -14.1862 -14.0891 -14.0454 -13.9255 -13.7599 -13.7451 -13.6063
   -13.6009 -13.5800 -13.5261  -9.0783  -8.7700  -8.5826  -8.5629  -8.5452
    -8.3777  -8.2754  -8.2588  -8.0612  -7.9171  -7.8947  -7.8406  -3.9793
    -3.8415  -3.4229  -3.1564  -3.1461  -2.7033  -2.6985  -2.3419  -2.2499
    -2.2195  -2.1866  -2.1304  -1.9725  -1.8112  -1.8065  -1.7471  -1.7063
    -1.5444  -1.2857  -1.0739  -0.9775  -0.9320  -0.8126  -0.7429  -0.7411
    -0.7288  -0.5508  -0.5267  -0.4528  -0.4280  -0.3747  -0.3274  -0.2784
    -0.0676   0.1126   0.1162   0.4203   0.6370   0.6603   0.8847   1.0076
     1.1773   1.2360   1.3288   1.3454   1.4920   1.5388   1.5950   1.6083
     1.6131   1.7082   1.7577   1.8047   1.8220   1.8752   1.8938   1.8985
     1.9180   1.9591   1.9742   1.9989   2.0069   2.0839   2.1612   2.2091
     2.2400   2.2547   2.4159   2.5684   2.5783   2.5831   2.7334   2.7381
     3.0427   3.0545   4.4811   4.5628   4.6046   4.6348   4.7205   5.2452
     6.1381   6.1437   6.5007   6.7971   7.6388   7.7939   8.2892   8.5346
     8.6180   8.8122   9.0618   9.2153   9.3589   9.4136   9.5129   9.5955
     9.6546   9.7723

          k =-0.5000 0.0000 0.0000 ( 35346 PWs)   bands (ev):

   -38.0653 -37.8299 -23.2854 -22.6037 -22.5854 -22.4706 -18.6587 -18.4434
   -18.3712 -18.1011 -18.0552 -17.8301 -14.8411 -14.7665 -14.7529 -14.5984
   -14.5507 -14.4271 -14.3960 -14.1616 -13.9761 -13.8939 -13.8066 -13.6944
   -13.6941 -13.6489 -13.4678  -8.7268  -8.0588  -8.0442  -7.9754  -7.9540
    -7.8947  -7.5386  -7.5222  -7.4516  -7.4335  -7.3966  -7.2965  -2.8827
    -2.8232  -2.7211  -2.4589  -1.9444  -1.9373  -1.7273  -1.6154  -1.6090
    -1.5047  -1.4689  -1.3616  -1.1958  -1.1586  -1.0399  -1.0123  -0.9988
    -0.8309  -0.7968  -0.7595  -0.6737  -0.6586  -0.6322  -0.6287  -0.6230
    -0.5867  -0.5780  -0.3852  -0.3841  -0.3768  -0.1587  -0.1487  -0.0844
    -0.0461   0.0542   0.1286   0.1386   0.4870   0.5028   0.5281   0.5331
     0.5369   0.5439   0.6878   0.7874   0.7896   0.7975   0.8299   0.8677
     0.8694   0.8746   0.9123   1.1016   1.2699   1.2887   1.3457   1.3894
     1.4790   1.5113   1.5473   1.5712   1.5723   1.6237   1.6470   1.6526
     1.9211   1.9260   1.9738   1.9745   2.0912   2.2034   2.2157   2.2805
     2.3058   2.3437   2.5711   2.6978   2.7002   2.9852   3.0134   6.7104
     6.9857   7.3418   7.3716   7.4529   7.4557   7.6126   7.9825   8.0573
     8.0941   8.2824   8.6523   8.7331   8.8544   9.2678   9.2841   9.4217
     9.4745   9.4932

          k =-0.5000 0.1281 0.0000 ( 35340 PWs)   bands (ev):

   -38.0630 -37.8276 -23.2708 -22.5876 -22.5692 -22.4547 -18.6510 -18.4355
   -18.3389 -18.1527 -18.0690 -17.9275 -14.7873 -14.7004 -14.6985 -14.5097
   -14.4824 -14.3930 -14.2981 -14.1290 -14.0427 -13.8629 -13.7680 -13.6959
   -13.6768 -13.6758 -13.4698  -8.7086  -8.2382  -8.1825  -7.9710  -7.9502
    -7.8915  -7.6738  -7.6629  -7.6574  -7.6449  -7.5210  -7.5005  -3.0353
    -2.9458  -2.7849  -2.5230  -1.9640  -1.9479  -1.8512  -1.7507  -1.7246
    -1.5189  -1.4884  -1.4681  -1.4136  -1.4118  -1.3882  -1.3355  -1.3237
    -1.0191  -0.9862  -0.9375  -0.9322  -0.8203  -0.6865  -0.5705  -0.5632
    -0.5506  -0.5302  -0.5007  -0.3499  -0.2688  -0.0853  -0.0480   0.1127
     0.1477   0.1681   0.2365   0.2681   0.3857   0.4840   0.4919   0.5155
     0.5176   0.7057   0.7557   0.8142   0.8343   0.8366   1.0072   1.0301
     1.0363   1.0770   1.1703   1.1837   1.1945   1.3005   1.4274   1.4588
     1.4845   1.4947   1.5142   1.5847   1.5891   1.6358   1.6597   1.7743
     1.9145   1.9304   1.9914   1.9993   2.0778   2.1630   2.2715   2.3263
     2.9530   2.9801   3.0637   3.0696   3.0992   3.3258   3.3497   6.5230
     6.9552   7.1746   7.1879   7.5838   7.7091   7.7125   7.7652   7.8043
     7.9138   8.1358   8.8115   9.1405   9.1568   9.3277   9.3772   9.4499
     9.5226   9.5739

          k =-0.5000 0.2563 0.0000 ( 35398 PWs)   bands (ev):

   -38.0575 -37.8221 -23.2353 -22.5481 -22.5298 -22.4157 -18.6322 -18.4166
   -18.3667 -18.2573 -18.1435 -17.9854 -14.6563 -14.5561 -14.5126 -14.4016
   -14.3100 -14.2263 -14.2039 -14.1530 -14.0504 -13.7866 -13.7419 -13.6747
   -13.6394 -13.6363 -13.4908  -8.6960  -8.6336  -8.4758  -8.1396  -8.1216
    -7.9850  -7.9780  -7.9686  -7.9391  -7.9186  -7.8463  -7.8073  -3.4875
    -3.3553  -3.0287  -2.7596  -2.2287  -2.1506  -2.1079  -2.0214  -1.9585
    -1.9282  -1.9188  -1.8598  -1.8150  -1.7122  -1.7098  -1.7033  -1.6334
    -1.3817  -1.1695  -1.1532  -1.0438  -0.7343  -0.6974  -0.6313  -0.5578
    -0.5470  -0.5448  -0.3991  -0.3812  -0.1958  -0.1645  -0.1603  -0.1160
     0.0108   0.0236   0.0319   0.4335   0.5004   0.6933   0.7838   0.8110
     0.8884   0.9505   1.0024   1.0204   1.0380   1.2868   1.3424   1.3691
     1.4489   1.4598   1.4745   1.5462   1.5616   1.5659   1.5900   1.5914
     1.6349   1.6430   1.6586   1.6882   1.7773   1.8311   2.0250   2.0296
     2.0522   2.0540   2.1074   2.1110   2.1189   2.1861   2.2383   2.3115
     3.2948   3.2997   3.8613   3.9367   3.9822   4.0724   4.1540   5.8618
     6.6588   6.6657   6.7526   7.0923   7.6189   7.7011   8.0387   8.4139
     8.5153   8.5188   8.9077   9.0306   9.3236   9.3726   9.4662   9.5147
     9.6055   9.6345

          k =-0.5000 0.3844 0.0000 ( 35518 PWs)   bands (ev):

   -38.0521 -37.8166 -23.1992 -22.5079 -22.4896 -22.3760 -18.6135 -18.5576
   -18.3977 -18.3342 -18.1697 -17.8979 -14.5223 -14.3872 -14.3766 -14.2818
   -14.2472 -14.2302 -14.1961 -13.9864 -13.9761 -13.7100 -13.6406 -13.6266
   -13.6119 -13.6069 -13.5053  -9.0555  -8.7647  -8.6117  -8.5332  -8.5154
    -8.3493  -8.2789  -8.2624  -8.0747  -7.9352  -7.9133  -7.8532  -3.9586
    -3.8169  -3.3961  -3.1232  -2.8949  -2.4536  -2.4486  -2.3445  -2.2671
    -2.2373  -2.1861  -2.1473  -2.0017  -1.8148  -1.8109  -1.7348  -1.7038
    -1.5303  -1.2469  -0.9729  -0.9051  -0.8643  -0.8519  -0.8408  -0.6459
    -0.6407  -0.5888  -0.4508  -0.3974  -0.3807  -0.3720  -0.2962  -0.2748
    -0.0779   0.1330   0.1346   0.4119   0.6222   0.7630   0.9089   1.0560
     1.2218   1.2896   1.3957   1.4304   1.4507   1.5220   1.5495   1.5624
     1.6061   1.6522   1.7109   1.7432   1.7573   1.8407   1.8546   1.9131
     1.9394   1.9474   1.9679   1.9831   2.0317   2.0401   2.0546   2.1586
     2.2127   2.2325   2.3421   2.3549   2.4336   2.4895   2.5004   2.5037
     3.2120   3.2220   4.3536   4.5994   4.6575   4.6756   4.7612   5.2213
     6.0970   6.1040   6.4822   6.7787   7.6635   7.7048   8.3542   8.5654
     8.6809   8.8285   8.8809   9.0029   9.3033   9.4486   9.4955   9.5879
     9.6607   9.7122

          k =-0.5000-0.5125 0.0000 ( 35476 PWs)   bands (ev):

   -38.0498 -37.8143 -23.1841 -22.4911 -22.4727 -22.3593 -18.6314 -18.6057
   -18.4081 -18.3899 -18.1314 -17.8595 -14.4664 -14.4486 -14.3006 -14.2471
   -14.2101 -14.2043 -14.0904 -13.9502 -13.8936 -13.7152 -13.6807 -13.6034
   -13.5991 -13.5523 -13.4748  -9.2038  -8.8841  -8.6853  -8.6674  -8.5923
    -8.4977  -8.3963  -8.3798  -8.1800  -7.9333  -7.9098  -7.8492  -4.1481
    -4.0060  -3.5644  -3.2912  -3.1436  -2.6916  -2.6863  -2.4757  -2.3208
    -2.2949  -2.2665  -2.1704  -2.0236  -1.8029  -1.7989  -1.7698  -1.6986
    -1.5768  -1.2788  -0.9836  -0.9441  -0.9325  -0.8815  -0.8026  -0.7003
    -0.6873  -0.6181  -0.5406  -0.4686  -0.4641  -0.3826  -0.3815  -0.2584
    -0.0769   0.1748   0.1776   0.4209   0.6680   0.7823   0.9277   1.1292
     1.4102   1.4519   1.5070   1.5587   1.5940   1.6077   1.6148   1.6168
     1.6365   1.6685   1.7445   1.8314   1.8885   1.9008   1.9941   2.0093
     2.0556   2.0754   2.0764   2.1007   2.1132   2.1183   2.1242   2.2030
     2.2688   2.3860   2.5633   2.5977   2.6030   2.6637   2.7061   2.7107
     3.0349   3.0494   4.4824   4.8160   4.8825   4.9019   4.9671   4.9785
     5.8474   5.8544   6.3761   6.6835   7.6440   7.7140   8.4410   8.5171
     8.6344   8.7862   8.9945   9.0252   9.2420   9.3280   9.3338   9.3977
     9.5580   9.6360

     the Fermi energy is     3.0088 ev

!    total energy              =   -1868.80051401 Ry
     Harris-Foulkes estimate   =   -1868.80051384 Ry
     estimated scf accuracy    <       0.00000058 Ry

     The total energy is the sum of the following terms:

     one-electron contribution =  -29635.75147189 Ry
     hartree contribution      =   14972.34605862 Ry
     xc contribution           =    -642.21746477 Ry
     ewald contribution        =   13436.83089664 Ry
     smearing contrib. (-TS)   =      -0.00853261 Ry

     convergence has been achieved in  34 iterations

     negative rho (up, down):  9.048E-02 0.000E+00

     Forces acting on atoms (cartesian axes, Ry/au):

     atom    1 type  3   force =     0.00000000    0.00000000    0.00004347
     atom    2 type  2   force =     0.00000000    0.00000000    0.00102440
     atom    3 type  3   force =     0.00000000    0.00000000   -0.00006634
     atom    4 type  1   force =     0.00000000    0.00000000   -0.00013801
     atom    5 type  2   force =     0.00000000    0.00000000   -0.00070337
     atom    6 type  3   force =     0.00000000    0.00000000    0.00015434
     atom    7 type  3   force =     0.00000000    0.00000000   -0.00001965
     atom    8 type  4   force =     0.00000000    0.00000000   -0.00033097
     atom    9 type  3   force =     0.00000000    0.00000000    0.00049677
     atom   10 type  3   force =     0.00000000    0.00000000    0.00080759
     atom   11 type  2   force =     0.00000000    0.00000000   -0.00140145
     atom   12 type  1   force =     0.00000000    0.00000000   -0.00284338
     atom   13 type  3   force =     0.00000000    0.00000000    0.00191605
     atom   14 type  3   force =     0.00000000    0.00000000    0.01006282
     atom   15 type  2   force =     0.00000000    0.00000000   -0.00495426
     atom   16 type  3   force =     0.00000000    0.00000000    0.01338691
     atom   17 type  1   force =     0.00000000    0.00000000   -0.00480727
     atom   18 type  2   force =     0.00000000    0.00000000    0.00786589
     atom   19 type  3   force =     0.00000000    0.00000000    0.00508422
     atom   20 type  3   force =     0.00000000    0.00000000    0.00052210
     atom   21 type  4   force =     0.00000000    0.00000000   -0.03300641
     atom   22 type  3   force =     0.00000000    0.00000000    0.00250493
     atom   23 type  3   force =     0.00000000    0.00000000    0.00376909
     atom   24 type  2   force =     0.00000000    0.00000000    0.00215012
     atom   25 type  1   force =     0.00000000    0.00000000   -0.00108918
     atom   26 type  3   force =     0.00000000    0.00000000    0.00127401
     atom   27 type  2   force =     0.00000000    0.00000000   -0.00210723
     atom   28 type  3   force =     0.00000000    0.00000000    0.00040482

     Total force =     0.039426     Total SCF correction =     0.003792


     Computing stress (Cartesian axis) and pressure


     negative rho (up, down):  9.048E-02 0.000E+00
          total   stress  (Ry/bohr**3)                   (kbar)     P=       -6.76
  -0.00006407   0.00000000   0.00000000           -9.42        0.00        0.00
   0.00000000  -0.00003676   0.00000000            0.00       -5.41        0.00
   0.00000000   0.00000000  -0.00003705            0.00        0.00       -5.45

 
     init_run     :     10.31s CPU     10.67s WALL (       1 calls)
     electrons    :    654.07s CPU    674.17s WALL (       1 calls)
     forces       :      4.27s CPU      4.44s WALL (       1 calls)
     stress       :     44.87s CPU     45.39s WALL (       1 calls)

     Called by init_run:
     wfcinit      :      7.25s CPU      7.40s WALL (       1 calls)
     potinit      :      0.66s CPU      0.67s WALL (       1 calls)
     hinit0       :      1.12s CPU      1.13s WALL (       1 calls)

     Called by electrons:
     c_bands      :    504.45s CPU    514.83s WALL (      34 calls)
     sum_band     :     99.52s CPU    104.80s WALL (      34 calls)
     v_of_rho     :      3.66s CPU      3.70s WALL (      35 calls)
     newd         :     23.80s CPU     28.07s WALL (      35 calls)
     mix_rho      :     22.96s CPU     23.18s WALL (      34 calls)

     Called by c_bands:
     init_us_2    :      3.16s CPU      3.18s WALL (    1775 calls)
     cegterg      :    476.64s CPU    486.53s WALL (     850 calls)

     Called by sum_band:
     sum_band:bec :      0.23s CPU      0.23s WALL (     850 calls)
     addusdens    :     22.09s CPU     26.61s WALL (      34 calls)

     Called by *egterg:
     h_psi        :    215.12s CPU    221.83s WALL (    3734 calls)
     s_psi        :     19.45s CPU     19.57s WALL (    3734 calls)
     g_psi        :      0.61s CPU      0.62s WALL (    2859 calls)
     cdiaghg      :    112.47s CPU    113.00s WALL (    3709 calls)

     Called by h_psi:
     h_psi:calbec :     28.49s CPU     29.54s WALL (    3734 calls)
     vloc_psi     :    165.44s CPU    168.16s WALL (    3734 calls)
     add_vuspsi   :     20.34s CPU     21.89s WALL (    3734 calls)

     General routines
     calbec       :     69.42s CPU     70.61s WALL (    4709 calls)
     fft          :      3.95s CPU      3.98s WALL (     478 calls)
     ffts         :     10.57s CPU     10.67s WALL (   15556 calls)
     fftw         :    193.13s CPU    196.21s WALL (  609642 calls)
     interpolate  :      0.27s CPU      0.27s WALL (      35 calls)
 
     Parallel routines
     fft_scatt_xy :     22.05s CPU     22.35s WALL (  625676 calls)
     fft_scatt_yz :    130.61s CPU    132.61s WALL (  625676 calls)
 
     PWSCF        :  11m54.44s CPU  12m15.71s WALL

 
   This run was terminated on:  17:21:15   5May2021            

=------------------------------------------------------------------------------=
   JOB DONE.
=------------------------------------------------------------------------------=
[1620249675.449610] [holy7c06405:204753:0]          mpool.c:43   UCX  WARN  object 0x3ff7300 was not returned to mpool ucp_requests
[1620249675.449626] [holy7c06405:204753:0]          mpool.c:43   UCX  WARN  object 0x3ff7680 was not returned to mpool ucp_requests
[1620249675.447946] [holy7c06410:259517:0]          mpool.c:43   UCX  WARN  object 0x2f21480 was not returned to mpool ucp_requests
[1620249675.453154] [holy7c06501:192859:0]          mpool.c:43   UCX  WARN  object 0x46e2f40 was not returned to mpool ucp_requests
[1620249675.456828] [holy7c06503:230195:0]          mpool.c:43   UCX  WARN  object 0x2fafe00 was not returned to mpool ucp_requests
[1620249675.453277] [holy7c06304:12846:0]          mpool.c:43   UCX  WARN  object 0x3cda9c0 was not returned to mpool ucp_requests
[1620249675.455592] [holy7c06305:4155 :0]          mpool.c:43   UCX  WARN  object 0x35f2040 was not returned to mpool ucp_requests
[1620249675.459104] [holy7c06411:148535:0]          mpool.c:43   UCX  WARN  object 0x2d91d80 was not returned to mpool ucp_requests
[1620249675.459126] [holy7c06411:148535:0]          mpool.c:43   UCX  WARN  object 0x2d92800 was not returned to mpool ucp_requests
