
     Program PWSCF v.6.5 starts on  5May2021 at 18: 6:20 

     This program is part of the open-source Quantum ESPRESSO suite
     for quantum simulation of materials; please cite
         "P. Giannozzi et al., J. Phys.:Condens. Matter 21 395502 (2009);
         "P. Giannozzi et al., J. Phys.:Condens. Matter 29 465901 (2017);
          URL http://www.quantum-espresso.org", 
     in publications or presentations arising from this work. More details at
     http://www.quantum-espresso.org/quote

     Parallel version (MPI), running on    20 processors

     MPI processes distributed on     7 nodes
     R & G space division:  proc/nbgrp/npool/nimage =      20
     Reading input from YBCO_Y_cleave_3.5_sep_scf.pwi
Warning: card &IONS ignored
Warning: card     ION_DYNAMICS = 'BFGS' ignored
Warning: card / ignored
Warning: card &CELL ignored
Warning: card     CELL_DYNAMICS = 'BFGS' ignored
Warning: card / ignored

     Current dimensions of program PWSCF are:
     Max number of different atomic species (ntypx) = 10
     Max number of k-points (npk) =  40000
     Max angular momentum in pseudopotentials (lmaxx) =  3

     Subspace diagonalization in iterative solution of the eigenvalue problem:
     one sub-group per band group will be used
     scalapack distributed-memory algorithm (size of sub-group:  4*  4 procs)

     Message from routine setup:
     using ibrav=0 with symmetry is DISCOURAGED, use correct ibrav instead
 
     Parallelization info
     --------------------
     sticks:   dense  smooth     PW     G-vecs:    dense   smooth      PW
     Min         150      50     14                76742    14760    2302
     Max         151      52     15                76785    14783    2351
     Sum        3015    1011    293              1535249   295383   46557
 


     bravais-lattice index     =            0
     lattice parameter (alat)  =       7.3477  a.u.
     unit-cell volume          =    4705.1293 (a.u.)^3
     number of atoms/cell      =           28
     number of atomic types    =            4
     number of electrons       =       229.00
     number of Kohn-Sham states=          138
     kinetic-energy cutoff     =      60.0000  Ry
     charge density cutoff     =     720.0000  Ry
     convergence threshold     =      1.0E-06
     mixing beta               =       0.2000
     number of iterations used =           10  local-TF  mixing
     Exchange-correlation= SLA PW PBE PBE
                           (   1   4   3   4   0   0   0)

     celldm(1)=   7.347715  celldm(2)=   0.000000  celldm(3)=   0.000000
     celldm(4)=   0.000000  celldm(5)=   0.000000  celldm(6)=   0.000000

     crystal axes: (cart. coord. in units of alat)
               a(1) = (   1.000000   0.000000   0.000000 )  
               a(2) = (   0.000000   0.975577   0.000000 )  
               a(3) = (   0.000000   0.000000  12.157743 )  

     reciprocal axes: (cart. coord. in units 2 pi/alat)
               b(1) = (  1.000000  0.000000  0.000000 )  
               b(2) = (  0.000000  1.025034  0.000000 )  
               b(3) = (  0.000000  0.000000  0.082252 )  


     PseudoPot. # 1 for Ba read from file:
     /n/holyscratch01/hoffman_lab/ruizhe/YBCO_Project/pseudo/Ba.pbe-nsp-van.UPF
     MD5 check sum: 2b9c31dd849566dd297d80989662b7a0
     Pseudo is Ultrasoft + core correction, Zval = 10.0
     Generated by new atomic code, or converted to UPF format
     Using radial grid of  907 points,  6 beta functions with: 
                l(1) =   0
                l(2) =   0
                l(3) =   1
                l(4) =   1
                l(5) =   2
                l(6) =   2
     Q(r) pseudized with  6 coefficients,  rinner =    1.200   1.200   1.200
                                                       1.200   1.200

     PseudoPot. # 2 for Cu read from file:
     /n/holyscratch01/hoffman_lab/ruizhe/YBCO_Project/pseudo/Cu.pbe-n-van_ak.UPF
     MD5 check sum: 34e3282627ffb533726feb647e090d62
     Pseudo is Ultrasoft + core correction, Zval = 11.0
     Generated by new atomic code, or converted to UPF format
     Using radial grid of  867 points,  6 beta functions with: 
                l(1) =   0
                l(2) =   0
                l(3) =   1
                l(4) =   1
                l(5) =   2
                l(6) =   2
     Q(r) pseudized with  8 coefficients,  rinner =    1.400   1.400   1.400
                                                       1.400   1.400

     PseudoPot. # 3 for O  read from file:
     /n/holyscratch01/hoffman_lab/ruizhe/YBCO_Project/pseudo/O.pbe-van_ak.UPF
     MD5 check sum: 783ce7fe4c79b6a4916957118fed0856
     Pseudo is Ultrasoft, Zval =  6.0
     Generated by new atomic code, or converted to UPF format
     Using radial grid of  737 points,  4 beta functions with: 
                l(1) =   0
                l(2) =   0
                l(3) =   1
                l(4) =   1
     Q(r) pseudized with  8 coefficients,  rinner =    0.800   0.800   0.800


     PseudoPot. # 4 for Y  read from file:
     /n/holyscratch01/hoffman_lab/ruizhe/YBCO_Project/pseudo/Y.pbe-nsp-van.UPF
     MD5 check sum: 4412fed3ab108fed87a1b7d6a69a4a38
     Pseudo is Ultrasoft + core correction, Zval = 11.0
     Generated by new atomic code, or converted to UPF format
     Using radial grid of  885 points,  6 beta functions with: 
                l(1) =   0
                l(2) =   0
                l(3) =   1
                l(4) =   1
                l(5) =   2
                l(6) =   2
     Q(r) pseudized with  6 coefficients,  rinner =    1.200   1.200   1.200
                                                       1.200   1.200

     atomic species   valence    mass     pseudopotential
        Ba            10.00   137.32700     Ba( 1.00)
        Cu            11.00    63.54600     Cu( 1.00)
        O              6.00    15.99900     O ( 1.00)
        Y             11.00    88.90584     Y ( 1.00)

      4 Sym. Ops. (no inversion) found



   Cartesian axes

     site n.     atom                  positions (alat units)
         1           O   tau(   1) = (   0.0000000   0.4877884  -0.0257983  )
         2           Cu  tau(   2) = (   0.0000000   0.0000000   0.0215779  )
         3           O   tau(   3) = (   0.0000000   0.0000000   0.5073114  )
         4           Ba  tau(   4) = (   0.4999996   0.4877884   0.5319677  )
         5           Cu  tau(   5) = (   0.0000000   0.0000000   1.0495845  )
         6           O   tau(   6) = (   0.4999996   0.0000000   1.1181579  )
         7           O   tau(   7) = (   0.0000000   0.4877884   1.1273137  )
         8           Y   tau(   8) = (   0.4999996   0.4877884   1.4938777  )
         9           O   tau(   9) = (   0.0000000   0.4877884   1.8497402  )
        10           O   tau(  10) = (   0.4999996   0.0000000   1.8692709  )
        11           Cu  tau(  11) = (   0.0000000   0.0000000   1.9417560  )
        12           Ba  tau(  12) = (   0.4999996   0.4877884   2.4526063  )
        13           O   tau(  13) = (   0.0000000   0.0000000   2.5103470  )
        14           O   tau(  14) = (   0.0000000   0.4877884   2.9968469  )
        15           Cu  tau(  15) = (   0.0000000   0.0000000   2.9968521  )
        16           O   tau(  16) = (   0.0000000   0.0000000   3.4833288  )
        17           Ba  tau(  17) = (   0.4999996   0.4877884   3.5410618  )
        18           Cu  tau(  18) = (   0.0000000   0.0000000   4.0519352  )
        19           O   tau(  19) = (   0.4999996   0.0000000   4.1244075  )
        20           O   tau(  20) = (   0.0000000   0.4877884   4.1439202  )
        21           Y   tau(  21) = (   0.4999996   0.4877884   4.4997853  )
        22           O   tau(  22) = (   0.0000000   0.4877884   5.7664987  )
        23           O   tau(  23) = (   0.4999996   0.0000000   5.7756673  )
        24           Cu  tau(  24) = (   0.0000000   0.0000000   5.8442459  )
        25           Ba  tau(  25) = (   0.4999996   0.4877884   6.3618472  )
        26           O   tau(  26) = (   0.0000000   0.0000000   6.3865036  )
        27           Cu  tau(  27) = (   0.0000000   0.0000000   6.8722088  )
        28           O   tau(  28) = (   0.0000000   0.4877884   6.9195901  )

     number of k points=    25  Gaussian smearing, width (Ry)=  0.0100
                       cart. coord. in units 2pi/alat
        k(    1) = (   0.0000000   0.0000000   0.0000000), wk =   0.0312500
        k(    2) = (   0.0000000   0.1281293   0.0000000), wk =   0.0625000
        k(    3) = (   0.0000000   0.2562585   0.0000000), wk =   0.0625000
        k(    4) = (   0.0000000   0.3843878   0.0000000), wk =   0.0625000
        k(    5) = (   0.0000000  -0.5125170   0.0000000), wk =   0.0312500
        k(    6) = (   0.1250000   0.0000000   0.0000000), wk =   0.0625000
        k(    7) = (   0.1250000   0.1281293   0.0000000), wk =   0.1250000
        k(    8) = (   0.1250000   0.2562585   0.0000000), wk =   0.1250000
        k(    9) = (   0.1250000   0.3843878   0.0000000), wk =   0.1250000
        k(   10) = (   0.1250000  -0.5125170   0.0000000), wk =   0.0625000
        k(   11) = (   0.2500000   0.0000000   0.0000000), wk =   0.0625000
        k(   12) = (   0.2500000   0.1281293   0.0000000), wk =   0.1250000
        k(   13) = (   0.2500000   0.2562585   0.0000000), wk =   0.1250000
        k(   14) = (   0.2500000   0.3843878   0.0000000), wk =   0.1250000
        k(   15) = (   0.2500000  -0.5125170   0.0000000), wk =   0.0625000
        k(   16) = (   0.3750000   0.0000000   0.0000000), wk =   0.0625000
        k(   17) = (   0.3750000   0.1281293   0.0000000), wk =   0.1250000
        k(   18) = (   0.3750000   0.2562585   0.0000000), wk =   0.1250000
        k(   19) = (   0.3750000   0.3843878   0.0000000), wk =   0.1250000
        k(   20) = (   0.3750000  -0.5125170   0.0000000), wk =   0.0625000
        k(   21) = (  -0.5000000   0.0000000   0.0000000), wk =   0.0312500
        k(   22) = (  -0.5000000   0.1281293   0.0000000), wk =   0.0625000
        k(   23) = (  -0.5000000   0.2562585   0.0000000), wk =   0.0625000
        k(   24) = (  -0.5000000   0.3843878   0.0000000), wk =   0.0625000
        k(   25) = (  -0.5000000  -0.5125170   0.0000000), wk =   0.0312500

     Dense  grid:  1535249 G-vectors     FFT dimensions: (  64,  64, 768)

     Smooth grid:   295383 G-vectors     FFT dimensions: (  40,  36, 450)

     Estimated max dynamical RAM per process >     489.94 MB

     Estimated total dynamical RAM >       9.57 GB

     Initial potential from superposition of free atoms

     starting charge  228.84827, renormalised to  229.00000

     negative rho (up, down):  8.970E-02 0.000E+00
     Starting wfcs are  201 randomized atomic wfcs

     total cpu time spent up to now is       10.6 secs

     Self-consistent Calculation

     iteration #  1     ecut=    60.00 Ry     beta= 0.20
     Davidson diagonalization with overlap
     ethr =  1.00E-02,  avg # of iterations =  2.0

     negative rho (up, down):  8.736E-02 0.000E+00

     total cpu time spent up to now is       26.8 secs

     total energy              =   -1869.45158938 Ry
     Harris-Foulkes estimate   =   -1871.03690790 Ry
     estimated scf accuracy    <      14.56683973 Ry

     iteration #  2     ecut=    60.00 Ry     beta= 0.20
     Davidson diagonalization with overlap
     ethr =  6.36E-03,  avg # of iterations =  1.0

     negative rho (up, down):  8.597E-02 0.000E+00

     total cpu time spent up to now is       41.7 secs

     total energy              =   -1868.96742346 Ry
     Harris-Foulkes estimate   =   -1869.79365741 Ry
     estimated scf accuracy    <       8.04573526 Ry

     iteration #  3     ecut=    60.00 Ry     beta= 0.20
     Davidson diagonalization with overlap
     ethr =  3.51E-03,  avg # of iterations =  1.0

     negative rho (up, down):  8.511E-02 0.000E+00

     total cpu time spent up to now is       56.2 secs

     total energy              =   -1868.58577239 Ry
     Harris-Foulkes estimate   =   -1869.15225499 Ry
     estimated scf accuracy    <       5.22880262 Ry

     iteration #  4     ecut=    60.00 Ry     beta= 0.20
     Davidson diagonalization with overlap
     ethr =  2.28E-03,  avg # of iterations =  1.0

     negative rho (up, down):  8.487E-02 0.000E+00

     total cpu time spent up to now is       70.8 secs

     total energy              =   -1868.85830012 Ry
     Harris-Foulkes estimate   =   -1868.80950857 Ry
     estimated scf accuracy    <       9.12255887 Ry

     iteration #  5     ecut=    60.00 Ry     beta= 0.20
     Davidson diagonalization with overlap
     ethr =  2.28E-03,  avg # of iterations =  1.0

     negative rho (up, down):  8.556E-02 0.000E+00

     total cpu time spent up to now is       85.3 secs

     total energy              =   -1868.34313376 Ry
     Harris-Foulkes estimate   =   -1868.89067441 Ry
     estimated scf accuracy    <      17.63073526 Ry

     iteration #  6     ecut=    60.00 Ry     beta= 0.20
     Davidson diagonalization with overlap
     ethr =  2.28E-03,  avg # of iterations =  1.1

     negative rho (up, down):  8.575E-02 0.000E+00

     total cpu time spent up to now is       99.9 secs

     total energy              =   -1868.49778350 Ry
     Harris-Foulkes estimate   =   -1868.62913899 Ry
     estimated scf accuracy    <       2.01313844 Ry

     iteration #  7     ecut=    60.00 Ry     beta= 0.20
     Davidson diagonalization with overlap
     ethr =  8.79E-04,  avg # of iterations =  2.6

     negative rho (up, down):  8.672E-02 0.000E+00

     total cpu time spent up to now is      116.2 secs

     total energy              =   -1868.36783133 Ry
     Harris-Foulkes estimate   =   -1868.53197009 Ry
     estimated scf accuracy    <       1.36307660 Ry

     iteration #  8     ecut=    60.00 Ry     beta= 0.20
     Davidson diagonalization with overlap
     ethr =  5.95E-04,  avg # of iterations =  5.6

     negative rho (up, down):  8.785E-02 0.000E+00

     total cpu time spent up to now is      136.4 secs

     total energy              =   -1868.44514107 Ry
     Harris-Foulkes estimate   =   -1868.52617028 Ry
     estimated scf accuracy    <      11.73724119 Ry

     iteration #  9     ecut=    60.00 Ry     beta= 0.20
     Davidson diagonalization with overlap
     ethr =  5.95E-04,  avg # of iterations =  2.0

     negative rho (up, down):  8.736E-02 0.000E+00

     total cpu time spent up to now is      152.2 secs

     total energy              =   -1868.38905767 Ry
     Harris-Foulkes estimate   =   -1868.47994396 Ry
     estimated scf accuracy    <       4.87386848 Ry

     iteration # 10     ecut=    60.00 Ry     beta= 0.20
     Davidson diagonalization with overlap
     ethr =  5.95E-04,  avg # of iterations =  1.0

     negative rho (up, down):  8.833E-02 0.000E+00

     total cpu time spent up to now is      166.7 secs

     total energy              =   -1868.41428756 Ry
     Harris-Foulkes estimate   =   -1868.44365542 Ry
     estimated scf accuracy    <       2.49458459 Ry

     iteration # 11     ecut=    60.00 Ry     beta= 0.20
     Davidson diagonalization with overlap
     ethr =  5.95E-04,  avg # of iterations =  1.0

     negative rho (up, down):  8.899E-02 0.000E+00

     total cpu time spent up to now is      181.2 secs

     total energy              =   -1868.39729934 Ry
     Harris-Foulkes estimate   =   -1868.42210547 Ry
     estimated scf accuracy    <       1.19159338 Ry

     iteration # 12     ecut=    60.00 Ry     beta= 0.20
     Davidson diagonalization with overlap
     ethr =  5.20E-04,  avg # of iterations =  1.0

     negative rho (up, down):  8.908E-02 0.000E+00

     total cpu time spent up to now is      195.7 secs

     total energy              =   -1868.40800702 Ry
     Harris-Foulkes estimate   =   -1868.41319111 Ry
     estimated scf accuracy    <       0.16016391 Ry

     iteration # 13     ecut=    60.00 Ry     beta= 0.20
     Davidson diagonalization with overlap
     ethr =  6.99E-05,  avg # of iterations =  5.6

     negative rho (up, down):  8.924E-02 0.000E+00

     total cpu time spent up to now is      215.5 secs

     total energy              =   -1868.40924907 Ry
     Harris-Foulkes estimate   =   -1868.41002909 Ry
     estimated scf accuracy    <       0.10721644 Ry

     iteration # 14     ecut=    60.00 Ry     beta= 0.20
     Davidson diagonalization with overlap
     ethr =  4.68E-05,  avg # of iterations =  2.1

     negative rho (up, down):  8.944E-02 0.000E+00

     total cpu time spent up to now is      231.0 secs

     total energy              =   -1868.40548568 Ry
     Harris-Foulkes estimate   =   -1868.41011050 Ry
     estimated scf accuracy    <       0.13984148 Ry

     iteration # 15     ecut=    60.00 Ry     beta= 0.20
     Davidson diagonalization with overlap
     ethr =  4.68E-05,  avg # of iterations =  3.8

     negative rho (up, down):  8.928E-02 0.000E+00

     total cpu time spent up to now is      248.4 secs

     total energy              =   -1868.40471805 Ry
     Harris-Foulkes estimate   =   -1868.40706386 Ry
     estimated scf accuracy    <       0.05080194 Ry

     iteration # 16     ecut=    60.00 Ry     beta= 0.20
     Davidson diagonalization with overlap
     ethr =  2.22E-05,  avg # of iterations =  3.7

     negative rho (up, down):  8.919E-02 0.000E+00

     total cpu time spent up to now is      265.7 secs

     total energy              =   -1868.40486316 Ry
     Harris-Foulkes estimate   =   -1868.40579263 Ry
     estimated scf accuracy    <       0.01538143 Ry

     iteration # 17     ecut=    60.00 Ry     beta= 0.20
     Davidson diagonalization with overlap
     c_bands:  2 eigenvalues not converged
     ethr =  6.72E-06,  avg # of iterations =  7.2

     negative rho (up, down):  8.913E-02 0.000E+00

     total cpu time spent up to now is      287.0 secs

     total energy              =   -1868.40473998 Ry
     Harris-Foulkes estimate   =   -1868.40519696 Ry
     estimated scf accuracy    <       0.02178010 Ry

     iteration # 18     ecut=    60.00 Ry     beta= 0.20
     Davidson diagonalization with overlap
     ethr =  6.72E-06,  avg # of iterations =  1.8

     negative rho (up, down):  8.889E-02 0.000E+00

     total cpu time spent up to now is      302.2 secs

     total energy              =   -1868.40402097 Ry
     Harris-Foulkes estimate   =   -1868.40490662 Ry
     estimated scf accuracy    <       0.03177550 Ry

     iteration # 19     ecut=    60.00 Ry     beta= 0.20
     Davidson diagonalization with overlap
     ethr =  6.72E-06,  avg # of iterations =  1.0

     negative rho (up, down):  8.876E-02 0.000E+00

     total cpu time spent up to now is      316.5 secs

     total energy              =   -1868.40380527 Ry
     Harris-Foulkes estimate   =   -1868.40455215 Ry
     estimated scf accuracy    <       0.01437667 Ry

     iteration # 20     ecut=    60.00 Ry     beta= 0.20
     Davidson diagonalization with overlap
     ethr =  6.28E-06,  avg # of iterations =  1.2

     negative rho (up, down):  8.917E-02 0.000E+00

     total cpu time spent up to now is      331.1 secs

     total energy              =   -1868.40266690 Ry
     Harris-Foulkes estimate   =   -1868.40387230 Ry
     estimated scf accuracy    <       0.00970838 Ry

     iteration # 21     ecut=    60.00 Ry     beta= 0.20
     Davidson diagonalization with overlap
     ethr =  4.24E-06,  avg # of iterations =  4.5

     negative rho (up, down):  9.391E-02 0.000E+00

     total cpu time spent up to now is      349.1 secs

     total energy              =   -1868.40198881 Ry
     Harris-Foulkes estimate   =   -1868.40280302 Ry
     estimated scf accuracy    <       0.00626086 Ry

     iteration # 22     ecut=    60.00 Ry     beta= 0.20
     Davidson diagonalization with overlap
     ethr =  2.73E-06,  avg # of iterations =  7.6

     negative rho (up, down):  9.610E-02 0.000E+00

     total cpu time spent up to now is      370.8 secs

     total energy              =   -1868.40151932 Ry
     Harris-Foulkes estimate   =   -1868.40210616 Ry
     estimated scf accuracy    <       0.00367014 Ry

     iteration # 23     ecut=    60.00 Ry     beta= 0.20
     Davidson diagonalization with overlap
     ethr =  1.60E-06,  avg # of iterations =  6.2

     negative rho (up, down):  1.016E-01 0.000E+00

     total cpu time spent up to now is      390.5 secs

     total energy              =   -1868.40119744 Ry
     Harris-Foulkes estimate   =   -1868.40158164 Ry
     estimated scf accuracy    <       0.00279280 Ry

     iteration # 24     ecut=    60.00 Ry     beta= 0.20
     Davidson diagonalization with overlap
     ethr =  1.22E-06,  avg # of iterations =  7.6

     negative rho (up, down):  9.882E-02 0.000E+00

     total cpu time spent up to now is      412.3 secs

     total energy              =   -1868.40105312 Ry
     Harris-Foulkes estimate   =   -1868.40123707 Ry
     estimated scf accuracy    <       0.00191209 Ry

     iteration # 25     ecut=    60.00 Ry     beta= 0.20
     Davidson diagonalization with overlap
     ethr =  8.35E-07,  avg # of iterations =  3.0

     negative rho (up, down):  9.525E-02 0.000E+00

     total cpu time spent up to now is      428.7 secs

     total energy              =   -1868.40080794 Ry
     Harris-Foulkes estimate   =   -1868.40106718 Ry
     estimated scf accuracy    <       0.00179317 Ry

     iteration # 26     ecut=    60.00 Ry     beta= 0.20
     Davidson diagonalization with overlap
     ethr =  7.83E-07,  avg # of iterations =  4.0

     negative rho (up, down):  9.344E-02 0.000E+00

     total cpu time spent up to now is      446.3 secs

     total energy              =   -1868.40079809 Ry
     Harris-Foulkes estimate   =   -1868.40084493 Ry
     estimated scf accuracy    <       0.00104042 Ry

     iteration # 27     ecut=    60.00 Ry     beta= 0.20
     Davidson diagonalization with overlap
     ethr =  4.54E-07,  avg # of iterations =  3.2

     negative rho (up, down):  8.939E-02 0.000E+00

     total cpu time spent up to now is      462.9 secs

     total energy              =   -1868.40071453 Ry
     Harris-Foulkes estimate   =   -1868.40081060 Ry
     estimated scf accuracy    <       0.00072929 Ry

     iteration # 28     ecut=    60.00 Ry     beta= 0.20
     Davidson diagonalization with overlap
     c_bands:  1 eigenvalues not converged
     ethr =  3.18E-07,  avg # of iterations =  4.6

     negative rho (up, down):  8.979E-02 0.000E+00

     total cpu time spent up to now is      481.0 secs

     total energy              =   -1868.40071216 Ry
     Harris-Foulkes estimate   =   -1868.40074097 Ry
     estimated scf accuracy    <       0.00052709 Ry

     iteration # 29     ecut=    60.00 Ry     beta= 0.20
     Davidson diagonalization with overlap
     ethr =  2.30E-07,  avg # of iterations =  4.2

     negative rho (up, down):  8.970E-02 0.000E+00

     total cpu time spent up to now is      498.7 secs

     total energy              =   -1868.40072525 Ry
     Harris-Foulkes estimate   =   -1868.40072994 Ry
     estimated scf accuracy    <       0.00012179 Ry

     iteration # 30     ecut=    60.00 Ry     beta= 0.20
     Davidson diagonalization with overlap
     ethr =  5.32E-08,  avg # of iterations =  2.2

     negative rho (up, down):  8.999E-02 0.000E+00

     total cpu time spent up to now is      514.2 secs

     total energy              =   -1868.40074272 Ry
     Harris-Foulkes estimate   =   -1868.40072731 Ry
     estimated scf accuracy    <       0.00007462 Ry

     iteration # 31     ecut=    60.00 Ry     beta= 0.20
     Davidson diagonalization with overlap
     ethr =  3.26E-08,  avg # of iterations =  2.3

     negative rho (up, down):  9.005E-02 0.000E+00

     total cpu time spent up to now is      530.2 secs

     total energy              =   -1868.40074032 Ry
     Harris-Foulkes estimate   =   -1868.40074598 Ry
     estimated scf accuracy    <       0.00004570 Ry

     iteration # 32     ecut=    60.00 Ry     beta= 0.20
     Davidson diagonalization with overlap
     ethr =  2.00E-08,  avg # of iterations =  2.2

     negative rho (up, down):  9.018E-02 0.000E+00

     total cpu time spent up to now is      546.0 secs

     total energy              =   -1868.40074360 Ry
     Harris-Foulkes estimate   =   -1868.40074250 Ry
     estimated scf accuracy    <       0.00002039 Ry

     iteration # 33     ecut=    60.00 Ry     beta= 0.20
     Davidson diagonalization with overlap
     ethr =  8.90E-09,  avg # of iterations =  2.2

     negative rho (up, down):  9.019E-02 0.000E+00

     total cpu time spent up to now is      561.8 secs

     total energy              =   -1868.40074405 Ry
     Harris-Foulkes estimate   =   -1868.40074425 Ry
     estimated scf accuracy    <       0.00000973 Ry

     iteration # 34     ecut=    60.00 Ry     beta= 0.20
     Davidson diagonalization with overlap
     ethr =  4.25E-09,  avg # of iterations =  1.6

     negative rho (up, down):  9.001E-02 0.000E+00

     total cpu time spent up to now is      577.1 secs

     total energy              =   -1868.40074227 Ry
     Harris-Foulkes estimate   =   -1868.40074439 Ry
     estimated scf accuracy    <       0.00000439 Ry

     iteration # 35     ecut=    60.00 Ry     beta= 0.20
     Davidson diagonalization with overlap
     ethr =  1.92E-09,  avg # of iterations =  2.1

     negative rho (up, down):  9.001E-02 0.000E+00

     total cpu time spent up to now is      593.2 secs

     total energy              =   -1868.40074197 Ry
     Harris-Foulkes estimate   =   -1868.40074253 Ry
     estimated scf accuracy    <       0.00000277 Ry

     iteration # 36     ecut=    60.00 Ry     beta= 0.20
     Davidson diagonalization with overlap
     ethr =  1.21E-09,  avg # of iterations =  1.8

     negative rho (up, down):  8.993E-02 0.000E+00

     total cpu time spent up to now is      608.7 secs

     total energy              =   -1868.40074147 Ry
     Harris-Foulkes estimate   =   -1868.40074206 Ry
     estimated scf accuracy    <       0.00000135 Ry

     iteration # 37     ecut=    60.00 Ry     beta= 0.20
     Davidson diagonalization with overlap
     ethr =  5.89E-10,  avg # of iterations =  1.6

     negative rho (up, down):  8.995E-02 0.000E+00

     total cpu time spent up to now is      623.9 secs

     total energy              =   -1868.40074139 Ry
     Harris-Foulkes estimate   =   -1868.40074152 Ry
     estimated scf accuracy    <       0.00000110 Ry

     iteration # 38     ecut=    60.00 Ry     beta= 0.20
     Davidson diagonalization with overlap
     ethr =  4.79E-10,  avg # of iterations =  1.0

     negative rho (up, down):  8.991E-02 0.000E+00

     total cpu time spent up to now is      637.9 secs

     End of self-consistent calculation

          k = 0.0000 0.0000 0.0000 ( 36815 PWs)   bands (ev):

   -41.2459 -38.3362 -23.2722 -22.9903 -22.8503 -22.6100 -21.3841 -21.1179
   -21.1098 -18.8708 -18.3409 -18.3309 -16.3860 -15.6657 -15.4572 -14.8106
   -14.7054 -14.5333 -14.4745 -14.4512 -14.3837 -14.1896 -13.9725 -13.9107
   -13.8683 -13.6823 -13.2312  -8.5854  -8.2115  -8.2066  -8.1966  -8.1219
    -7.9827  -7.9559  -7.8041  -7.7855  -7.7370  -7.6379  -7.6030  -3.1621
    -3.1382  -2.6905  -2.2945  -2.2613  -2.2405  -2.1135  -2.0733  -2.0396
    -2.0068  -1.9295  -1.7448  -1.1009  -1.0715  -1.0446  -1.0290  -0.9030
    -0.7525  -0.6723  -0.6425  -0.6327  -0.5869  -0.4290  -0.3207  -0.2835
    -0.2468  -0.2098  -0.1829  -0.1662  -0.1493  -0.0953  -0.0822  -0.0803
    -0.0662   0.0120   0.0691   0.0761   0.1829   0.1881   0.2108   0.2820
     0.3178   0.3187   0.3311   0.3459   0.3628   0.4065   0.4172   0.4477
     0.4517   0.5500   0.5814   0.7218   0.8667   0.8880   1.0174   1.0743
     1.0999   1.1525   1.1560   1.2330   1.2737   1.2891   1.3292   1.4846
     1.7067   1.7144   1.7718   1.8313   1.8715   1.8804   1.9702   2.0652
     2.0884   2.1220   2.1591   2.1919   2.4530   2.4572   2.5025   2.5551
     3.9595   4.9409   5.0595   5.2206   5.4673   5.6624   5.8128   6.4017
     6.4360   6.4664   6.6753   6.7796   6.8184   7.1765   7.5688   7.9545
     7.9622   7.9983

          k = 0.0000 0.1281 0.0000 ( 36867 PWs)   bands (ev):

   -41.2441 -38.3338 -23.2515 -22.9688 -22.8295 -22.5880 -21.3769 -21.1489
   -21.1155 -18.8349 -18.4352 -18.3377 -16.3363 -15.5571 -15.4749 -14.7675
   -14.7129 -14.5277 -14.4836 -14.4206 -14.3461 -14.2360 -13.9779 -13.9273
   -13.9132 -13.7463 -13.2618  -8.5741  -8.2180  -8.1941  -8.1686  -8.1088
    -7.9754  -7.9414  -7.8055  -7.7652  -7.7203  -7.6235  -7.5953  -3.2679
    -3.1144  -2.5990  -2.3978  -2.3861  -2.2452  -2.2200  -2.0765  -2.0747
    -1.9347  -1.9140  -1.7517  -1.5653  -1.4056  -1.1921  -1.1558  -1.1277
    -1.0375  -0.9367  -0.8919  -0.8622  -0.6834  -0.6466  -0.6352  -0.5627
    -0.4147  -0.3935  -0.3350  -0.3164  -0.2686  -0.2288  -0.1598  -0.0666
    -0.0158   0.0362   0.0806   0.1067   0.1108   0.2108   0.2231   0.2410
     0.3098   0.3285   0.3313   0.3734   0.4085   0.4098   0.4341   0.6340
     0.6986   0.7023   0.7050   0.7529   0.8288   0.8652   0.9644   1.0261
     1.2326   1.2668   1.2941   1.3860   1.4065   1.4738   1.4802   1.4852
     1.5991   1.6998   1.7351   1.7479   1.8246   1.8626   1.9772   2.0315
     2.0711   2.1811   2.3189   2.4619   2.4790   2.7097   2.7947   2.9124
     4.0586   4.9511   5.4347   5.5020   5.5601   5.6575   5.9664   6.4476
     6.4724   6.7861   6.9798   7.1156   7.1320   7.4641   7.7700   7.9018
     8.1255   8.2400

          k = 0.0000 0.2563 0.0000 ( 36890 PWs)   bands (ev):

   -41.2399 -38.3283 -23.2006 -22.9157 -22.7783 -22.5337 -21.3651 -21.2353
   -21.1099 -18.7439 -18.6602 -18.3299 -16.2022 -15.5374 -15.3094 -14.7897
   -14.6525 -14.5757 -14.5403 -14.3543 -14.3026 -14.2050 -14.0684 -13.9551
   -13.8994 -13.8867 -13.3539  -8.5453  -8.2601  -8.1532  -8.0789  -8.0739
    -8.0164  -7.8492  -7.8382  -7.6801  -7.6680  -7.6665  -7.4884  -3.5289
    -2.9698  -2.8290  -2.7137  -2.5858  -2.4068  -2.2741  -2.2239  -2.1794
    -2.1038  -1.9912  -1.9532  -1.9034  -1.8651  -1.8612  -1.7260  -1.4355
    -1.4146  -1.1128  -1.0628  -1.0222  -0.9745  -0.9630  -0.8604  -0.8064
    -0.7890  -0.6990  -0.6133  -0.5633  -0.5067  -0.4925  -0.3189  -0.2632
    -0.2604  -0.2251  -0.1118  -0.0606   0.0386   0.1022   0.1407   0.2132
     0.2252   0.3670   0.3809   0.3841   0.3987   0.4690   0.5565   0.6417
     0.9167   0.9308   0.9726   1.0915   1.1214   1.1398   1.1700   1.2541
     1.2965   1.3444   1.4044   1.4064   1.4517   1.5344   1.5372   1.6223
     1.6345   1.7004   1.7562   1.8035   1.9327   1.9368   2.0493   2.0955
     2.1546   2.4500   2.4928   2.4971   2.5754   3.0717   3.2293   3.5756
     4.2187   4.8943   5.2092   6.2875   6.3324   6.4292   6.5756   6.5791
     6.6332   7.6303   7.6806   7.7718   7.8754   7.9273   8.0135   8.1707
     8.5110   8.5769

          k = 0.0000 0.3844 0.0000 ( 36778 PWs)   bands (ev):

   -41.2357 -38.3227 -23.1484 -22.8612 -22.7258 -22.4778 -21.3855 -21.2861
   -21.1042 -18.8580 -18.6457 -18.3222 -16.0199 -15.6562 -15.0603 -14.9319
   -14.6719 -14.6480 -14.5123 -14.3238 -14.3047 -14.2081 -14.0472 -13.9851
   -13.8961 -13.8230 -13.5088  -8.5122  -8.2979  -8.1131  -8.0499  -8.0449
    -7.9744  -7.8896  -7.7292  -7.7043  -7.6364  -7.5658  -7.3751  -3.7729
    -3.2895  -3.1792  -2.9573  -2.7884  -2.7801  -2.7253  -2.5110  -2.3909
    -2.2726  -2.1319  -2.0822  -1.9415  -1.9355  -1.8974  -1.7665  -1.7030
    -1.6530  -1.4154  -1.2761  -1.2552  -1.0722  -1.0641  -1.0545  -0.9865
    -0.9415  -0.9353  -0.8193  -0.8046  -0.7239  -0.6391  -0.5120  -0.5068
    -0.4811  -0.4474  -0.3173  -0.2552  -0.1776  -0.0792   0.2196   0.2518
     0.3605   0.3616   0.3720   0.3746   0.4084   0.5013   0.7374   0.8444
     0.8593   0.9459   1.0219   1.0841   1.1385   1.1765   1.2490   1.3698
     1.3971   1.4184   1.4513   1.5551   1.5797   1.6302   1.6831   1.7281
     1.7686   1.9070   1.9091   1.9440   2.0181   2.1398   2.2333   2.4090
     2.4568   2.4763   2.4893   2.5504   2.8595   3.0432   3.2127   4.1322
     4.2783   4.9786   4.9799   6.6454   6.8138   7.0628   7.2251   7.4058
     7.4324   7.6593   7.7012   8.2073   8.4344   8.6316   8.6529   8.6954
     8.8179   8.9330

          k = 0.0000-0.5125 0.0000 ( 36914 PWs)   bands (ev):

   -41.2340 -38.3203 -23.1263 -22.8381 -22.7036 -22.4542 -21.4108 -21.2893
   -21.1019 -18.9340 -18.6025 -18.3189 -15.8506 -15.8014 -15.0127 -14.9288
   -14.7196 -14.7139 -14.4326 -14.3338 -14.3100 -14.2617 -14.1027 -13.8649
   -13.8286 -13.7154 -13.7103  -8.4960  -8.3142  -8.0970  -8.0611  -8.0283
    -7.9317  -7.9074  -7.7175  -7.6821  -7.6185  -7.5218  -7.3261  -3.8747
    -3.5234  -3.3293  -3.0921  -3.0248  -3.0121  -2.6894  -2.4101  -2.3848
    -2.3731  -2.3054  -2.1666  -2.1202  -2.0011  -1.7924  -1.7511  -1.6963
    -1.6094  -1.5420  -1.3830  -1.3168  -1.2433  -1.2065  -1.0953  -1.0543
    -1.0413  -0.9089  -0.8393  -0.8160  -0.7785  -0.7326  -0.6019  -0.5938
    -0.5503  -0.5306  -0.5277  -0.3092  -0.2828  -0.0681   0.2574   0.2907
     0.3336   0.3590   0.3645   0.4027   0.4144   0.5105   0.8220   0.9269
     0.9301   0.9419   0.9458   1.0585   1.1571   1.1766   1.3179   1.3231
     1.3716   1.4080   1.4959   1.5752   1.5876   1.6076   1.6719   1.8192
     1.8394   1.9231   2.0666   2.2414   2.2567   2.3151   2.3208   2.3325
     2.3813   2.5316   2.6192   2.6715   2.9049   2.9873   3.0974   4.2600
     4.3252   4.8958   5.0586   6.6705   7.0143   7.2655   7.5479   7.6167
     7.7125   7.7804   7.8626   8.0892   8.5835   8.7289   8.9826   8.9922
     9.0175   9.2522

          k = 0.1250 0.0000 0.0000 ( 36852 PWs)   bands (ev):

   -41.2445 -38.3344 -23.2547 -22.9719 -22.8326 -22.5911 -21.3782 -21.1531
   -21.1080 -18.8384 -18.4409 -18.3284 -16.3367 -15.5503 -15.4736 -14.8379
   -14.7329 -14.5526 -14.5224 -14.4293 -14.3687 -14.2188 -13.9731 -13.9217
   -13.9091 -13.7116 -13.2614  -8.6076  -8.2234  -8.1999  -8.1653  -8.1096
    -7.9476  -7.9217  -7.7664  -7.7533  -7.7528  -7.5982  -7.5673  -3.2610
    -3.0948  -2.6077  -2.3864  -2.3181  -2.2119  -2.1890  -2.0737  -2.0568
    -1.9961  -1.9525  -1.7688  -1.2398  -1.1279  -1.0760  -1.0707  -1.0259
    -0.9554  -0.7875  -0.6719  -0.6668  -0.6371  -0.5873  -0.5065  -0.3901
    -0.3685  -0.3570  -0.2876  -0.2654  -0.2587  -0.1639  -0.0763  -0.0716
    -0.0462  -0.0290   0.0849   0.1036   0.1928   0.2235   0.2373   0.2616
     0.2973   0.3159   0.3310   0.3379   0.3495   0.4422   0.4599   0.4949
     0.5010   0.5870   0.7588   0.7661   0.7804   0.8200   0.9361   1.0320
     1.0358   1.0821   1.1889   1.2398   1.3214   1.4175   1.4434   1.5121
     1.6264   1.7672   1.7973   1.8496   1.8588   1.9170   1.9999   2.0192
     2.0818   2.1300   2.2032   2.2416   2.4799   2.4999   2.5011   2.6753
     4.0534   4.8692   5.2560   5.3805   5.5553   5.6601   5.9689   6.2400
     6.4855   6.7054   6.9024   7.0285   7.1357   7.4253   7.7683   7.9428
     8.1164   8.2834

          k = 0.1250 0.1281 0.0000 ( 36854 PWs)   bands (ev):

   -41.2428 -38.3320 -23.2347 -22.9511 -22.8125 -22.5698 -21.3712 -21.1540
   -21.1435 -18.8029 -18.4447 -18.4235 -16.2885 -15.4875 -15.4426 -14.7916
   -14.7305 -14.5528 -14.5189 -14.4015 -14.3174 -14.2724 -13.9726 -13.9641
   -13.9063 -13.7641 -13.2886  -8.5930  -8.3381  -8.2082  -8.1297  -8.0952
    -8.0299  -7.9203  -7.7978  -7.7764  -7.7048  -7.6310  -7.4483  -3.3873
    -3.0617  -2.5388  -2.4893  -2.4368  -2.2443  -2.2091  -2.1053  -2.0926
    -2.0434  -1.8737  -1.7471  -1.5786  -1.3882  -1.3587  -1.2242  -1.1862
    -1.1685  -1.1496  -1.0036  -0.9845  -0.8314  -0.7045  -0.6600  -0.6573
    -0.5442  -0.4633  -0.4259  -0.3292  -0.2960  -0.2714  -0.1406  -0.0526
    -0.0165   0.0418   0.0609   0.0921   0.1573   0.1603   0.1701   0.2383
     0.2792   0.2836   0.3164   0.3546   0.3836   0.4273   0.4296   0.6332
     0.6780   0.7310   0.7746   0.8642   0.9294   0.9916   1.0026   1.0354
     1.0645   1.2474   1.2933   1.3119   1.3378   1.4845   1.5039   1.6293
     1.6770   1.6822   1.6973   1.7901   1.8062   2.0192   2.0911   2.1197
     2.1613   2.2747   2.3076   2.4841   2.7305   2.8076   2.8751   2.9210
     4.1411   4.8944   5.3758   5.5823   5.6894   5.8074   6.1162   6.3317
     6.4961   7.0153   7.2169   7.3263   7.3893   7.6718   7.8291   7.9557
     8.2790   8.4266

          k = 0.1250 0.2563 0.0000 ( 36914 PWs)   bands (ev):

   -41.2386 -38.3265 -23.1854 -22.8999 -22.7630 -22.5175 -21.3601 -21.2339
   -21.1430 -18.7131 -18.6557 -18.4253 -16.1589 -15.5397 -15.1974 -14.7747
   -14.6687 -14.5831 -14.5417 -14.3590 -14.3372 -14.1678 -14.0700 -13.9464
   -13.8949 -13.8778 -13.3707  -8.5586  -8.4474  -8.2192  -8.1534  -8.1002
    -8.0366  -7.9827  -7.8659  -7.7537  -7.6838  -7.5936  -7.4039  -3.6523
    -2.9794  -2.9287  -2.7319  -2.5782  -2.3453  -2.2842  -2.2438  -2.1900
    -2.1396  -2.0574  -1.9876  -1.9474  -1.9017  -1.8953  -1.8047  -1.6654
    -1.4561  -1.1751  -1.1734  -1.1092  -1.0275  -1.0218  -1.0056  -0.9277
    -0.8072  -0.7727  -0.6632  -0.5065  -0.5010  -0.4381  -0.4095  -0.3269
    -0.2614  -0.1857  -0.0836  -0.0192   0.0277   0.1727   0.2135   0.2445
     0.2653   0.2860   0.3607   0.3651   0.4171   0.4888   0.5969   0.7230
     0.7717   0.9928   1.0456   1.1086   1.1944   1.2189   1.2247   1.2611
     1.2794   1.3965   1.4209   1.4410   1.4983   1.5127   1.5339   1.6081
     1.6567   1.8143   1.9145   1.9476   2.0191   2.0458   2.0844   2.2373
     2.2791   2.5106   2.6095   2.7526   3.0216   3.0763   3.2648   3.5724
     4.3178   4.8515   5.0876   6.2877   6.3858   6.4869   6.4995   6.5991
     6.6836   7.6212   7.8406   7.8985   8.0465   8.0920   8.1849   8.2447
     8.5517   8.5967

          k = 0.1250 0.3844 0.0000 ( 36899 PWs)   bands (ev):

   -41.2344 -38.3209 -23.1349 -22.8474 -22.7122 -22.4637 -21.3818 -21.2837
   -21.1364 -18.8520 -18.6163 -18.4154 -15.9839 -15.6449 -14.9585 -14.8870
   -14.6466 -14.6189 -14.5080 -14.3656 -14.3018 -14.1894 -14.0281 -13.9556
   -13.8921 -13.8187 -13.5103  -8.5265  -8.4631  -8.2239  -8.1236  -8.1068
    -8.0503  -7.9972  -7.8772  -7.8017  -7.6475  -7.6388  -7.4506  -3.9074
    -3.3270  -3.2414  -3.0081  -2.8472  -2.7804  -2.7700  -2.5252  -2.3890
    -2.2480  -2.2362  -2.1638  -2.0812  -1.9968  -1.9831  -1.8359  -1.6499
    -1.5800  -1.4787  -1.3821  -1.3384  -1.2053  -1.0849  -1.0582  -1.0352
    -0.9504  -0.8696  -0.8613  -0.7539  -0.6849  -0.6463  -0.6185  -0.5823
    -0.5063  -0.4350  -0.1937  -0.0858  -0.0118   0.0425   0.2410   0.2604
     0.3031   0.3834   0.4192   0.4450   0.4747   0.5339   0.6947   0.8477
     0.8757   1.0175   1.0521   1.1454   1.1718   1.2423   1.3035   1.3590
     1.3900   1.4533   1.5558   1.5641   1.6610   1.6794   1.7035   1.8045
     1.9032   2.0356   2.0423   2.1418   2.1513   2.2646   2.4309   2.4606
     2.4954   2.5357   2.7685   2.8865   2.9883   3.0679   3.2845   4.0973
     4.3810   4.8663   4.9364   6.5261   6.7065   7.0055   7.1068   7.2788
     7.3160   7.5563   7.8262   8.3472   8.3963   8.6327   8.7015   8.7961
     8.9605   8.9727

          k = 0.1250-0.5125 0.0000 ( 36892 PWs)   bands (ev):

   -41.2327 -38.3186 -23.1135 -22.8252 -22.6908 -22.4411 -21.4076 -21.2867
   -21.1337 -18.9275 -18.5738 -18.4113 -15.8216 -15.7805 -14.9719 -14.8114
   -14.6802 -14.6792 -14.3979 -14.3561 -14.3050 -14.2767 -14.0768 -13.8636
   -13.8214 -13.7111 -13.6895  -8.5122  -8.4444  -8.1986  -8.1355  -8.1076
    -8.0377  -7.9991  -7.8548  -7.8498  -7.6795  -7.6318  -7.4974  -4.0148
    -3.5224  -3.4356  -3.1501  -3.0143  -3.0063  -2.7096  -2.6598  -2.6396
    -2.2785  -2.2537  -2.1816  -2.1165  -1.9444  -1.8836  -1.8594  -1.7007
    -1.6430  -1.5766  -1.5307  -1.3986  -1.2587  -1.1443  -1.0666  -1.0313
    -0.9830  -0.9182  -0.8961  -0.8279  -0.7567  -0.7030  -0.7024  -0.6655
    -0.5966  -0.5263  -0.2277  -0.1179  -0.0896  -0.0043   0.2381   0.2634
     0.3212   0.3990   0.4262   0.4900   0.5544   0.5550   0.7302   0.9044
     0.9462   1.0157   1.0253   1.1373   1.1633   1.2315   1.2948   1.3285
     1.3544   1.4787   1.5314   1.6266   1.7034   1.7162   1.7759   1.9077
     2.0573   2.1554   2.2425   2.3067   2.3140   2.3606   2.4998   2.5914
     2.5982   2.6629   2.6858   2.8425   2.9595   3.0318   3.1965   4.2740
     4.3330   4.8133   5.0174   6.5628   6.8069   7.2501   7.2828   7.3856
     7.5258   7.6419   7.8238   8.1929   8.6166   8.9018   9.0716   9.0908
     9.2177   9.2762

          k = 0.2500 0.0000 0.0000 ( 36946 PWs)   bands (ev):

   -41.2414 -38.3300 -23.2118 -22.9267 -22.7892 -22.5444 -21.3673 -21.2325
   -21.1037 -18.7566 -18.6559 -18.3224 -16.2044 -15.5315 -15.2860 -14.9199
   -14.8389 -14.6673 -14.6332 -14.3920 -14.2539 -14.2533 -14.0512 -13.9674
   -13.8986 -13.7639 -13.3492  -8.6468  -8.2318  -8.1798  -8.0876  -8.0815
    -7.8776  -7.8363  -7.7630  -7.7024  -7.6733  -7.5308  -7.4783  -3.4646
    -2.9642  -2.6946  -2.6071  -2.4621  -2.2117  -2.1803  -2.1047  -2.0675
    -1.9611  -1.8678  -1.8108  -1.7716  -1.4799  -1.2565  -1.1432  -1.1273
    -1.0789  -0.9713  -0.8951  -0.8887  -0.7539  -0.7467  -0.6641  -0.6536
    -0.6305  -0.6240  -0.5688  -0.4865  -0.3488  -0.3402  -0.1205  -0.0970
    -0.0287  -0.0149   0.0376   0.0646   0.1161   0.2014   0.2404   0.2719
     0.2966   0.3073   0.3148   0.3234   0.4572   0.4783   0.4972   0.5739
     0.5787   0.6265   0.6640   0.8096   0.8786   0.9028   0.9316   1.0258
     1.0906   1.1883   1.2699   1.3443   1.3801   1.4504   1.4537   1.5700
     1.6183   1.6474   1.7036   1.7897   1.8085   1.8756   1.9228   1.9925
     2.0960   2.2902   2.4132   2.4651   2.5083   2.5756   2.6373   2.8660
     4.2231   4.6340   5.3504   5.7102   5.8035   6.0811   6.4486   6.4556
     6.5616   7.3360   7.4619   7.6016   7.6713   7.8706   7.8971   8.1794
     8.5777   8.7373

          k = 0.2500 0.1281 0.0000 ( 36930 PWs)   bands (ev):

   -41.2397 -38.3277 -23.1934 -22.9078 -22.7707 -22.5252 -21.3611 -21.2303
   -21.1409 -18.7225 -18.6501 -18.4224 -16.1606 -15.5352 -15.1811 -14.8665
   -14.8101 -14.6485 -14.6084 -14.3627 -14.3187 -14.2021 -14.0580 -13.9570
   -13.8872 -13.7931 -13.3666  -8.6410  -8.3706  -8.2386  -8.1523  -8.1225
    -7.9934  -7.9291  -7.8332  -7.7236  -7.7059  -7.5675  -7.3734  -3.6088
    -2.9770  -2.8327  -2.6508  -2.3987  -2.2044  -2.2012  -2.1851  -2.1451
    -2.0789  -1.9440  -1.7865  -1.7618  -1.7338  -1.6035  -1.3382  -1.2897
    -1.2149  -1.1830  -1.1466  -1.0504  -1.0179  -1.0108  -0.9249  -0.8556
    -0.7776  -0.6506  -0.5096  -0.5074  -0.4233  -0.4204  -0.2109  -0.0368
    -0.0342   0.0229   0.0459   0.0797   0.0950   0.1619   0.2127   0.2211
     0.2749   0.2809   0.3145   0.4063   0.5076   0.5526   0.5650   0.6218
     0.6482   0.6978   0.7876   0.8370   1.0205   1.0801   1.1212   1.1631
     1.1688   1.2260   1.3209   1.3437   1.4402   1.4689   1.5273   1.5360
     1.5807   1.6051   1.7542   1.8750   1.9133   1.9521   2.1484   2.1976
     2.3094   2.5632   2.6009   2.7767   2.7919   2.8957   2.9225   3.1782
     4.3245   4.6446   5.1826   5.9525   6.0469   6.0998   6.4756   6.5508
     6.5797   7.5919   7.6805   7.7133   7.8650   7.9589   8.1154   8.2810
     8.5800   8.7757

          k = 0.2500 0.2563 0.0000 ( 36939 PWs)   bands (ev):

   -41.2355 -38.3222 -23.1481 -22.8613 -22.7254 -22.4779 -21.3511 -21.2482
   -21.2001 -18.6563 -18.6366 -18.6198 -16.0442 -15.5592 -14.9494 -14.7672
   -14.7067 -14.6108 -14.5586 -14.4631 -14.2957 -14.0801 -14.0622 -13.9245
   -13.8782 -13.8544 -13.4206  -8.6757  -8.5712  -8.4254  -8.2404  -8.1717
    -8.1337  -8.0746  -8.0265  -7.8209  -7.6995  -7.6627  -7.4728  -3.9464
    -3.2526  -2.9766  -2.8760  -2.5567  -2.5098  -2.3427  -2.3286  -2.2608
    -2.2081  -2.1764  -2.1324  -1.9924  -1.9558  -1.8923  -1.7292  -1.6934
    -1.6353  -1.5926  -1.5576  -1.4111  -1.0791  -1.0551  -0.9944  -0.9304
    -0.8156  -0.8079  -0.7315  -0.5756  -0.5314  -0.4652  -0.3805  -0.3534
    -0.2823  -0.2400  -0.2155  -0.0152   0.0069   0.1278   0.2324   0.3594
     0.4237   0.4710   0.4733   0.5132   0.5738   0.6542   0.6838   0.7267
     1.0299   1.0718   1.1103   1.1675   1.1770   1.1860   1.2777   1.2877
     1.3010   1.3960   1.4736   1.5332   1.5619   1.6260   1.6855   1.7733
     1.7998   1.8635   1.9410   1.9590   2.0471   2.0918   2.1695   2.3918
     2.7302   2.7853   3.0447   3.1728   3.1773   3.3618   3.5634   3.6750
     4.5717   4.6248   4.8804   6.2104   6.4655   6.5059   6.5622   6.5930
     6.9396   7.4176   8.1124   8.1951   8.3108   8.4496   8.5900   8.6174
     8.7197   8.8079

          k = 0.2500 0.3844 0.0000 ( 36955 PWs)   bands (ev):

   -41.2313 -38.3166 -23.1018 -22.8137 -22.6791 -22.4295 -21.3732 -21.2911
   -21.1989 -18.8376 -18.6203 -18.5412 -15.8913 -15.6257 -14.8251 -14.6966
   -14.5863 -14.5383 -14.5157 -14.5025 -14.2493 -14.1358 -13.9815 -13.8823
   -13.8809 -13.8058 -13.5165  -8.7626  -8.5742  -8.5320  -8.3649  -8.2905
    -8.1840  -8.1503  -8.0632  -8.0575  -7.8789  -7.7144  -7.6731  -4.2739
    -3.6667  -3.2594  -3.1542  -2.9887  -2.8296  -2.7756  -2.7435  -2.5805
    -2.3547  -2.2845  -2.2041  -2.0839  -2.0622  -2.0558  -2.0374  -1.8288
    -1.6905  -1.6134  -1.5715  -1.4937  -1.1796  -1.1196  -1.0355  -1.0153
    -0.9963  -0.9272  -0.7593  -0.6836  -0.6812  -0.5499  -0.5369  -0.5204
    -0.4802  -0.4183  -0.2896  -0.0390   0.0407   0.1359   0.2705   0.4537
     0.5098   0.5347   0.6166   0.6413   0.7416   0.8457   0.8510   0.8795
     1.0912   1.1087   1.1883   1.2380   1.3215   1.3952   1.4150   1.5278
     1.5528   1.5974   1.6184   1.6337   1.7678   1.7755   1.8500   1.8661
     1.9475   2.0612   2.0748   2.1974   2.2237   2.3647   2.4289   2.6671
     2.9319   2.9748   3.0806   3.1202   3.4507   3.6297   3.9420   4.0126
     4.4907   4.6492   4.9389   6.0141   6.5649   6.6324   6.8106   6.9271
     7.0387   7.6996   8.1858   8.4907   8.5312   8.7184   8.9603   9.0150
     9.1369   9.2473

          k = 0.2500-0.5125 0.0000 ( 36998 PWs)   bands (ev):

   -41.2296 -38.3143 -23.0824 -22.7937 -22.6596 -22.4091 -21.3999 -21.2937
   -21.1951 -18.9120 -18.6145 -18.5005 -15.7497 -15.7332 -14.8684 -14.5930
   -14.5807 -14.5499 -14.4998 -14.3100 -14.2827 -14.2351 -14.0120 -13.8601
   -13.8096 -13.7080 -13.6271  -8.7503  -8.5655  -8.5167  -8.4569  -8.3424
    -8.2170  -8.1707  -8.1363  -8.0644  -8.0025  -7.8685  -7.6632  -4.4086
    -3.8300  -3.4768  -3.3380  -3.0301  -2.9984  -2.9824  -2.8888  -2.7821
    -2.3486  -2.2847  -2.2190  -2.1693  -2.1106  -2.0503  -2.0171  -1.9450
    -1.6635  -1.5978  -1.5959  -1.5168  -1.2744  -1.1657  -1.0804  -1.0392
    -1.0354  -0.9058  -0.8027  -0.7671  -0.6979  -0.6231  -0.5689  -0.5256
    -0.5082  -0.4715  -0.3052  -0.0533   0.0770   0.1476   0.2876   0.4705
     0.5180   0.5338   0.6701   0.7859   0.7998   0.8919   0.9696   0.9775
     1.1460   1.1481   1.1973   1.2569   1.3944   1.4105   1.4360   1.4608
     1.4733   1.6418   1.6706   1.7543   1.8199   1.8289   1.8822   1.9257
     2.0338   2.2341   2.2560   2.3088   2.3565   2.5433   2.5988   2.8147
     2.8167   2.9848   3.0034   3.1872   3.5084   3.6842   3.9942   4.1518
     4.3618   4.6332   5.0841   5.9105   6.5747   6.5827   6.7669   6.8626
     7.5516   7.8522   7.9143   8.4952   8.6711   9.1110   9.1114   9.3740
     9.4271   9.4859

          k = 0.3750 0.0000 0.0000 ( 36982 PWs)   bands (ev):

   -41.2382 -38.3256 -23.1679 -22.8804 -22.7447 -22.4966 -21.3761 -21.2894
   -21.0994 -18.8450 -18.6679 -18.3163 -16.0293 -15.6393 -15.0482 -15.0244
   -14.9457 -14.8045 -14.7479 -14.3979 -14.2458 -14.1716 -14.0832 -13.9558
   -13.8741 -13.7954 -13.4817  -8.6710  -8.2329  -8.1462  -8.0591  -8.0067
    -7.8183  -7.7584  -7.7470  -7.6640  -7.5898  -7.4788  -7.3849  -3.6637
    -3.0169  -2.8668  -2.7500  -2.4004  -2.3806  -2.2341  -2.1736  -2.0581
    -1.9467  -1.9070  -1.8411  -1.8395  -1.8127  -1.4099  -1.3447  -1.2332
    -1.1590  -1.1410  -1.1274  -1.0448  -1.0154  -0.9285  -0.8916  -0.7924
    -0.7768  -0.6929  -0.6381  -0.6092  -0.5242  -0.4120  -0.3828  -0.3026
    -0.1203  -0.1121  -0.0258   0.1000   0.1715   0.2331   0.2670   0.2939
     0.3054   0.3101   0.3171   0.4901   0.5166   0.5368   0.5384   0.5911
     0.6293   0.6720   0.7095   0.7310   0.8117   0.8506   0.9468   1.1043
     1.1767   1.2692   1.3168   1.3517   1.4487   1.4709   1.5077   1.6137
     1.6569   1.6681   1.7193   1.7490   1.7917   1.8122   2.0356   2.0617
     2.0902   2.3305   2.4547   2.4853   2.5244   2.7435   2.8557   2.9337
     4.1174   4.6577   5.1854   6.3462   6.4226   6.4395   6.6107   6.8036
     7.0556   7.6937   7.8475   7.8532   8.0079   8.2661   8.2957   8.6259
     8.7760   8.9039

          k = 0.3750 0.1281 0.0000 ( 36902 PWs)   bands (ev):

   -41.2365 -38.3233 -23.1512 -22.8634 -22.7280 -22.4794 -21.3715 -21.2859
   -21.1359 -18.8378 -18.6350 -18.4146 -15.9923 -15.6300 -14.9897 -14.9508
   -14.8645 -14.7608 -14.7048 -14.3639 -14.3130 -14.1483 -14.0397 -13.9394
   -13.8580 -13.8066 -13.4850  -8.6677  -8.3089  -8.2336  -8.1414  -8.0651
    -8.0411  -7.8892  -7.7892  -7.7796  -7.6866  -7.6290  -7.4296  -3.8218
    -3.1646  -2.9220  -2.8685  -2.4204  -2.4104  -2.2739  -2.2066  -2.1942
    -2.1073  -2.0533  -1.9860  -1.7380  -1.7039  -1.6382  -1.5051  -1.4335
    -1.3761  -1.2663  -1.1870  -1.1529  -1.0871  -1.0171  -1.0037  -1.0024
    -0.9212  -0.7637  -0.7301  -0.6834  -0.6335  -0.4644  -0.2927  -0.1318
    -0.1279  -0.0352   0.0042   0.0385   0.0814   0.1959   0.2003   0.2293
     0.3241   0.3832   0.3971   0.4695   0.5846   0.6383   0.6544   0.6972
     0.7328   0.7365   0.7987   0.9168   0.9953   1.0316   1.0545   1.1644
     1.1911   1.2594   1.3937   1.4157   1.4618   1.4862   1.5075   1.5855
     1.6302   1.6423   1.7292   1.8019   1.9552   2.1089   2.1188   2.3474
     2.4815   2.6748   2.7921   2.8189   2.8839   2.9404   3.0466   3.2698
     4.1942   4.6740   5.0201   6.2805   6.4708   6.5678   6.5806   6.8619
     7.1449   7.5061   7.9230   7.9582   8.0490   8.5002   8.5843   8.6442
     8.7348   8.9631

          k = 0.3750 0.2563 0.0000 ( 36937 PWs)   bands (ev):

   -41.2323 -38.3179 -23.1101 -22.8219 -22.6871 -22.4374 -21.3611 -21.2936
   -21.2044 -18.8203 -18.6298 -18.5518 -15.8966 -15.6169 -14.8661 -14.7695
   -14.6788 -14.6495 -14.5669 -14.4792 -14.2814 -14.0943 -13.9284 -13.9017
   -13.8533 -13.8215 -13.4991  -8.7314  -8.6054  -8.4745  -8.3290  -8.2630
    -8.1901  -8.1233  -8.0881  -8.0483  -7.8811  -7.7195  -7.7016  -4.2396
    -3.6043  -3.1528  -2.9654  -2.8857  -2.5382  -2.4944  -2.3924  -2.2910
    -2.2263  -2.1806  -2.0853  -2.0622  -2.0172  -1.9621  -1.9446  -1.8725
    -1.8067  -1.6561  -1.4754  -1.4366  -1.0929  -1.0217  -0.9649  -0.8973
    -0.8913  -0.8220  -0.7247  -0.6557  -0.5848  -0.5245  -0.4338  -0.3737
    -0.3681  -0.2876  -0.2277  -0.0720   0.0598   0.2391   0.3202   0.4906
     0.5436   0.5540   0.6430   0.7154   0.7399   0.8287   0.8718   0.8950
     1.0082   1.0829   1.1383   1.2236   1.2423   1.2832   1.3282   1.3447
     1.4193   1.4729   1.5000   1.5552   1.5845   1.6196   1.7023   1.7861
     1.8324   1.8500   1.9481   2.0317   2.0856   2.1042   2.1753   2.6525
     3.0036   3.0499   3.1141   3.1675   3.5463   3.5802   3.7175   4.0027
     4.2761   4.7063   4.8554   5.8910   6.4453   6.5644   6.6076   6.9147
     6.9466   7.6085   8.1642   8.3123   8.4957   8.6174   8.9089   8.9494
     9.0094   9.0801

          k = 0.3750 0.3844 0.0000 ( 37023 PWs)   bands (ev):

   -41.2282 -38.3123 -23.0683 -22.7795 -22.6454 -22.3946 -21.3656 -21.3376
   -21.2186 -18.8244 -18.7998 -18.4625 -15.7802 -15.6280 -14.7533 -14.6428
   -14.5611 -14.5278 -14.5032 -14.3773 -14.2069 -14.0751 -13.9317 -13.8681
   -13.8246 -13.7641 -13.5317  -8.9704  -8.7409  -8.6371  -8.6268  -8.5241
    -8.3903  -8.3771  -8.1795  -8.1736  -8.0874  -8.0357  -7.7037  -4.6521
    -4.0565  -3.5150  -3.1808  -3.1539  -2.9808  -2.8712  -2.7158  -2.6436
    -2.4899  -2.4586  -2.3782  -2.2334  -2.1396  -2.0714  -1.9998  -1.9594
    -1.8806  -1.7227  -1.4964  -1.3616  -1.3103  -1.1101  -1.0596  -0.9481
    -0.9381  -0.9067  -0.7740  -0.7000  -0.6843  -0.6088  -0.5915  -0.5083
    -0.4835  -0.1862  -0.1750  -0.0788   0.1581   0.3565   0.3858   0.5974
     0.7038   0.7499   0.8128   0.8590   0.9529   1.0072   1.0929   1.2149
     1.2414   1.2453   1.3287   1.4378   1.4431   1.4597   1.5242   1.5338
     1.6517   1.7447   1.7637   1.7739   1.8349   1.8920   1.9012   1.9073
     2.0217   2.0894   2.1887   2.2524   2.2808   2.2860   2.3569   2.9444
     2.9644   3.0976   3.1992   3.6048   3.9473   4.1139   4.2127   4.2776
     4.4700   4.5357   5.1526   5.3739   6.0802   6.2584   6.6249   6.8237
     7.2016   7.9266   8.5005   8.6450   8.7509   8.8031   8.8785   9.0267
     9.0311   9.2516

          k = 0.3750-0.5125 0.0000 ( 37046 PWs)   bands (ev):

   -41.2265 -38.3101 -23.0507 -22.7617 -22.6279 -22.3766 -21.3922 -21.3395
   -21.2153 -18.8965 -18.7945 -18.4234 -15.6903 -15.6754 -14.7562 -14.6578
   -14.5038 -14.4734 -14.3074 -14.2822 -14.2121 -14.1684 -13.9426 -13.8564
   -13.8082 -13.6960 -13.5654  -9.0481  -8.8199  -8.7736  -8.6366  -8.6182
    -8.5323  -8.4694  -8.3004  -8.1912  -8.1738  -8.0834  -7.6980  -4.8173
    -4.2376  -3.6826  -3.4012  -3.2736  -3.0598  -2.9781  -2.9540  -2.8733
    -2.5986  -2.5064  -2.3916  -2.2309  -2.1746  -2.0669  -2.0071  -1.9942
    -1.8616  -1.7515  -1.5026  -1.4608  -1.3202  -1.1380  -1.0707  -0.9965
    -0.9915  -0.9511  -0.8082  -0.7788  -0.7400  -0.6837  -0.5785  -0.5652
    -0.4894  -0.1412  -0.0678  -0.0481   0.1854   0.3969   0.4329   0.6085
     0.7405   0.8679   0.8762   0.9214   1.0354   1.0877   1.1548   1.2593
     1.2808   1.3753   1.4503   1.4970   1.5418   1.6068   1.6352   1.6636
     1.6906   1.7140   1.7392   1.8231   1.9007   2.0092   2.0278   2.1156
     2.1782   2.2183   2.2767   2.3276   2.4037   2.4825   2.5376   2.7951
     2.9427   3.0855   3.2905   3.7456   4.0513   4.2025   4.2726   4.3774
     4.4338   4.7061   5.1665   5.2953   5.8825   6.0647   6.5360   6.8931
     7.7874   7.9551   8.0750   8.7257   8.7359   8.8810   9.0219   9.1029
     9.1840   9.2554

          k =-0.5000 0.0000 0.0000 ( 36894 PWs)   bands (ev):

   -41.2369 -38.3238 -23.1494 -22.8609 -22.7260 -22.4764 -21.3938 -21.2982
   -21.0977 -18.9172 -18.6296 -18.3138 -15.9027 -15.7400 -15.1007 -15.0333
   -14.8632 -14.8563 -14.8098 -14.4287 -14.2341 -14.2144 -13.9943 -13.9500
   -13.8387 -13.8036 -13.5773  -8.6777  -8.2321  -8.1291  -8.0519  -7.9722
    -7.7956  -7.7540  -7.7087  -7.6535  -7.5541  -7.4599  -7.3447  -3.7487
    -3.1404  -2.9810  -2.5501  -2.5314  -2.3346  -2.2788  -2.2363  -2.2003
    -2.1156  -1.8735  -1.8676  -1.7998  -1.6192  -1.5121  -1.4164  -1.3572
    -1.2816  -1.2573  -1.1587  -1.0665  -1.0545  -1.0498  -0.8882  -0.8593
    -0.8288  -0.7364  -0.6401  -0.6371  -0.6322  -0.6034  -0.3969  -0.3503
    -0.1679  -0.1163  -0.0649   0.1024   0.2227   0.2488   0.2778   0.2883
     0.3046   0.3070   0.3214   0.5110   0.5315   0.5675   0.5829   0.6152
     0.6189   0.6458   0.6465   0.7628   0.8336   0.8785   1.0796   1.0929
     1.2215   1.2558   1.2677   1.3704   1.3993   1.4681   1.4725   1.6651
     1.6952   1.7139   1.7168   1.7368   1.8311   1.8324   2.0463   2.0655
     2.2821   2.3295   2.4235   2.4497   2.5327   2.7568   2.8955   3.0123
     3.9832   4.7436   5.1241   6.5397   6.6274   6.9707   7.0930   7.2020
     7.2590   7.2659   7.3725   7.6103   7.8354   8.4743   8.6736   8.8813
     9.0091   9.0277

          k =-0.5000 0.1281 0.0000 ( 36904 PWs)   bands (ev):

   -41.2352 -38.3215 -23.1334 -22.8448 -22.7100 -22.4602 -21.3898 -21.2941
   -21.1338 -18.9094 -18.5973 -18.4113 -15.8705 -15.7234 -15.0458 -14.9687
   -14.8094 -14.7685 -14.7404 -14.3947 -14.3007 -14.1806 -13.9567 -13.9316
   -13.8222 -13.8085 -13.5713  -8.6727  -8.2279  -8.1798  -8.1771  -8.1262
    -7.9307  -7.9200  -7.7766  -7.7582  -7.7552  -7.5957  -7.5546  -3.9131
    -3.2934  -3.0445  -2.7663  -2.5922  -2.5551  -2.2567  -2.2195  -2.2110
    -2.1099  -2.0956  -1.8027  -1.7457  -1.7259  -1.6816  -1.6548  -1.5917
    -1.4029  -1.2200  -1.1878  -1.1481  -1.1180  -1.0659  -0.9902  -0.9463
    -0.9393  -0.8353  -0.8066  -0.7676  -0.7540  -0.4782  -0.3417  -0.1687
    -0.1506  -0.1083  -0.0203  -0.0099   0.0834   0.1838   0.2306   0.2331
     0.3229   0.4047   0.4436   0.4916   0.5784   0.6442   0.7494   0.7538
     0.7812   0.8064   0.8812   0.9088   0.9370   0.9537   1.1185   1.1720
     1.2239   1.2571   1.3799   1.3999   1.4065   1.4185   1.5120   1.6346
     1.6520   1.6728   1.7407   1.8191   1.9786   2.0851   2.2739   2.3878
     2.5839   2.6961   2.7870   2.8124   2.8886   3.0404   3.0852   3.2580
     4.0262   4.7746   4.9614   6.3154   6.5693   6.9194   7.0828   7.1383
     7.3256   7.4809   7.5495   7.5594   7.7368   8.8657   8.8661   8.9074
     8.9803   9.1438

          k =-0.5000 0.2563 0.0000 ( 36970 PWs)   bands (ev):

   -41.2310 -38.3161 -23.0942 -22.8053 -22.6710 -22.4204 -21.3803 -21.3009
   -21.2019 -18.8906 -18.6253 -18.5156 -15.7910 -15.6869 -14.9135 -14.7819
   -14.6684 -14.6599 -14.4836 -14.4626 -14.3125 -14.0983 -13.8920 -13.8693
   -13.8407 -13.7833 -13.5576  -8.6906  -8.5898  -8.4810  -8.3966  -8.2419
    -8.2314  -8.1962  -8.0881  -8.0583  -8.0381  -7.9066  -7.7228  -4.3617
    -3.7459  -3.2881  -3.0146  -2.9477  -2.6718  -2.4727  -2.4075  -2.2859
    -2.2247  -2.2155  -2.1723  -2.1310  -1.9971  -1.9636  -1.9521  -1.8872
    -1.8608  -1.6818  -1.4473  -1.4250  -1.1902  -0.9989  -0.9239  -0.8569
    -0.8003  -0.7848  -0.7512  -0.7105  -0.6681  -0.4883  -0.4409  -0.4159
    -0.3696  -0.3078  -0.2323  -0.1025   0.1008   0.2428   0.4258   0.5182
     0.5840   0.6301   0.6599   0.7811   0.8262   0.8820   0.9514   0.9838
     1.0304   1.1205   1.1934   1.3079   1.3160   1.3357   1.3574   1.3751
     1.3799   1.4033   1.4144   1.5242   1.5747   1.7440   1.7591   1.7969
     1.7975   1.8431   1.9068   1.9253   2.0359   2.1649   2.2650   2.7826
     3.0372   3.1310   3.1559   3.2231   3.5986   3.6787   3.8129   4.0596
     4.0945   4.6468   4.9745   5.7328   6.4033   6.5677   6.5768   6.8334
     7.4570   7.7707   7.9434   8.2614   8.3486   8.8685   8.8924   9.1083
     9.1262   9.1726

          k =-0.5000 0.3844 0.0000 ( 37078 PWs)   bands (ev):

   -41.2269 -38.3106 -23.0542 -22.7651 -22.6313 -22.3800 -21.3707 -21.3569
   -21.2177 -18.8719 -18.8162 -18.4281 -15.7087 -15.6554 -14.7793 -14.6346
   -14.5381 -14.5052 -14.5046 -14.2445 -14.2344 -14.0479 -13.9085 -13.8624
   -13.8140 -13.7247 -13.5450  -9.0222  -8.7902  -8.7753  -8.6405  -8.6037
    -8.5358  -8.4365  -8.3191  -8.1981  -8.1920  -8.0935  -7.7163  -4.8061
    -4.2169  -3.6553  -3.2723  -3.1401  -2.9922  -2.9743  -2.7041  -2.6506
    -2.6004  -2.5236  -2.4062  -2.2288  -2.1957  -2.0705  -2.0252  -1.9907
    -1.8595  -1.7786  -1.4645  -1.4495  -1.2225  -1.1654  -1.0631  -0.9185
    -0.9008  -0.8717  -0.8468  -0.7099  -0.6382  -0.6363  -0.5685  -0.5632
    -0.5233  -0.1210  -0.0567  -0.0347   0.1887   0.3935   0.5142   0.6307
     0.7843   0.8178   0.9196   0.9726   1.0205   1.1699   1.1906   1.2278
     1.2715   1.2944   1.3958   1.4875   1.5052   1.5854   1.6534   1.6726
     1.6792   1.6852   1.7493   1.7736   1.8360   1.9000   1.9248   2.0033
     2.0934   2.1334   2.1868   2.2481   2.2726   2.3110   2.3293   2.9623
     3.0721   3.0804   3.2983   3.8232   4.0082   4.0403   4.3353   4.3966
     4.4243   4.7416   5.1029   5.2705   5.8415   6.0216   6.5185   6.9239
     7.7309   8.0623   8.1063   8.5332   8.5873   8.7789   9.0180   9.0578
     9.1337   9.2232

          k =-0.5000-0.5125 0.0000 ( 37044 PWs)   bands (ev):

   -41.2252 -38.3083 -23.0375 -22.7483 -22.6146 -22.3630 -21.3890 -21.3667
   -21.2146 -18.8900 -18.8641 -18.3898 -15.6738 -15.6437 -14.7234 -14.7066
   -14.4661 -14.4262 -14.2895 -14.2063 -14.1588 -14.1517 -13.9119 -13.8546
   -13.8106 -13.6885 -13.5403  -9.1700  -8.9423  -8.8962  -8.7564  -8.6533
    -8.6338  -8.5893  -8.4211  -8.3141  -8.1898  -8.0906  -7.7128  -4.9824
    -4.4064  -3.8236  -3.3898  -3.3557  -3.1500  -2.9952  -2.9418  -2.8854
    -2.7312  -2.5514  -2.4298  -2.2457  -2.2241  -2.0587  -2.0245  -2.0182
    -1.8351  -1.8232  -1.5413  -1.4611  -1.2385  -1.1468  -1.1392  -0.9665
    -0.9564  -0.9430  -0.8778  -0.7993  -0.7196  -0.6695  -0.6351  -0.5467
    -0.5249  -0.0779  -0.0288   0.1494   0.2146   0.4508   0.5941   0.6436
     0.8502   0.8688   0.8869   1.0673   1.1945   1.2635   1.2673   1.2999
     1.3505   1.3652   1.3845   1.5687   1.6326   1.6332   1.7961   1.7990
     1.8187   1.8201   1.8341   1.8445   1.9160   2.0028   2.0571   2.2131
     2.2568   2.2907   2.3474   2.3528   2.4409   2.4551   2.5069   2.7895
     2.9143   3.2074   3.3688   4.0102   4.0305   4.0969   4.3074   4.5588
     4.6450   4.8713   4.9660   5.3833   5.5918   5.7775   6.4208   7.2208
     7.9674   8.1669   8.1840   8.2333   8.5568   8.5893   8.9866   9.0898
     9.1293   9.3005

     the Fermi energy is     2.7528 ev

!    total energy              =   -1868.40074105 Ry
     Harris-Foulkes estimate   =   -1868.40074141 Ry
     estimated scf accuracy    <       0.00000058 Ry

     The total energy is the sum of the following terms:

     one-electron contribution =  -29893.22845766 Ry
     hartree contribution      =   15097.56338090 Ry
     xc contribution           =    -641.75800464 Ry
     ewald contribution        =   13569.03104055 Ry
     smearing contrib. (-TS)   =      -0.00870021 Ry

     convergence has been achieved in  38 iterations

     negative rho (up, down):  8.991E-02 0.000E+00

     Forces acting on atoms (cartesian axes, Ry/au):

     atom    1 type  3   force =     0.00000000    0.00000000    0.00008047
     atom    2 type  2   force =     0.00000000    0.00000000    0.00071861
     atom    3 type  3   force =     0.00000000    0.00000000   -0.00011808
     atom    4 type  1   force =     0.00000000    0.00000000   -0.00007092
     atom    5 type  2   force =     0.00000000    0.00000000   -0.00071950
     atom    6 type  3   force =     0.00000000    0.00000000    0.00033685
     atom    7 type  3   force =     0.00000000    0.00000000    0.00011973
     atom    8 type  4   force =     0.00000000    0.00000000   -0.00045119
     atom    9 type  3   force =     0.00000000    0.00000000    0.00079600
     atom   10 type  3   force =     0.00000000    0.00000000    0.00104233
     atom   11 type  2   force =     0.00000000    0.00000000   -0.00212788
     atom   12 type  1   force =     0.00000000    0.00000000   -0.00163092
     atom   13 type  3   force =     0.00000000    0.00000000    0.00237841
     atom   14 type  3   force =     0.00000000    0.00000000    0.00586488
     atom   15 type  2   force =     0.00000000    0.00000000   -0.01078998
     atom   16 type  3   force =     0.00000000    0.00000000    0.01987239
     atom   17 type  1   force =     0.00000000    0.00000000   -0.02310191
     atom   18 type  2   force =     0.00000000    0.00000000    0.00295875
     atom   19 type  3   force =     0.00000000    0.00000000    0.06120608
     atom   20 type  3   force =     0.00000000    0.00000000    0.06300548
     atom   21 type  4   force =     0.00000000    0.00000000   -0.11074836
     atom   22 type  3   force =     0.00000000    0.00000000    0.01943575
     atom   23 type  3   force =     0.00000000    0.00000000    0.02559996
     atom   24 type  2   force =     0.00000000    0.00000000   -0.01892914
     atom   25 type  1   force =     0.00000000    0.00000000   -0.03291575
     atom   26 type  3   force =     0.00000000    0.00000000   -0.00341754
     atom   27 type  2   force =     0.00000000    0.00000000   -0.00367944
     atom   28 type  3   force =     0.00000000    0.00000000    0.00528492

     Total force =     0.153666     Total SCF correction =     0.002761


     Computing stress (Cartesian axis) and pressure


     negative rho (up, down):  8.991E-02 0.000E+00
          total   stress  (Ry/bohr**3)                   (kbar)     P=      -10.75
  -0.00006196   0.00000000   0.00000000           -9.11        0.00        0.00
   0.00000000  -0.00004832   0.00000000            0.00       -7.11        0.00
   0.00000000   0.00000000  -0.00010896            0.00        0.00      -16.03

 
     init_run     :      9.28s CPU      9.56s WALL (       1 calls)
     electrons    :    604.79s CPU    627.32s WALL (       1 calls)
     forces       :      4.00s CPU      4.18s WALL (       1 calls)
     stress       :     24.27s CPU     24.78s WALL (       1 calls)

     Called by init_run:
     wfcinit      :      6.29s CPU      6.40s WALL (       1 calls)
     potinit      :      0.81s CPU      0.82s WALL (       1 calls)
     hinit0       :      0.98s CPU      0.99s WALL (       1 calls)

     Called by electrons:
     c_bands      :    457.23s CPU    468.39s WALL (      38 calls)
     sum_band     :     96.72s CPU    102.76s WALL (      38 calls)
     v_of_rho     :      3.13s CPU      3.17s WALL (      39 calls)
     newd         :     29.29s CPU     34.51s WALL (      39 calls)
     mix_rho      :     18.96s CPU     19.12s WALL (      38 calls)

     Called by c_bands:
     init_us_2    :      4.15s CPU      4.17s WALL (    1975 calls)
     cegterg      :    427.39s CPU    437.95s WALL (     950 calls)

     Called by sum_band:
     sum_band:bec :      0.25s CPU      0.25s WALL (     950 calls)
     addusdens    :     26.02s CPU     31.34s WALL (      38 calls)

     Called by *egterg:
     h_psi        :    225.04s CPU    232.27s WALL (    3691 calls)
     s_psi        :     20.44s CPU     20.61s WALL (    3691 calls)
     g_psi        :      0.67s CPU      0.67s WALL (    2716 calls)
     cdiaghg      :     91.97s CPU     92.34s WALL (    3666 calls)

     Called by h_psi:
     h_psi:calbec :     27.11s CPU     28.20s WALL (    3691 calls)
     vloc_psi     :    175.62s CPU    178.00s WALL (    3691 calls)
     add_vuspsi   :     21.24s CPU     23.09s WALL (    3691 calls)

     General routines
     calbec       :     49.02s CPU     50.20s WALL (    4766 calls)
     fft          :      2.53s CPU      2.55s WALL (     530 calls)
     ffts         :     10.34s CPU     10.43s WALL (   16306 calls)
     fftw         :    203.75s CPU    206.51s WALL (  675062 calls)
     interpolate  :      0.37s CPU      0.38s WALL (      39 calls)
 
     Parallel routines
     fft_scatt_xy :     23.11s CPU     23.40s WALL (  691898 calls)
     fft_scatt_yz :    136.31s CPU    138.12s WALL (  691898 calls)
 
     PWSCF        :  10m43.33s CPU  11m 6.90s WALL

 
   This run was terminated on:  18:17:27   5May2021            

=------------------------------------------------------------------------------=
   JOB DONE.
=------------------------------------------------------------------------------=
[1620253047.475746] [holy7c06408:5376 :0]          mpool.c:43   UCX  WARN  object 0x4772e80 was not returned to mpool ucp_requests
[1620253047.491501] [holy7c06212:18941:0]          mpool.c:43   UCX  WARN  object 0x3608c00 was not returned to mpool ucp_requests
[1620253047.476675] [holy7c06408:5375 :0]          mpool.c:43   UCX  WARN  object 0x40c5c00 was not returned to mpool ucp_requests
[1620253047.493544] [holy7c06212:18945:0]          mpool.c:43   UCX  WARN  object 0x2d19f00 was not returned to mpool ucp_requests
[1620253047.484887] [holy7c06212:18949:0]          mpool.c:43   UCX  WARN  object 0x3f70f80 was not returned to mpool ucp_requests
[1620253047.484907] [holy7c06212:18949:0]          mpool.c:43   UCX  WARN  object 0x3f71140 was not returned to mpool ucp_requests
[1620253047.502398] [holy7c06212:18946:0]          mpool.c:43   UCX  WARN  object 0x3836e80 was not returned to mpool ucp_requests
[1620253047.503136] [holy7c06212:18940:0]          mpool.c:43   UCX  WARN  object 0x3779a40 was not returned to mpool ucp_requests
[1620253047.503160] [holy7c06212:18940:0]          mpool.c:43   UCX  WARN  object 0x3779dc0 was not returned to mpool ucp_requests
