
     Program PWSCF v.6.5 starts on  5May2021 at 18: 6:40 

     This program is part of the open-source Quantum ESPRESSO suite
     for quantum simulation of materials; please cite
         "P. Giannozzi et al., J. Phys.:Condens. Matter 21 395502 (2009);
         "P. Giannozzi et al., J. Phys.:Condens. Matter 29 465901 (2017);
          URL http://www.quantum-espresso.org", 
     in publications or presentations arising from this work. More details at
     http://www.quantum-espresso.org/quote

     Parallel version (MPI), running on    20 processors

     MPI processes distributed on    15 nodes
     R & G space division:  proc/nbgrp/npool/nimage =      20
     Reading input from YBCO_Y_cleave_5.0_sep_scf.pwi
Warning: card &IONS ignored
Warning: card     ION_DYNAMICS = 'BFGS' ignored
Warning: card / ignored
Warning: card &CELL ignored
Warning: card     CELL_DYNAMICS = 'BFGS' ignored
Warning: card / ignored

     Current dimensions of program PWSCF are:
     Max number of different atomic species (ntypx) = 10
     Max number of k-points (npk) =  40000
     Max angular momentum in pseudopotentials (lmaxx) =  3

     Subspace diagonalization in iterative solution of the eigenvalue problem:
     one sub-group per band group will be used
     scalapack distributed-memory algorithm (size of sub-group:  4*  4 procs)

     Message from routine setup:
     using ibrav=0 with symmetry is DISCOURAGED, use correct ibrav instead
 
     Parallelization info
     --------------------
     sticks:   dense  smooth     PW     G-vecs:    dense   smooth      PW
     Min         150      50     14                79178    15233    2374
     Max         151      51     15                79221    15259    2425
     Sum        3015    1011    293              1583993   304845   48017
 


     bravais-lattice index     =            0
     lattice parameter (alat)  =       7.3477  a.u.
     unit-cell volume          =    4854.4281 (a.u.)^3
     number of atoms/cell      =           28
     number of atomic types    =            4
     number of electrons       =       229.00
     number of Kohn-Sham states=          138
     kinetic-energy cutoff     =      60.0000  Ry
     charge density cutoff     =     720.0000  Ry
     convergence threshold     =      1.0E-06
     mixing beta               =       0.2000
     number of iterations used =           10  local-TF  mixing
     Exchange-correlation= SLA PW PBE PBE
                           (   1   4   3   4   0   0   0)

     celldm(1)=   7.347715  celldm(2)=   0.000000  celldm(3)=   0.000000
     celldm(4)=   0.000000  celldm(5)=   0.000000  celldm(6)=   0.000000

     crystal axes: (cart. coord. in units of alat)
               a(1) = (   1.000000   0.000000   0.000000 )  
               a(2) = (   0.000000   0.975577   0.000000 )  
               a(3) = (   0.000000   0.000000  12.543521 )  

     reciprocal axes: (cart. coord. in units 2 pi/alat)
               b(1) = (  1.000000  0.000000  0.000000 )  
               b(2) = (  0.000000  1.025034  0.000000 )  
               b(3) = (  0.000000  0.000000  0.079722 )  


     PseudoPot. # 1 for Ba read from file:
     /n/holyscratch01/hoffman_lab/ruizhe/YBCO_Project/pseudo/Ba.pbe-nsp-van.UPF
     MD5 check sum: 2b9c31dd849566dd297d80989662b7a0
     Pseudo is Ultrasoft + core correction, Zval = 10.0
     Generated by new atomic code, or converted to UPF format
     Using radial grid of  907 points,  6 beta functions with: 
                l(1) =   0
                l(2) =   0
                l(3) =   1
                l(4) =   1
                l(5) =   2
                l(6) =   2
     Q(r) pseudized with  6 coefficients,  rinner =    1.200   1.200   1.200
                                                       1.200   1.200

     PseudoPot. # 2 for Cu read from file:
     /n/holyscratch01/hoffman_lab/ruizhe/YBCO_Project/pseudo/Cu.pbe-n-van_ak.UPF
     MD5 check sum: 34e3282627ffb533726feb647e090d62
     Pseudo is Ultrasoft + core correction, Zval = 11.0
     Generated by new atomic code, or converted to UPF format
     Using radial grid of  867 points,  6 beta functions with: 
                l(1) =   0
                l(2) =   0
                l(3) =   1
                l(4) =   1
                l(5) =   2
                l(6) =   2
     Q(r) pseudized with  8 coefficients,  rinner =    1.400   1.400   1.400
                                                       1.400   1.400

     PseudoPot. # 3 for O  read from file:
     /n/holyscratch01/hoffman_lab/ruizhe/YBCO_Project/pseudo/O.pbe-van_ak.UPF
     MD5 check sum: 783ce7fe4c79b6a4916957118fed0856
     Pseudo is Ultrasoft, Zval =  6.0
     Generated by new atomic code, or converted to UPF format
     Using radial grid of  737 points,  4 beta functions with: 
                l(1) =   0
                l(2) =   0
                l(3) =   1
                l(4) =   1
     Q(r) pseudized with  8 coefficients,  rinner =    0.800   0.800   0.800


     PseudoPot. # 4 for Y  read from file:
     /n/holyscratch01/hoffman_lab/ruizhe/YBCO_Project/pseudo/Y.pbe-nsp-van.UPF
     MD5 check sum: 4412fed3ab108fed87a1b7d6a69a4a38
     Pseudo is Ultrasoft + core correction, Zval = 11.0
     Generated by new atomic code, or converted to UPF format
     Using radial grid of  885 points,  6 beta functions with: 
                l(1) =   0
                l(2) =   0
                l(3) =   1
                l(4) =   1
                l(5) =   2
                l(6) =   2
     Q(r) pseudized with  6 coefficients,  rinner =    1.200   1.200   1.200
                                                       1.200   1.200

     atomic species   valence    mass     pseudopotential
        Ba            10.00   137.32700     Ba( 1.00)
        Cu            11.00    63.54600     Cu( 1.00)
        O              6.00    15.99900     O ( 1.00)
        Y             11.00    88.90584     Y ( 1.00)

      4 Sym. Ops. (no inversion) found



   Cartesian axes

     site n.     atom                  positions (alat units)
         1           O   tau(   1) = (   0.0000000   0.4877884  -0.0257983  )
         2           Cu  tau(   2) = (   0.0000000   0.0000000   0.0215779  )
         3           O   tau(   3) = (   0.0000000   0.0000000   0.5073114  )
         4           Ba  tau(   4) = (   0.4999996   0.4877884   0.5319677  )
         5           Cu  tau(   5) = (   0.0000000   0.0000000   1.0495845  )
         6           O   tau(   6) = (   0.4999996   0.0000000   1.1181579  )
         7           O   tau(   7) = (   0.0000000   0.4877884   1.1273137  )
         8           Y   tau(   8) = (   0.4999996   0.4877884   1.4938777  )
         9           O   tau(   9) = (   0.0000000   0.4877884   1.8497402  )
        10           O   tau(  10) = (   0.4999996   0.0000000   1.8692709  )
        11           Cu  tau(  11) = (   0.0000000   0.0000000   1.9417560  )
        12           Ba  tau(  12) = (   0.4999996   0.4877884   2.4526063  )
        13           O   tau(  13) = (   0.0000000   0.0000000   2.5103470  )
        14           O   tau(  14) = (   0.0000000   0.4877884   2.9968469  )
        15           Cu  tau(  15) = (   0.0000000   0.0000000   2.9968521  )
        16           O   tau(  16) = (   0.0000000   0.0000000   3.4833288  )
        17           Ba  tau(  17) = (   0.4999996   0.4877884   3.5410618  )
        18           Cu  tau(  18) = (   0.0000000   0.0000000   4.0519352  )
        19           O   tau(  19) = (   0.4999996   0.0000000   4.1244075  )
        20           O   tau(  20) = (   0.0000000   0.4877884   4.1439202  )
        21           Y   tau(  21) = (   0.4999996   0.4877884   4.4997853  )
        22           O   tau(  22) = (   0.0000000   0.4877884   6.1522770  )
        23           O   tau(  23) = (   0.4999996   0.0000000   6.1614457  )
        24           Cu  tau(  24) = (   0.0000000   0.0000000   6.2300242  )
        25           Ba  tau(  25) = (   0.4999996   0.4877884   6.7476255  )
        26           O   tau(  26) = (   0.0000000   0.0000000   6.7722819  )
        27           Cu  tau(  27) = (   0.0000000   0.0000000   7.2579871  )
        28           O   tau(  28) = (   0.0000000   0.4877884   7.3053684  )

     number of k points=    25  Gaussian smearing, width (Ry)=  0.0100
                       cart. coord. in units 2pi/alat
        k(    1) = (   0.0000000   0.0000000   0.0000000), wk =   0.0312500
        k(    2) = (   0.0000000   0.1281293   0.0000000), wk =   0.0625000
        k(    3) = (   0.0000000   0.2562585   0.0000000), wk =   0.0625000
        k(    4) = (   0.0000000   0.3843878   0.0000000), wk =   0.0625000
        k(    5) = (   0.0000000  -0.5125170   0.0000000), wk =   0.0312500
        k(    6) = (   0.1250000   0.0000000   0.0000000), wk =   0.0625000
        k(    7) = (   0.1250000   0.1281293   0.0000000), wk =   0.1250000
        k(    8) = (   0.1250000   0.2562585   0.0000000), wk =   0.1250000
        k(    9) = (   0.1250000   0.3843878   0.0000000), wk =   0.1250000
        k(   10) = (   0.1250000  -0.5125170   0.0000000), wk =   0.0625000
        k(   11) = (   0.2500000   0.0000000   0.0000000), wk =   0.0625000
        k(   12) = (   0.2500000   0.1281293   0.0000000), wk =   0.1250000
        k(   13) = (   0.2500000   0.2562585   0.0000000), wk =   0.1250000
        k(   14) = (   0.2500000   0.3843878   0.0000000), wk =   0.1250000
        k(   15) = (   0.2500000  -0.5125170   0.0000000), wk =   0.0625000
        k(   16) = (   0.3750000   0.0000000   0.0000000), wk =   0.0625000
        k(   17) = (   0.3750000   0.1281293   0.0000000), wk =   0.1250000
        k(   18) = (   0.3750000   0.2562585   0.0000000), wk =   0.1250000
        k(   19) = (   0.3750000   0.3843878   0.0000000), wk =   0.1250000
        k(   20) = (   0.3750000  -0.5125170   0.0000000), wk =   0.0625000
        k(   21) = (  -0.5000000   0.0000000   0.0000000), wk =   0.0312500
        k(   22) = (  -0.5000000   0.1281293   0.0000000), wk =   0.0625000
        k(   23) = (  -0.5000000   0.2562585   0.0000000), wk =   0.0625000
        k(   24) = (  -0.5000000   0.3843878   0.0000000), wk =   0.0625000
        k(   25) = (  -0.5000000  -0.5125170   0.0000000), wk =   0.0312500

     Dense  grid:  1583993 G-vectors     FFT dimensions: (  64,  64, 800)

     Smooth grid:   304845 G-vectors     FFT dimensions: (  40,  36, 480)

     Estimated max dynamical RAM per process >     504.94 MB

     Estimated total dynamical RAM >       9.86 GB

     Initial potential from superposition of free atoms

     starting charge  228.84827, renormalised to  229.00000

     negative rho (up, down):  8.967E-02 0.000E+00
     Starting wfcs are  201 randomized atomic wfcs

     total cpu time spent up to now is       13.8 secs

     Self-consistent Calculation

     iteration #  1     ecut=    60.00 Ry     beta= 0.20
     Davidson diagonalization with overlap
     ethr =  1.00E-02,  avg # of iterations =  2.0

     negative rho (up, down):  8.734E-02 0.000E+00

     total cpu time spent up to now is       35.7 secs

     total energy              =   -1869.45786011 Ry
     Harris-Foulkes estimate   =   -1871.04075540 Ry
     estimated scf accuracy    <      14.68146799 Ry

     iteration #  2     ecut=    60.00 Ry     beta= 0.20
     Davidson diagonalization with overlap
     ethr =  6.41E-03,  avg # of iterations =  1.0

     negative rho (up, down):  8.602E-02 0.000E+00

     total cpu time spent up to now is       55.5 secs

     total energy              =   -1869.03699727 Ry
     Harris-Foulkes estimate   =   -1869.79856432 Ry
     estimated scf accuracy    <       8.98204317 Ry

     iteration #  3     ecut=    60.00 Ry     beta= 0.20
     Davidson diagonalization with overlap
     ethr =  3.92E-03,  avg # of iterations =  1.0

     negative rho (up, down):  8.505E-02 0.000E+00

     total cpu time spent up to now is       75.5 secs

     total energy              =   -1868.53728395 Ry
     Harris-Foulkes estimate   =   -1869.19708041 Ry
     estimated scf accuracy    <       5.25088231 Ry

     iteration #  4     ecut=    60.00 Ry     beta= 0.20
     Davidson diagonalization with overlap
     ethr =  2.29E-03,  avg # of iterations =  1.0

     negative rho (up, down):  8.485E-02 0.000E+00

     total cpu time spent up to now is       95.2 secs

     total energy              =   -1868.84940967 Ry
     Harris-Foulkes estimate   =   -1868.80724239 Ry
     estimated scf accuracy    <      10.27303997 Ry

     iteration #  5     ecut=    60.00 Ry     beta= 0.20
     Davidson diagonalization with overlap
     ethr =  2.29E-03,  avg # of iterations =  1.0

     negative rho (up, down):  8.539E-02 0.000E+00

     total cpu time spent up to now is      114.7 secs

     total energy              =   -1868.40489274 Ry
     Harris-Foulkes estimate   =   -1868.87974828 Ry
     estimated scf accuracy    <      17.87971033 Ry

     iteration #  6     ecut=    60.00 Ry     beta= 0.20
     Davidson diagonalization with overlap
     ethr =  2.29E-03,  avg # of iterations =  1.0

     negative rho (up, down):  8.567E-02 0.000E+00

     total cpu time spent up to now is      134.3 secs

     total energy              =   -1868.51092387 Ry
     Harris-Foulkes estimate   =   -1868.64744507 Ry
     estimated scf accuracy    <       2.43848567 Ry

     iteration #  7     ecut=    60.00 Ry     beta= 0.20
     Davidson diagonalization with overlap
     ethr =  1.06E-03,  avg # of iterations =  2.4

     negative rho (up, down):  8.641E-02 0.000E+00

     total cpu time spent up to now is      155.9 secs

     total energy              =   -1868.36727997 Ry
     Harris-Foulkes estimate   =   -1868.54182128 Ry
     estimated scf accuracy    <       1.67220698 Ry

     iteration #  8     ecut=    60.00 Ry     beta= 0.20
     Davidson diagonalization with overlap
     ethr =  7.30E-04,  avg # of iterations =  5.5

     negative rho (up, down):  8.813E-02 0.000E+00

     total cpu time spent up to now is      182.4 secs

     total energy              =   -1868.44273223 Ry
     Harris-Foulkes estimate   =   -1868.49515498 Ry
     estimated scf accuracy    <       7.56153857 Ry

     iteration #  9     ecut=    60.00 Ry     beta= 0.20
     Davidson diagonalization with overlap
     ethr =  7.30E-04,  avg # of iterations =  3.3

     negative rho (up, down):  8.744E-02 0.000E+00

     total cpu time spent up to now is      205.6 secs

     total energy              =   -1868.34210393 Ry
     Harris-Foulkes estimate   =   -1868.52800625 Ry
     estimated scf accuracy    <      14.60428245 Ry

     iteration # 10     ecut=    60.00 Ry     beta= 0.20
     Davidson diagonalization with overlap
     ethr =  7.30E-04,  avg # of iterations =  1.0

     negative rho (up, down):  8.873E-02 0.000E+00

     total cpu time spent up to now is      225.3 secs

     total energy              =   -1868.38521074 Ry
     Harris-Foulkes estimate   =   -1868.42786082 Ry
     estimated scf accuracy    <       2.36515385 Ry

     iteration # 11     ecut=    60.00 Ry     beta= 0.20
     Davidson diagonalization with overlap
     ethr =  7.30E-04,  avg # of iterations =  1.0

     negative rho (up, down):  8.891E-02 0.000E+00

     total cpu time spent up to now is      244.7 secs

     total energy              =   -1868.39761453 Ry
     Harris-Foulkes estimate   =   -1868.40314600 Ry
     estimated scf accuracy    <       0.25145064 Ry

     iteration # 12     ecut=    60.00 Ry     beta= 0.20
     Davidson diagonalization with overlap
     ethr =  1.10E-04,  avg # of iterations =  5.1

     negative rho (up, down):  8.921E-02 0.000E+00

     total cpu time spent up to now is      270.8 secs

     total energy              =   -1868.39786299 Ry
     Harris-Foulkes estimate   =   -1868.40054041 Ry
     estimated scf accuracy    <       0.16464649 Ry

     iteration # 13     ecut=    60.00 Ry     beta= 0.20
     Davidson diagonalization with overlap
     ethr =  7.19E-05,  avg # of iterations =  1.6

     negative rho (up, down):  8.936E-02 0.000E+00

     total cpu time spent up to now is      290.7 secs

     total energy              =   -1868.39242938 Ry
     Harris-Foulkes estimate   =   -1868.39880383 Ry
     estimated scf accuracy    <       0.13297866 Ry

     iteration # 14     ecut=    60.00 Ry     beta= 0.20
     Davidson diagonalization with overlap
     ethr =  5.81E-05,  avg # of iterations =  3.9

     negative rho (up, down):  8.958E-02 0.000E+00

     total cpu time spent up to now is      314.3 secs

     total energy              =   -1868.39202690 Ry
     Harris-Foulkes estimate   =   -1868.39436181 Ry
     estimated scf accuracy    <       0.04596380 Ry

     iteration # 15     ecut=    60.00 Ry     beta= 0.20
     Davidson diagonalization with overlap
     ethr =  2.01E-05,  avg # of iterations =  7.1

     negative rho (up, down):  8.909E-02 0.000E+00

     total cpu time spent up to now is      342.9 secs

     total energy              =   -1868.39252044 Ry
     Harris-Foulkes estimate   =   -1868.39316640 Ry
     estimated scf accuracy    <       0.04868652 Ry

     iteration # 16     ecut=    60.00 Ry     beta= 0.20
     Davidson diagonalization with overlap
     ethr =  2.01E-05,  avg # of iterations =  1.0

     negative rho (up, down):  8.885E-02 0.000E+00

     total cpu time spent up to now is      362.2 secs

     total energy              =   -1868.39164093 Ry
     Harris-Foulkes estimate   =   -1868.39325353 Ry
     estimated scf accuracy    <       0.02167604 Ry

     iteration # 17     ecut=    60.00 Ry     beta= 0.20
     Davidson diagonalization with overlap
     ethr =  9.47E-06,  avg # of iterations =  3.8

     negative rho (up, down):  8.877E-02 0.000E+00

     total cpu time spent up to now is      385.1 secs

     total energy              =   -1868.39224603 Ry
     Harris-Foulkes estimate   =   -1868.39242877 Ry
     estimated scf accuracy    <       0.04811862 Ry

     iteration # 18     ecut=    60.00 Ry     beta= 0.20
     Davidson diagonalization with overlap
     ethr =  9.47E-06,  avg # of iterations =  1.0

     negative rho (up, down):  8.881E-02 0.000E+00

     total cpu time spent up to now is      404.0 secs

     total energy              =   -1868.39128377 Ry
     Harris-Foulkes estimate   =   -1868.39229786 Ry
     estimated scf accuracy    <       0.04057299 Ry

     iteration # 19     ecut=    60.00 Ry     beta= 0.20
     Davidson diagonalization with overlap
     ethr =  9.47E-06,  avg # of iterations =  1.4

     negative rho (up, down):  8.905E-02 0.000E+00

     total cpu time spent up to now is      423.7 secs

     total energy              =   -1868.39115540 Ry
     Harris-Foulkes estimate   =   -1868.39149671 Ry
     estimated scf accuracy    <       0.02183174 Ry

     iteration # 20     ecut=    60.00 Ry     beta= 0.20
     Davidson diagonalization with overlap
     ethr =  9.47E-06,  avg # of iterations =  1.0

     negative rho (up, down):  8.875E-02 0.000E+00

     total cpu time spent up to now is      442.9 secs

     total energy              =   -1868.38967138 Ry
     Harris-Foulkes estimate   =   -1868.39123531 Ry
     estimated scf accuracy    <       0.01116043 Ry

     iteration # 21     ecut=    60.00 Ry     beta= 0.20
     Davidson diagonalization with overlap
     c_bands:  1 eigenvalues not converged
     ethr =  4.87E-06,  avg # of iterations =  5.3

     negative rho (up, down):  9.303E-02 0.000E+00

     total cpu time spent up to now is      467.7 secs

     total energy              =   -1868.38923151 Ry
     Harris-Foulkes estimate   =   -1868.38997665 Ry
     estimated scf accuracy    <       0.00869632 Ry

     iteration # 22     ecut=    60.00 Ry     beta= 0.20
     Davidson diagonalization with overlap
     ethr =  3.80E-06,  avg # of iterations =  4.8

     negative rho (up, down):  9.826E-02 0.000E+00

     total cpu time spent up to now is      493.0 secs

     total energy              =   -1868.38866723 Ry
     Harris-Foulkes estimate   =   -1868.38934685 Ry
     estimated scf accuracy    <       0.00457318 Ry

     iteration # 23     ecut=    60.00 Ry     beta= 0.20
     Davidson diagonalization with overlap
     ethr =  2.00E-06,  avg # of iterations =  8.7

     negative rho (up, down):  9.720E-02 0.000E+00

     total cpu time spent up to now is      524.8 secs

     total energy              =   -1868.38827235 Ry
     Harris-Foulkes estimate   =   -1868.38876129 Ry
     estimated scf accuracy    <       0.00281552 Ry

     iteration # 24     ecut=    60.00 Ry     beta= 0.20
     Davidson diagonalization with overlap
     ethr =  1.23E-06,  avg # of iterations =  5.3

     negative rho (up, down):  1.025E-01 0.000E+00

     total cpu time spent up to now is      550.1 secs

     total energy              =   -1868.38811053 Ry
     Harris-Foulkes estimate   =   -1868.38834218 Ry
     estimated scf accuracy    <       0.00253784 Ry

     iteration # 25     ecut=    60.00 Ry     beta= 0.20
     Davidson diagonalization with overlap
     ethr =  1.11E-06,  avg # of iterations =  7.6

     negative rho (up, down):  9.482E-02 0.000E+00

     total cpu time spent up to now is      580.1 secs

     total energy              =   -1868.38792538 Ry
     Harris-Foulkes estimate   =   -1868.38815893 Ry
     estimated scf accuracy    <       0.00144056 Ry

     iteration # 26     ecut=    60.00 Ry     beta= 0.20
     Davidson diagonalization with overlap
     c_bands:  1 eigenvalues not converged
     ethr =  6.29E-07,  avg # of iterations =  7.2

     negative rho (up, down):  9.232E-02 0.000E+00

     total cpu time spent up to now is      609.2 secs

     total energy              =   -1868.38790403 Ry
     Harris-Foulkes estimate   =   -1868.38795164 Ry
     estimated scf accuracy    <       0.00097274 Ry

     iteration # 27     ecut=    60.00 Ry     beta= 0.20
     Davidson diagonalization with overlap
     c_bands:  1 eigenvalues not converged
     c_bands:  1 eigenvalues not converged
     c_bands:  1 eigenvalues not converged
     ethr =  4.25E-07,  avg # of iterations =  5.4

     negative rho (up, down):  9.058E-02 0.000E+00

     total cpu time spent up to now is      635.3 secs

     total energy              =   -1868.38789523 Ry
     Harris-Foulkes estimate   =   -1868.38791298 Ry
     estimated scf accuracy    <       0.00051913 Ry

     iteration # 28     ecut=    60.00 Ry     beta= 0.20
     Davidson diagonalization with overlap
     ethr =  2.27E-07,  avg # of iterations =  3.4

     negative rho (up, down):  8.958E-02 0.000E+00

     total cpu time spent up to now is      658.0 secs

     total energy              =   -1868.38792403 Ry
     Harris-Foulkes estimate   =   -1868.38790026 Ry
     estimated scf accuracy    <       0.00031257 Ry

     iteration # 29     ecut=    60.00 Ry     beta= 0.20
     Davidson diagonalization with overlap
     ethr =  1.36E-07,  avg # of iterations =  3.5

     negative rho (up, down):  8.938E-02 0.000E+00

     total cpu time spent up to now is      681.1 secs

     total energy              =   -1868.38795987 Ry
     Harris-Foulkes estimate   =   -1868.38793097 Ry
     estimated scf accuracy    <       0.00013536 Ry

     iteration # 30     ecut=    60.00 Ry     beta= 0.20
     Davidson diagonalization with overlap
     ethr =  5.91E-08,  avg # of iterations =  4.8

     negative rho (up, down):  8.977E-02 0.000E+00

     total cpu time spent up to now is      705.9 secs

     total energy              =   -1868.38795353 Ry
     Harris-Foulkes estimate   =   -1868.38796385 Ry
     estimated scf accuracy    <       0.00004175 Ry

     iteration # 31     ecut=    60.00 Ry     beta= 0.20
     Davidson diagonalization with overlap
     ethr =  1.82E-08,  avg # of iterations =  3.0

     negative rho (up, down):  8.967E-02 0.000E+00

     total cpu time spent up to now is      728.9 secs

     total energy              =   -1868.38795675 Ry
     Harris-Foulkes estimate   =   -1868.38795542 Ry
     estimated scf accuracy    <       0.00002249 Ry

     iteration # 32     ecut=    60.00 Ry     beta= 0.20
     Davidson diagonalization with overlap
     ethr =  9.82E-09,  avg # of iterations =  1.6

     negative rho (up, down):  8.966E-02 0.000E+00

     total cpu time spent up to now is      749.2 secs

     total energy              =   -1868.38796745 Ry
     Harris-Foulkes estimate   =   -1868.38795729 Ry
     estimated scf accuracy    <       0.00001402 Ry

     iteration # 33     ecut=    60.00 Ry     beta= 0.20
     Davidson diagonalization with overlap
     ethr =  6.12E-09,  avg # of iterations =  3.5

     negative rho (up, down):  8.981E-02 0.000E+00

     total cpu time spent up to now is      772.8 secs

     total energy              =   -1868.38796792 Ry
     Harris-Foulkes estimate   =   -1868.38796814 Ry
     estimated scf accuracy    <       0.00000492 Ry

     iteration # 34     ecut=    60.00 Ry     beta= 0.20
     Davidson diagonalization with overlap
     ethr =  2.15E-09,  avg # of iterations =  2.1

     negative rho (up, down):  8.987E-02 0.000E+00

     total cpu time spent up to now is      793.9 secs

     total energy              =   -1868.38796811 Ry
     Harris-Foulkes estimate   =   -1868.38796811 Ry
     estimated scf accuracy    <       0.00000224 Ry

     iteration # 35     ecut=    60.00 Ry     beta= 0.20
     Davidson diagonalization with overlap
     ethr =  9.76E-10,  avg # of iterations =  1.8

     negative rho (up, down):  8.989E-02 0.000E+00

     total cpu time spent up to now is      814.6 secs

     total energy              =   -1868.38796813 Ry
     Harris-Foulkes estimate   =   -1868.38796821 Ry
     estimated scf accuracy    <       0.00000106 Ry

     iteration # 36     ecut=    60.00 Ry     beta= 0.20
     Davidson diagonalization with overlap
     ethr =  4.63E-10,  avg # of iterations =  1.7

     negative rho (up, down):  8.996E-02 0.000E+00

     total cpu time spent up to now is      834.1 secs

     End of self-consistent calculation

          k = 0.0000 0.0000 0.0000 ( 37989 PWs)   bands (ev):

   -41.4382 -38.6036 -23.5277 -23.2594 -23.1153 -22.8572 -21.5806 -21.3112
   -21.3046 -19.1386 -18.6084 -18.5985 -16.6223 -15.9346 -15.6959 -15.0760
   -14.9740 -14.7761 -14.7438 -14.7200 -14.6315 -14.4585 -14.2419 -14.1666
   -14.1307 -13.9482 -13.4684  -8.8400  -8.4806  -8.4626  -8.4525  -8.3873
    -8.2518  -8.2251  -8.0692  -8.0507  -7.9834  -7.8858  -7.8506  -3.4013
    -3.3775  -2.9255  -2.5633  -2.5301  -2.5042  -2.3821  -2.3425  -2.2965
    -2.2757  -2.1982  -1.9806  -1.3688  -1.3357  -1.2946  -1.2729  -1.1318
    -1.0195  -0.9414  -0.8983  -0.8742  -0.8528  -0.6699  -0.5893  -0.5527
    -0.5162  -0.4646  -0.4384  -0.4258  -0.3629  -0.3512  -0.3427  -0.3354
    -0.3343  -0.2570  -0.1998  -0.1928  -0.0864  -0.0809  -0.0443   0.0189
     0.0491   0.0587   0.0618   0.0892   0.1050   0.1417   0.1703   0.1784
     0.1958   0.3089   0.3285   0.4611   0.6002   0.6195   0.7486   0.8055
     0.8423   0.8842   0.8975   0.9646   1.0053   1.0202   1.1001   1.2211
     1.4423   1.4511   1.5024   1.5154   1.6100   1.6263   1.7008   1.7781
     1.7999   1.8927   1.8977   1.9240   2.1881   2.2105   2.2586   2.3033
     3.6326   4.7179   4.7912   4.9650   5.2033   5.4634   5.5477   6.1678
     6.1972   6.2051   6.4144   6.4805   6.5653   6.8564   7.2057   7.6820
     7.6943   7.7385

          k = 0.0000 0.1281 0.0000 ( 38019 PWs)   bands (ev):

   -41.4365 -38.6013 -23.5070 -23.2379 -23.0945 -22.8352 -21.5733 -21.3439
   -21.3089 -19.1027 -18.7028 -18.6052 -16.5727 -15.8259 -15.7135 -15.0330
   -14.9813 -14.7760 -14.7529 -14.6895 -14.5887 -14.5048 -14.2472 -14.1896
   -14.1688 -14.0123 -13.4988  -8.8287  -8.4742  -8.4630  -8.4246  -8.3740
    -8.2446  -8.2106  -8.0707  -8.0303  -7.9669  -7.8712  -7.8431  -3.5088
    -3.3537  -2.8348  -2.6668  -2.6531  -2.5140  -2.4840  -2.3439  -2.3329
    -2.2034  -2.1827  -1.9893  -1.8306  -1.6369  -1.4612  -1.4118  -1.3925
    -1.3059  -1.2021  -1.1227  -1.1079  -0.9227  -0.9150  -0.9009  -0.8134
    -0.6818  -0.6624  -0.6044  -0.5854  -0.5242  -0.4976  -0.4192  -0.3336
    -0.2326  -0.2173  -0.1887  -0.1503  -0.1464  -0.0441  -0.0419  -0.0175
     0.0418   0.0620   0.0701   0.1199   0.1400   0.1522   0.1705   0.3649
     0.4337   0.4402   0.4568   0.5170   0.5603   0.6055   0.6958   0.7590
     0.9646   0.9980   1.0352   1.1287   1.1404   1.2129   1.2136   1.2493
     1.3313   1.4488   1.4781   1.4786   1.5522   1.5978   1.7118   1.7633
     1.8248   1.8540   2.0494   2.2192   2.2315   2.4404   2.5258   2.6639
     3.7324   4.7247   5.1658   5.3007   5.3052   5.3946   5.7005   6.2082
     6.2415   6.5170   6.6976   6.8457   6.8717   7.1160   7.4132   7.6338
     7.8658   7.9814

          k = 0.0000 0.2563 0.0000 ( 38042 PWs)   bands (ev):

   -41.4323 -38.5957 -23.4561 -23.1848 -23.0433 -22.7808 -21.5615 -21.4304
   -21.3032 -19.0116 -18.9279 -18.5975 -16.4388 -15.7756 -15.5783 -15.0584
   -14.9175 -14.8301 -14.8095 -14.6231 -14.5714 -14.4423 -14.3307 -14.2243
   -14.1656 -14.1417 -13.5903  -8.7999  -8.5162  -8.4222  -8.3441  -8.3298
    -8.2856  -8.1144  -8.1074  -7.9331  -7.9272  -7.9139  -7.7361  -3.7722
    -3.2095  -3.0977  -2.9805  -2.8496  -2.6462  -2.5262  -2.4932  -2.4444
    -2.3726  -2.2372  -2.2223  -2.1548  -2.1335  -2.1299  -1.9647  -1.7008
    -1.6588  -1.3800  -1.3133  -1.2881  -1.2386  -1.2052  -1.0972  -1.0733
    -1.0547  -0.9680  -0.8819  -0.8327  -0.7754  -0.7483  -0.5712  -0.5325
    -0.4992  -0.4824  -0.3801  -0.3283  -0.2218  -0.1656  -0.1225  -0.0434
    -0.0021   0.0977   0.1150   0.1297   0.1338   0.2125   0.2878   0.3887
     0.6555   0.6672   0.7039   0.8303   0.8714   0.8790   0.9021   1.0242
     1.0272   1.0770   1.1354   1.1614   1.1953   1.2688   1.2689   1.3536
     1.3731   1.4389   1.5268   1.5376   1.6653   1.7206   1.7800   1.8371
     1.8875   2.1688   2.1996   2.2490   2.2897   2.8026   2.9830   3.3081
     3.8861   4.6518   5.0063   6.0336   6.0633   6.1741   6.3117   6.3478
     6.3936   7.3161   7.3766   7.5038   7.5625   7.6774   7.7057   7.8984
     8.1793   8.3132

          k = 0.0000 0.3844 0.0000 ( 37942 PWs)   bands (ev):

   -41.4280 -38.5901 -23.4038 -23.1303 -22.9908 -22.7249 -21.5821 -21.4813
   -21.2975 -19.1257 -18.9134 -18.5897 -16.2569 -15.8938 -15.3293 -15.2007
   -14.9280 -14.9170 -14.7766 -14.5921 -14.5733 -14.4715 -14.3136 -14.2233
   -14.1653 -14.0760 -13.7442  -8.7668  -8.5541  -8.3822  -8.3189  -8.3104
    -8.2303  -8.1548  -7.9984  -7.9520  -7.8834  -7.8309  -7.6227  -4.0181
    -3.5554  -3.4480  -3.2260  -3.0493  -3.0433  -2.9657  -2.7534  -2.6327
    -2.5356  -2.4011  -2.3384  -2.2079  -2.1783  -2.1660  -2.0352  -1.9660
    -1.8952  -1.6662  -1.5269  -1.5121  -1.3397  -1.3269  -1.3233  -1.2534
    -1.2079  -1.2031  -1.0740  -1.0668  -0.9789  -0.9076  -0.7761  -0.7524
    -0.7320  -0.6958  -0.5861  -0.5236  -0.4397  -0.3463  -0.0491   0.0336
     0.0916   0.1065   0.1112   0.1160   0.1392   0.2457   0.4737   0.5800
     0.6051   0.6843   0.7579   0.8193   0.8839   0.9074   0.9801   1.1006
     1.1309   1.1622   1.2162   1.2910   1.3534   1.3646   1.4176   1.4689
     1.4998   1.6381   1.6424   1.7444   1.7490   1.8974   1.9670   2.1410
     2.1875   2.2211   2.2629   2.3021   2.5266   2.7740   2.9694   3.8607
     3.9228   4.7335   4.7765   6.4196   6.5514   6.8090   6.9588   7.1510
     7.1643   7.3913   7.4085   7.9408   8.1675   8.3472   8.3704   8.4299
     8.5379   8.5574

          k = 0.0000-0.5125 0.0000 ( 38102 PWs)   bands (ev):

   -41.4263 -38.5878 -23.3817 -23.1072 -22.9686 -22.7012 -21.6075 -21.4845
   -21.2952 -19.2017 -18.8702 -18.5865 -16.0895 -16.0371 -15.2816 -15.1977
   -14.9829 -14.9759 -14.6954 -14.6005 -14.5777 -14.5287 -14.3692 -14.1341
   -14.0837 -13.9517 -13.9450  -8.7506  -8.5704  -8.3660  -8.3303  -8.2936
    -8.1876  -8.1726  -7.9651  -7.9513  -7.8656  -7.7869  -7.5736  -4.1207
    -3.7890  -3.5983  -3.3608  -3.2812  -3.2803  -2.9320  -2.6546  -2.6281
    -2.6125  -2.5692  -2.4359  -2.3768  -2.2660  -2.0552  -2.0200  -1.9650
    -1.8525  -1.7929  -1.6210  -1.5850  -1.5120  -1.4749  -1.3627  -1.3159
    -1.3062  -1.1783  -1.0953  -1.0846  -1.0325  -1.0011  -0.8631  -0.8421
    -0.8075  -0.7993  -0.7622  -0.5776  -0.5453  -0.3353   0.0220   0.0384
     0.0642   0.1015   0.1028   0.1449   0.1452   0.2553   0.5614   0.6622
     0.6668   0.6831   0.6933   0.8044   0.8890   0.9085   1.0490   1.0538
     1.1054   1.1519   1.2652   1.3148   1.3221   1.3825   1.4116   1.5502
     1.5705   1.6541   1.7999   1.9880   2.0392   2.0516   2.0671   2.0916
     2.1349   2.2847   2.3499   2.4144   2.6345   2.6827   2.8516   3.8772
     4.0590   4.6924   4.8190   6.4455   6.7184   7.0083   7.2812   7.3487
     7.4433   7.5501   7.6104   7.8304   8.3220   8.4640   8.5863   8.7141
     8.7243   8.8555

          k = 0.1250 0.0000 0.0000 ( 38032 PWs)   bands (ev):

   -41.4369 -38.6018 -23.5102 -23.2410 -23.0977 -22.8382 -21.5746 -21.3467
   -21.3028 -19.1062 -18.7086 -18.5960 -16.5730 -15.8191 -15.7123 -15.1032
   -15.0016 -14.8028 -14.7917 -14.6981 -14.6093 -14.4876 -14.2424 -14.1842
   -14.1648 -13.9774 -13.4984  -8.8623  -8.4917  -8.4602  -8.4212  -8.3713
    -8.2168  -8.1908  -8.0316  -8.0185  -7.9994  -7.8460  -7.8149  -3.5021
    -3.3343  -2.8437  -2.6550  -2.5848  -2.4807  -2.4541  -2.3301  -2.3259
    -2.2650  -2.2212  -2.0046  -1.4729  -1.3923  -1.3438  -1.3334  -1.2553
    -1.2030  -1.0544  -0.9359  -0.9348  -0.8929  -0.8297  -0.7734  -0.6377
    -0.6334  -0.6261  -0.5423  -0.5343  -0.5277  -0.4245  -0.3443  -0.3385
    -0.2979  -0.2528  -0.1717  -0.1549  -0.0764  -0.0339  -0.0176  -0.0074
     0.0282   0.0503   0.0618   0.0813   0.0817   0.1730   0.1914   0.2450
     0.2478   0.3340   0.4901   0.5019   0.5490   0.5551   0.6695   0.7627
     0.7671   0.8241   0.9263   0.9711   1.0530   1.1791   1.1926   1.2433
     1.3718   1.4977   1.5360   1.5866   1.5948   1.6477   1.7443   1.7920
     1.8153   1.8481   1.8619   1.9737   2.2308   2.2343   2.2571   2.4272
     3.7252   4.6417   4.9870   5.1253   5.3547   5.3968   5.7027   5.9971
     6.2568   6.4364   6.6435   6.7789   6.8352   7.0761   7.4147   7.6748
     7.8542   7.9694

          k = 0.1250 0.1281 0.0000 ( 38036 PWs)   bands (ev):

   -41.4351 -38.5995 -23.4901 -23.2202 -23.0775 -22.8170 -21.5675 -21.3481
   -21.3378 -19.0707 -18.7123 -18.6911 -16.5249 -15.7260 -15.7114 -15.0568
   -14.9992 -14.8052 -14.7883 -14.6704 -14.5562 -14.5412 -14.2418 -14.2267
   -14.1617 -14.0300 -13.5254  -8.8477  -8.5944  -8.4773  -8.3941  -8.3643
    -8.2866  -8.1854  -8.0670  -8.0238  -7.9516  -7.8962  -7.6960  -3.6279
    -3.3033  -2.7849  -2.7519  -2.7012  -2.5131  -2.4724  -2.3615  -2.3611
    -2.3124  -2.1423  -1.9847  -1.8430  -1.6199  -1.6017  -1.4586  -1.4553
    -1.4334  -1.4047  -1.2708  -1.2512  -1.0999  -0.9556  -0.9284  -0.9226
    -0.8131  -0.7091  -0.6868  -0.5985  -0.5504  -0.5286  -0.4088  -0.3210
    -0.2838  -0.2070  -0.2017  -0.1684  -0.1003  -0.0917  -0.0488  -0.0306
     0.0111   0.0257   0.0546   0.0904   0.1145   0.1610   0.1778   0.3641
     0.4124   0.4884   0.5063   0.6028   0.6608   0.7233   0.7668   0.7703
     0.7989   0.9788   1.0277   1.0570   1.0699   1.2425   1.2476   1.3600
     1.4104   1.4294   1.4317   1.5423   1.5468   1.7555   1.8524   1.8680
     1.9282   1.9375   2.0086   2.2153   2.4617   2.5389   2.6268   2.6738
     3.8108   4.6646   5.1707   5.3134   5.4346   5.5479   5.8499   6.0926
     6.2607   6.7463   6.9573   7.0696   7.0920   7.3044   7.5343   7.6350
     8.0210   8.1589

          k = 0.1250 0.2563 0.0000 ( 38078 PWs)   bands (ev):

   -41.4309 -38.5939 -23.4408 -23.1690 -23.0280 -22.7646 -21.5565 -21.4291
   -21.3365 -18.9808 -18.9234 -18.6929 -16.3954 -15.7778 -15.4662 -15.0434
   -14.9336 -14.8383 -14.8110 -14.6280 -14.6059 -14.4048 -14.3324 -14.2156
   -14.1610 -14.1325 -13.6069  -8.8133  -8.7035  -8.4884  -8.4224  -8.3644
    -8.3012  -8.2402  -8.1136  -8.0229  -7.9306  -7.8588  -7.6515  -3.8946
    -3.2223  -3.1973  -2.9996  -2.8423  -2.5854  -2.5356  -2.5129  -2.4547
    -2.4080  -2.3260  -2.2347  -2.2165  -2.1519  -2.1373  -2.0731  -1.9028
    -1.7218  -1.4433  -1.4095  -1.3600  -1.2961  -1.2871  -1.2731  -1.1960
    -1.0729  -1.0362  -0.9064  -0.7702  -0.7606  -0.6937  -0.6780  -0.5769
    -0.5302  -0.4356  -0.3478  -0.2855  -0.2386  -0.0962  -0.0468  -0.0113
     0.0006   0.0199   0.0978   0.1246   0.1477   0.2634   0.3416   0.4595
     0.5035   0.7238   0.7812   0.8425   0.9265   0.9556   0.9816   1.0061
     1.0178   1.1281   1.1738   1.1883   1.2299   1.2464   1.2680   1.3592
     1.3881   1.5857   1.6505   1.7168   1.7502   1.7853   1.8285   1.9725
     2.0494   2.2391   2.2658   2.4839   2.7713   2.8073   3.0198   3.3059
     3.9779   4.6062   4.8827   6.0347   6.1168   6.2319   6.2658   6.3650
     6.4156   7.3530   7.5391   7.5739   7.7535   7.8412   7.8613   7.9771
     8.2299   8.3083

          k = 0.1250 0.3844 0.0000 ( 38067 PWs)   bands (ev):

   -41.4268 -38.5884 -23.3903 -23.1165 -22.9772 -22.7108 -21.5784 -21.4789
   -21.3299 -19.1197 -18.8840 -18.6830 -16.2208 -15.8824 -15.2275 -15.1556
   -14.9029 -14.8880 -14.7725 -14.6345 -14.5701 -14.4525 -14.2945 -14.1947
   -14.1614 -14.0708 -13.7457  -8.7811  -8.7193  -8.4930  -8.3925  -8.3685
    -8.3154  -8.2570  -8.1249  -8.0709  -7.9039  -7.8946  -7.6982  -4.1513
    -3.5950  -3.5083  -3.2768  -3.0903  -3.0391  -3.0348  -2.7673  -2.6347
    -2.5088  -2.4765  -2.4330  -2.3372  -2.2648  -2.2521  -2.1030  -1.9152
    -1.8208  -1.7473  -1.6501  -1.5900  -1.4737  -1.3227  -1.3221  -1.2980
    -1.1944  -1.1344  -1.1282  -1.0029  -0.9539  -0.9151  -0.8742  -0.8312
    -0.7754  -0.6847  -0.4590  -0.3504  -0.2790  -0.2261  -0.0159  -0.0072
     0.0376   0.1145   0.1652   0.1761   0.2211   0.3215   0.4326   0.5921
     0.6101   0.7544   0.7840   0.8858   0.9204   0.9737   1.0346   1.0899
     1.1365   1.1875   1.2897   1.3308   1.3936   1.4108   1.4675   1.5383
     1.6365   1.7665   1.8407   1.8934   1.8964   2.0005   2.1616   2.2150
     2.2470   2.2668   2.4992   2.5866   2.7248   2.7986   3.0427   3.8308
     4.0273   4.6343   4.7016   6.2928   6.4532   6.7603   6.8406   7.0245
     7.0478   7.2875   7.5386   8.0676   8.1271   8.3723   8.4388   8.5261
     8.5787   8.7065

          k = 0.1250-0.5125 0.0000 ( 38044 PWs)   bands (ev):

   -41.4250 -38.5860 -23.3690 -23.0943 -22.9558 -22.6881 -21.6043 -21.4819
   -21.3271 -19.1953 -18.8415 -18.6789 -16.0604 -16.0160 -15.2408 -15.0803
   -14.9482 -14.9368 -14.6610 -14.6248 -14.5717 -14.5428 -14.3432 -14.1328
   -14.0773 -13.9450 -13.9258  -8.7668  -8.7006  -8.4678  -8.3955  -8.3761
    -8.3030  -8.2610  -8.1189  -8.1024  -7.9446  -7.8790  -7.7449  -4.2594
    -3.7889  -3.7040  -3.4188  -3.2754  -3.2695  -2.9516  -2.9000  -2.8861
    -2.5422  -2.4954  -2.4508  -2.3730  -2.2130  -2.1480  -2.1284  -1.9682
    -1.9106  -1.8440  -1.7732  -1.6503  -1.5265  -1.4065  -1.3296  -1.2738
    -1.2193  -1.1669  -1.1604  -1.0970  -1.0254  -0.9720  -0.9582  -0.9147
    -0.8658  -0.7759  -0.4937  -0.3817  -0.3583  -0.2713  -0.0188  -0.0035
     0.0547   0.1296   0.1703   0.2214   0.2988   0.3433   0.4674   0.6438
     0.6926   0.7498   0.7659   0.8696   0.9089   0.9631   1.0441   1.0599
     1.0855   1.2127   1.2661   1.3920   1.4497   1.4760   1.5069   1.6388
     1.7906   1.9009   2.0413   2.0433   2.0448   2.1074   2.2309   2.3289
     2.3448   2.4085   2.4168   2.6086   2.6880   2.7391   2.9478   3.9650
     4.0101   4.5982   4.7615   6.3356   6.5453   6.9629   7.0145   7.1166
     7.2745   7.3752   7.5900   7.9337   8.3560   8.6332   8.7250   8.8229
     8.8901   8.9528

          k = 0.2500 0.0000 0.0000 ( 38112 PWs)   bands (ev):

   -41.4337 -38.5975 -23.4672 -23.1958 -23.0542 -22.7916 -21.5635 -21.4266
   -21.2985 -19.0244 -18.9236 -18.5899 -16.4406 -15.7699 -15.5548 -15.1850
   -15.1077 -14.9226 -14.9025 -14.6608 -14.5221 -14.4904 -14.3142 -14.2366
   -14.1536 -14.0294 -13.5856  -8.9019  -8.5008  -8.4427  -8.3434  -8.3398
    -8.1468  -8.1055  -8.0097  -7.9676  -7.9384  -7.7787  -7.7258  -3.7091
    -3.2041  -2.9634  -2.8750  -2.7025  -2.4724  -2.4337  -2.3740  -2.3362
    -2.2299  -2.1363  -2.0478  -2.0142  -1.7238  -1.5209  -1.4106  -1.3925
    -1.3183  -1.2037  -1.1620  -1.1556  -1.0228  -0.9912  -0.9300  -0.9227
    -0.8993  -0.8798  -0.8380  -0.7407  -0.6175  -0.5973  -0.3882  -0.3650
    -0.2822  -0.2604  -0.2302  -0.2044  -0.1130  -0.0609  -0.0287   0.0172
     0.0380   0.0394   0.0527   0.0668   0.1882   0.2090   0.2460   0.3061
     0.3234   0.3582   0.4106   0.5482   0.6093   0.6456   0.6698   0.7587
     0.8219   0.9195   1.0370   1.0755   1.1107   1.1854   1.1961   1.3444
     1.3541   1.3861   1.4436   1.5342   1.5393   1.6558   1.6726   1.7241
     1.8332   2.0228   2.1438   2.1815   2.2596   2.2637   2.3682   2.6227
     3.8877   4.3905   5.1483   5.4411   5.5485   5.8172   6.1819   6.2283
     6.3354   7.0674   7.1833   7.2877   7.3736   7.5692   7.6291   7.8699
     8.3070   8.3547

          k = 0.2500 0.1281 0.0000 ( 38100 PWs)   bands (ev):

   -41.4320 -38.5952 -23.4488 -23.1769 -23.0357 -22.7723 -21.5572 -21.4245
   -21.3358 -18.9903 -18.9178 -18.6900 -16.3969 -15.7734 -15.4499 -15.1317
   -15.0787 -14.9041 -14.8777 -14.6316 -14.5874 -14.4387 -14.3210 -14.2263
   -14.1419 -14.0588 -13.6028  -8.8962  -8.6266  -8.5078  -8.4170  -8.3916
    -8.2532  -8.1906  -8.0807  -7.9928  -7.9528  -7.8327  -7.6211  -3.8516
    -3.2203  -3.1015  -2.9192  -2.6415  -2.4655  -2.4539  -2.4521  -2.4130
    -2.3481  -2.1859  -2.0550  -2.0045  -1.9723  -1.8674  -1.5708  -1.5538
    -1.4833  -1.4521  -1.4024  -1.3182  -1.2843  -1.2792  -1.1753  -1.1243
    -1.0237  -0.9106  -0.7771  -0.7619  -0.6911  -0.6719  -0.4792  -0.3057
    -0.2840  -0.2441  -0.2093  -0.1845  -0.1718  -0.1063  -0.0536  -0.0320
     0.0076   0.0233   0.0973   0.1409   0.2383   0.3041   0.3078   0.3557
     0.3801   0.4498   0.5254   0.5685   0.7520   0.8159   0.8537   0.8963
     0.9158   0.9575   1.0521   1.0755   1.1961   1.2340   1.2601   1.2697
     1.3175   1.3567   1.4853   1.6487   1.6569   1.7120   1.8848   1.9368
     2.0777   2.2554   2.2945   2.5094   2.5231   2.6273   2.6714   2.9321
     3.9818   4.4016   4.9761   5.6833   5.7920   5.8404   6.2491   6.3104
     6.3214   7.3234   7.4112   7.4211   7.5859   7.6260   7.8014   7.9948
     8.3071   8.4564

          k = 0.2500 0.2563 0.0000 ( 38113 PWs)   bands (ev):

   -41.4278 -38.5896 -23.4035 -23.1304 -22.9904 -22.7249 -21.5472 -21.4432
   -21.3943 -18.9240 -18.9043 -18.8874 -16.2806 -15.7969 -15.2182 -15.0356
   -14.9718 -14.8670 -14.8279 -14.7319 -14.5644 -14.3429 -14.2997 -14.1938
   -14.1441 -14.1081 -13.6564  -8.9316  -8.8265  -8.6946  -8.5051  -8.4409
    -8.3956  -8.3222  -8.2858  -8.0900  -7.9465  -7.9279  -7.7204  -4.1885
    -3.5214  -3.2229  -3.1445  -2.8164  -2.7570  -2.5976  -2.5900  -2.5293
    -2.4691  -2.4456  -2.3749  -2.2423  -2.2249  -2.1400  -1.9733  -1.9621
    -1.8860  -1.8616  -1.8126  -1.6766  -1.3308  -1.3237  -1.2593  -1.1983
    -1.0821  -1.0584  -0.9949  -0.8226  -0.7942  -0.7146  -0.6496  -0.6081
    -0.5511  -0.5079  -0.4659  -0.2762  -0.2395  -0.1391  -0.0340   0.0911
     0.1702   0.2064   0.2267   0.2451   0.3063   0.3909   0.4283   0.4976
     0.7613   0.8081   0.8436   0.9078   0.9158   0.9174   1.0089   1.0338
     1.0462   1.1310   1.2093   1.2689   1.2950   1.3577   1.4319   1.5046
     1.5749   1.6275   1.6718   1.7211   1.7821   1.8480   1.9047   2.1605
     2.4455   2.4895   2.7756   2.9039   2.9279   3.0929   3.2985   3.4268
     4.2193   4.3701   4.6666   5.9475   6.1966   6.2795   6.3380   6.3444
     6.6714   7.1496   7.8338   7.8852   8.0565   8.1227   8.2839   8.3249
     8.4147   8.5329

          k = 0.2500 0.3844 0.0000 ( 38127 PWs)   bands (ev):

   -41.4236 -38.5841 -23.3573 -23.0828 -22.9441 -22.6765 -21.5697 -21.4862
   -21.3928 -19.1053 -18.8880 -18.8088 -16.1280 -15.8630 -15.0941 -14.9651
   -14.8430 -14.8075 -14.7846 -14.7672 -14.5178 -14.3986 -14.2478 -14.1502
   -14.1268 -14.0521 -13.7520  -9.0186  -8.8294  -8.8012  -8.6275  -8.5494
    -8.4315  -8.4194  -8.3283  -8.3261  -8.1439  -7.9618  -7.9206  -4.5164
    -3.9355  -3.5269  -3.4218  -3.2331  -3.0741  -3.0264  -3.0127  -2.8227
    -2.6237  -2.5512  -2.4699  -2.3391  -2.3314  -2.3244  -2.2773  -2.0973
    -1.9347  -1.8724  -1.8211  -1.7607  -1.4302  -1.3876  -1.3028  -1.2637
    -1.2599  -1.1958  -1.0262  -0.9505  -0.9290  -0.8189  -0.7892  -0.7741
    -0.7335  -0.6675  -0.5586  -0.2865  -0.2188  -0.1301   0.0039   0.1849
     0.2582   0.2668   0.3527   0.3879   0.4769   0.5778   0.6217   0.6289
     0.8225   0.8399   0.9308   0.9863   1.0545   1.1264   1.1505   1.2612
     1.2841   1.3300   1.3504   1.3802   1.5001   1.5431   1.5997   1.6083
     1.6815   1.7925   1.8598   1.9586   1.9647   2.0954   2.1746   2.4265
     2.6586   2.7060   2.8053   2.8712   3.1818   3.3608   3.6958   3.7481
     4.1934   4.4054   4.6337   5.7516   6.3497   6.3643   6.5576   6.6597
     6.8009   7.4313   7.9054   8.2224   8.2523   8.4691   8.6770   8.7397
     8.7742   8.9686

          k = 0.2500-0.5125 0.0000 ( 38142 PWs)   bands (ev):

   -41.4219 -38.5818 -23.3378 -23.0628 -22.9246 -22.6561 -21.5965 -21.4888
   -21.3890 -19.1797 -18.8822 -18.7681 -15.9884 -15.9684 -15.1372 -14.8622
   -14.8377 -14.8189 -14.7686 -14.5736 -14.5486 -14.5016 -14.2781 -14.1293
   -14.0670 -13.9407 -13.8631  -9.0065  -8.8204  -8.7859  -8.7135  -8.6077
    -8.4862  -8.4182  -8.4054  -8.3292  -8.2672  -8.1160  -7.9107  -4.6513
    -4.0988  -3.7437  -3.6064  -3.2704  -3.2516  -3.2514  -3.1377  -3.0226
    -2.6175  -2.5506  -2.4877  -2.4366  -2.3664  -2.3194  -2.2576  -2.2128
    -1.9079  -1.8628  -1.8399  -1.7846  -1.5226  -1.4324  -1.3491  -1.2987
    -1.2890  -1.1746  -1.0714  -1.0145  -0.9634  -0.8923  -0.8375  -0.7746
    -0.7442  -0.7240  -0.5743  -0.3013  -0.1839  -0.1161   0.0209   0.2018
     0.2649   0.2653   0.4033   0.5345   0.5394   0.6675   0.7086   0.7148
     0.8791   0.8900   0.9284   0.9928   1.1258   1.1587   1.1816   1.1918
     1.2046   1.3754   1.4017   1.4881   1.5635   1.5795   1.6134   1.7034
     1.7672   1.9908   2.0262   2.0396   2.1074   2.2740   2.3431   2.5456
     2.5730   2.7391   2.7445   2.9163   3.2395   3.4152   3.7500   3.8878
     4.0522   4.3963   4.7727   5.6477   6.3135   6.3632   6.5153   6.5944
     7.2585   7.5849   7.6641   8.2354   8.3955   8.8424   8.8433   9.0562
     9.1105   9.1720

          k = 0.3750 0.0000 0.0000 ( 38118 PWs)   bands (ev):

   -41.4305 -38.5931 -23.4233 -23.1495 -23.0098 -22.7437 -21.5717 -21.4844
   -21.2942 -19.1128 -18.9357 -18.5839 -16.2655 -15.8776 -15.3169 -15.2903
   -15.2136 -15.0607 -15.0170 -14.6664 -14.5144 -14.4351 -14.3226 -14.2250
   -14.1258 -14.0609 -13.7172  -8.9265  -8.5020  -8.4101  -8.3159  -8.2625
    -8.0875  -8.0161  -8.0054  -7.9292  -7.8549  -7.7267  -7.6322  -3.9107
    -3.2858  -3.1353  -2.9905  -2.6469  -2.6264  -2.4908  -2.4429  -2.3117
    -2.1891  -2.1758  -2.1088  -2.1083  -2.0542  -1.6475  -1.6061  -1.4985
    -1.4267  -1.4098  -1.3953  -1.2905  -1.2823  -1.1972  -1.1297  -1.0617
    -1.0414  -0.9442  -0.9072  -0.8651  -0.7777  -0.6807  -0.6510  -0.5711
    -0.3801  -0.3662  -0.2914  -0.1124  -0.0962  -0.0339  -0.0021   0.0246
     0.0511   0.0535   0.0594   0.2309   0.2476   0.2692   0.2829   0.3232
     0.3748   0.4090   0.4432   0.4744   0.5583   0.5877   0.6822   0.8373
     0.9078   0.9999   1.0615   1.0828   1.1833   1.2359   1.2462   1.3456
     1.3883   1.4360   1.4504   1.4933   1.5242   1.5567   1.7928   1.8246
     1.8470   2.0631   2.1863   2.2565   2.2787   2.4745   2.5227   2.6896
     3.7782   4.3907   4.9829   6.0771   6.1549   6.1842   6.3860   6.5549
     6.7876   7.4095   7.5784   7.5851   7.7533   8.0061   8.0273   8.3540
     8.3680   8.5171

          k = 0.3750 0.1281 0.0000 ( 38086 PWs)   bands (ev):

   -41.4288 -38.5908 -23.4066 -23.1325 -22.9930 -22.7265 -21.5670 -21.4809
   -21.3307 -19.1055 -18.9027 -18.6822 -16.2285 -15.8682 -15.2583 -15.2168
   -15.1324 -15.0171 -14.9740 -14.6325 -14.5817 -14.4118 -14.2797 -14.2086
   -14.1091 -14.0721 -13.7205  -8.9231  -8.5649  -8.5027  -8.4058  -8.3342
    -8.2977  -8.1539  -8.0488  -8.0365  -7.9339  -7.8942  -7.6771  -4.0670
    -3.4334  -3.1906  -3.1123  -2.6658  -2.6538  -2.5266  -2.4751  -2.4440
    -2.3757  -2.3069  -2.2547  -2.0064  -1.9458  -1.9037  -1.7733  -1.7018
    -1.6376  -1.4997  -1.4561  -1.4085  -1.3531  -1.2742  -1.2530  -1.2521
    -1.1883  -1.0308  -0.9817  -0.9500  -0.8849  -0.7312  -0.5615  -0.4007
    -0.3789  -0.3042  -0.2510  -0.2277  -0.1825  -0.0660  -0.0584  -0.0392
     0.0620   0.1284   0.1719   0.2040   0.3153   0.3899   0.3963   0.4281
     0.4749   0.4773   0.5432   0.6485   0.7311   0.7772   0.7881   0.8975
     0.9228   0.9909   1.1448   1.1463   1.1999   1.2374   1.2421   1.3168
     1.3615   1.4047   1.4617   1.5351   1.7183   1.8512   1.9104   2.0908
     2.2426   2.4058   2.5150   2.5497   2.6114   2.6610   2.7778   3.0244
     3.8700   4.3883   4.8091   6.0197   6.2017   6.3255   6.3368   6.6225
     6.8768   7.2380   7.6540   7.6658   7.7950   8.2371   8.3174   8.3765
     8.4533   8.4775

          k = 0.3750 0.2563 0.0000 ( 38117 PWs)   bands (ev):

   -41.4247 -38.5853 -23.3655 -23.0910 -22.9521 -22.6845 -21.5566 -21.4891
   -21.3990 -19.0880 -18.8974 -18.8195 -16.1328 -15.8546 -15.1350 -15.0350
   -14.9469 -14.9062 -14.8360 -14.7479 -14.5501 -14.3575 -14.1716 -14.1710
   -14.1190 -14.0693 -13.7346  -8.9873  -8.8610  -8.7437  -8.5895  -8.5237
    -8.4592  -8.3708  -8.3525  -8.3175  -8.1463  -7.9671  -7.9487  -4.4825
    -3.8730  -3.4214  -3.2130  -3.1265  -2.7779  -2.7604  -2.6614  -2.5597
    -2.4905  -2.4497  -2.3391  -2.3304  -2.2593  -2.2311  -2.1984  -2.1175
    -2.0752  -1.9024  -1.7380  -1.7002  -1.3403  -1.2904  -1.2322  -1.1569
    -1.1480  -1.0892  -0.9912  -0.9200  -0.8319  -0.7639  -0.7024  -0.6428
    -0.6226  -0.5350  -0.4968  -0.3217  -0.1999  -0.0262   0.0536   0.2232
     0.2789   0.3111   0.3796   0.4580   0.4722   0.5723   0.6031   0.6622
     0.7469   0.8141   0.8707   0.9712   0.9734   1.0150   1.0811   1.0848
     1.1524   1.2041   1.2330   1.2921   1.3331   1.3520   1.4346   1.5381
     1.5639   1.5813   1.6997   1.7665   1.8204   1.8840   1.9585   2.4119
     2.7086   2.7790   2.8614   2.9182   3.2782   3.3121   3.4488   3.7556
     3.9972   4.4614   4.5362   5.6277   6.1761   6.3480   6.3534   6.6470
     6.7085   7.3406   7.8953   8.0606   8.1842   8.3574   8.6340   8.6797
     8.7212   8.8020

          k = 0.3750 0.3844 0.0000 ( 38213 PWs)   bands (ev):

   -41.4205 -38.5798 -23.3237 -23.0486 -22.9104 -22.6416 -21.5619 -21.5328
   -21.4128 -19.0921 -19.0676 -18.7301 -16.0165 -15.8654 -15.0222 -14.9116
   -14.8300 -14.7851 -14.7685 -14.6460 -14.4756 -14.3377 -14.1979 -14.1373
   -14.0812 -13.9981 -13.7672  -9.2264  -9.0101  -8.8962  -8.8824  -8.7864
    -8.6463  -8.6376  -8.4481  -8.4387  -8.3521  -8.2832  -7.9512  -4.8945
    -4.3253  -3.7837  -3.4241  -3.4181  -3.2305  -3.1083  -2.9850  -2.8949
    -2.7589  -2.7274  -2.6469  -2.4979  -2.3909  -2.3407  -2.2549  -2.2266
    -2.1234  -1.9671  -1.7595  -1.6054  -1.5788  -1.3788  -1.3263  -1.2146
    -1.2045  -1.1608  -1.0424  -0.9685  -0.9309  -0.8768  -0.8590  -0.7557
    -0.7282  -0.4444  -0.4209  -0.3314  -0.1028   0.0924   0.1226   0.3476
     0.4355   0.4947   0.5461   0.6016   0.6941   0.7422   0.8588   0.9497
     0.9746   0.9796   1.0606   1.1692   1.1917   1.1930   1.2557   1.2655
     1.3871   1.4777   1.4944   1.5214   1.5689   1.6408   1.6517   1.6619
     1.7557   1.8209   1.9787   1.9877   2.0167   2.0467   2.1068   2.6954
     2.7006   2.8497   2.9287   3.3517   3.6795   3.8452   3.9438   4.0073
     4.2210   4.2849   4.8249   5.1090   5.8109   6.0057   6.3569   6.6167
     6.9412   7.6592   8.2350   8.3804   8.4788   8.5149   8.6015   8.7692
     8.7779   8.9839

          k = 0.3750-0.5125 0.0000 ( 38222 PWs)   bands (ev):

   -41.4188 -38.5775 -23.3061 -23.0308 -22.8929 -22.6236 -21.5887 -21.5345
   -21.4095 -19.1642 -19.0623 -18.6910 -15.9253 -15.9138 -15.0250 -14.9267
   -14.7732 -14.7309 -14.5758 -14.5485 -14.4765 -14.4348 -14.2082 -14.1257
   -14.0653 -13.9290 -13.8011  -9.3041  -9.0891  -9.0303  -8.9019  -8.8737
    -8.8015  -8.7167  -8.5646  -8.4428  -8.4387  -8.3481  -7.9456  -5.0596
    -4.5063  -3.9512  -3.6680  -3.5142  -3.2995  -3.2285  -3.2231  -3.1221
    -2.8673  -2.7754  -2.6602  -2.4956  -2.4268  -2.3362  -2.2750  -2.2493
    -2.1042  -1.9946  -1.7680  -1.7036  -1.5886  -1.4045  -1.3395  -1.2657
    -1.2548  -1.2053  -1.0768  -1.0472  -0.9873  -0.9530  -0.8315  -0.8255
    -0.7314  -0.4106  -0.3216  -0.2824  -0.0764   0.1289   0.1758   0.3576
     0.4722   0.6162   0.6207   0.6537   0.7795   0.8207   0.9195   0.9929
     1.0120   1.1110   1.1817   1.2287   1.2738   1.3396   1.3699   1.4127
     1.4221   1.4604   1.4700   1.5547   1.6579   1.7427   1.7609   1.8506
     1.9629   1.9996   2.0121   2.0584   2.1627   2.2132   2.2811   2.5262
     2.6966   2.8401   3.0373   3.4915   3.7828   3.9224   4.0046   4.1085
     4.1799   4.4566   4.9035   4.9793   5.6131   5.8130   6.2677   6.6841
     7.4824   7.6983   7.8054   8.4539   8.4589   8.6093   8.7619   8.8380
     8.9139   8.9875

          k =-0.5000 0.0000 0.0000 ( 38122 PWs)   bands (ev):

   -41.4292 -38.5913 -23.4048 -23.1300 -22.9910 -22.7235 -21.5891 -21.4936
   -21.2924 -19.1849 -18.8973 -18.5813 -16.1383 -15.9789 -15.3684 -15.2994
   -15.1251 -15.1196 -15.0787 -14.6968 -14.5027 -14.4782 -14.2405 -14.2193
   -14.0839 -14.0690 -13.8122  -8.9333  -8.5012  -8.3934  -8.3082  -8.2279
    -8.0648  -8.0011  -7.9778  -7.9187  -7.8192  -7.7077  -7.5920  -3.9965
    -3.4093  -3.2496  -2.7914  -2.7771  -2.5759  -2.5411  -2.4775  -2.4696
    -2.3712  -2.1423  -2.1362  -2.0435  -1.8880  -1.7474  -1.6853  -1.6170
    -1.5467  -1.5251  -1.4049  -1.3332  -1.3233  -1.3183  -1.1576  -1.1085
    -1.0929  -0.9748  -0.9057  -0.9013  -0.8954  -0.8592  -0.6649  -0.6191
    -0.4148  -0.3843  -0.3300  -0.1079  -0.0446  -0.0190   0.0086   0.0190
     0.0480   0.0490   0.0675   0.2482   0.2624   0.3120   0.3152   0.3460
     0.3496   0.3906   0.3916   0.5032   0.5783   0.6250   0.8136   0.8245
     0.9526   0.9867   1.0127   1.1014   1.1337   1.2071   1.2406   1.3958
     1.4470   1.4479   1.4623   1.4812   1.5636   1.5759   1.7780   1.8030
     2.0623   2.0866   2.1807   2.1978   2.2864   2.4879   2.6648   2.6906
     3.6289   4.4765   4.9215   6.2663   6.4032   6.6875   6.8238   6.9329
     7.0043   7.0105   7.1045   7.3884   7.5674   8.2058   8.4166   8.4676
     8.6326   8.7467

          k =-0.5000 0.1281 0.0000 ( 38100 PWs)   bands (ev):

   -41.4275 -38.5890 -23.3888 -23.1139 -22.9750 -22.7072 -21.5851 -21.4895
   -21.3286 -19.1772 -18.8649 -18.6789 -16.1060 -15.9622 -15.3141 -15.2343
   -15.0659 -15.0375 -15.0091 -14.6629 -14.5694 -14.4444 -14.2041 -14.2009
   -14.0740 -14.0662 -13.8063  -8.9283  -8.4970  -8.4362  -8.4330  -8.3904
    -8.1999  -8.1892  -8.0418  -8.0234  -8.0025  -7.8434  -7.8018  -4.1591
    -3.5623  -3.3131  -3.0108  -2.8327  -2.7996  -2.5204  -2.4886  -2.4522
    -2.3656  -2.3643  -2.0701  -2.0146  -1.9945  -1.9298  -1.9188  -1.8603
    -1.6608  -1.4569  -1.4532  -1.4042  -1.3676  -1.3200  -1.2367  -1.2149
    -1.2048  -1.0846  -1.0759  -1.0324  -1.0093  -0.7447  -0.6107  -0.4194
    -0.4194  -0.3775  -0.2892  -0.2651  -0.1776  -0.0700  -0.0357  -0.0329
     0.0585   0.1756   0.1945   0.2234   0.3092   0.3932   0.4894   0.4946
     0.5120   0.5503   0.6253   0.6422   0.6763   0.6978   0.8530   0.9035
     0.9560   0.9883   1.1106   1.1449   1.1562   1.1648   1.2466   1.3849
     1.3990   1.4040   1.4728   1.5503   1.7398   1.8212   2.0755   2.1334
     2.3393   2.4271   2.5194   2.5434   2.6455   2.7589   2.8130   3.0037
     3.6926   4.4866   4.7488   6.0538   6.3379   6.6501   6.8282   6.8555
     7.0572   7.2130   7.2807   7.3053   7.5077   8.5797   8.6037   8.6256
     8.6474   8.7578

          k =-0.5000 0.2563 0.0000 ( 38154 PWs)   bands (ev):

   -41.4233 -38.5835 -23.3496 -23.0744 -22.9360 -22.6675 -21.5755 -21.4967
   -21.3966 -19.1584 -18.8929 -18.7833 -16.0262 -15.9255 -15.1824 -15.0470
   -14.9289 -14.9252 -14.7525 -14.7311 -14.5809 -14.3617 -14.1613 -14.1220
   -14.1064 -14.0217 -13.7928  -8.9462  -8.8455  -8.7376  -8.6658  -8.5111
    -8.4964  -8.4653  -8.3527  -8.3232  -8.2855  -8.1543  -7.9701  -4.6050
    -4.0147  -3.5568  -3.2552  -3.1959  -2.9107  -2.7391  -2.6765  -2.5542
    -2.4898  -2.4842  -2.4413  -2.3866  -2.2397  -2.2328  -2.2064  -2.1552
    -2.1051  -1.9299  -1.7028  -1.6936  -1.4358  -1.2675  -1.1916  -1.1216
    -1.0695  -1.0516  -1.0059  -0.9533  -0.9320  -0.7252  -0.7096  -0.6851
    -0.6266  -0.5509  -0.5016  -0.3543  -0.1588  -0.0222   0.1596   0.2505
     0.3418   0.3613   0.3989   0.5120   0.5681   0.6261   0.7171   0.7276
     0.7616   0.8522   0.9245   1.0402   1.0535   1.0671   1.1086   1.1112
     1.1201   1.1365   1.1699   1.2605   1.3063   1.4917   1.4935   1.5278
     1.5301   1.5765   1.6405   1.6789   1.7705   1.9346   2.0619   2.5391
     2.7679   2.8545   2.9062   2.9710   3.3290   3.4097   3.5441   3.7675
     3.8475   4.4142   4.6498   5.4700   6.1340   6.3193   6.3563   6.5651
     7.1669   7.5029   7.6938   7.9925   8.0963   8.5901   8.6279   8.8338
     8.8460   8.9117

          k =-0.5000 0.3844 0.0000 ( 38246 PWs)   bands (ev):

   -41.4192 -38.5780 -23.3096 -23.0342 -22.8963 -22.6270 -21.5658 -21.5533
   -21.4120 -19.1396 -19.0839 -18.6957 -15.9437 -15.8938 -15.0483 -14.9033
   -14.8070 -14.7706 -14.7620 -14.5131 -14.5031 -14.3106 -14.1748 -14.1317
   -14.0716 -13.9578 -13.7805  -9.2782  -9.0594  -9.0321  -8.8974  -8.8673
    -8.8050  -8.6838  -8.5837  -8.4610  -8.4457  -8.3580  -7.9639  -5.0485
    -4.4857  -3.9240  -3.5130  -3.4069  -3.2424  -3.2077  -2.9732  -2.9049
    -2.8691  -2.7926  -2.6750  -2.4935  -2.4469  -2.3398  -2.2819  -2.2592
    -2.1025  -2.0241  -1.7255  -1.6921  -1.4910  -1.4342  -1.3299  -1.1827
    -1.1696  -1.1257  -1.1152  -0.9785  -0.9056  -0.8892  -0.8349  -0.8020
    -0.7696  -0.3904  -0.3110  -0.2685  -0.0724   0.1300   0.2521   0.3816
     0.5164   0.5629   0.6654   0.7061   0.7629   0.9014   0.9530   0.9645
     1.0037   1.0266   1.1267   1.2192   1.2402   1.3167   1.3848   1.4120
     1.4226   1.4325   1.4828   1.5050   1.5697   1.6560   1.6867   1.7372
     1.8246   1.8683   1.9217   1.9788   2.0513   2.0680   2.1025   2.6933
     2.8268   2.8316   3.0446   3.5718   3.7356   3.7619   4.0674   4.1378
     4.1616   4.4914   4.8381   4.9561   5.5721   5.7689   6.2502   6.7172
     7.4261   7.7923   7.8485   8.2574   8.3178   8.5132   8.7565   8.7900
     8.9070   8.9475

          k =-0.5000-0.5125 0.0000 ( 38244 PWs)   bands (ev):

   -41.4175 -38.5758 -23.2929 -23.0174 -22.8796 -22.6100 -21.5855 -21.5618
   -21.4088 -19.1577 -19.1319 -18.6574 -15.9087 -15.8821 -14.9923 -14.9753
   -14.7357 -14.6840 -14.5555 -14.4750 -14.4212 -14.4203 -14.1774 -14.1238
   -14.0672 -13.9221 -13.7758  -9.4259  -9.2115  -9.1532  -9.0217  -8.9225
    -8.8890  -8.8365  -8.6856  -8.5616  -8.4588  -8.3552  -7.9605  -5.2246
    -4.6751  -4.0923  -3.6567  -3.5964  -3.3838  -3.2460  -3.2109  -3.1387
    -2.9999  -2.8204  -2.6985  -2.4982  -2.4889  -2.3280  -2.2931  -2.2751
    -2.0797  -2.0664  -1.7830  -1.7241  -1.5073  -1.4134  -1.4080  -1.2296
    -1.2255  -1.1962  -1.1463  -1.0680  -0.9889  -0.9265  -0.8734  -0.7916
    -0.7862  -0.3473  -0.2838  -0.0841  -0.0470   0.1846   0.3366   0.3932
     0.5962   0.6009   0.6359   0.8112   0.9257   0.9974   1.0277   1.0312
     1.0816   1.0983   1.1169   1.3005   1.3638   1.3675   1.5315   1.5486
     1.5497   1.5664   1.5675   1.5751   1.6727   1.7362   1.7905   1.9919
     1.9920   2.0782   2.0792   2.0881   2.1859   2.2012   2.2494   2.5206
     2.6666   2.9609   3.1305   3.7327   3.7790   3.8202   4.0467   4.2901
     4.3760   4.6083   4.7155   5.0825   5.3224   5.5259   6.1526   7.0220
     7.7101   7.8425   7.9106   7.9313   8.2896   8.3262   8.7185   8.8221
     8.9381   9.0327

     the Fermi energy is     2.4837 ev

!    total energy              =   -1868.38796770 Ry
     Harris-Foulkes estimate   =   -1868.38796817 Ry
     estimated scf accuracy    <       0.00000055 Ry

     The total energy is the sum of the following terms:

     one-electron contribution =  -29466.01955297 Ry
     hartree contribution      =   14881.74851522 Ry
     xc contribution           =    -641.72891008 Ry
     ewald contribution        =   13357.62073521 Ry
     smearing contrib. (-TS)   =      -0.00875507 Ry

     convergence has been achieved in  36 iterations

     negative rho (up, down):  8.996E-02 0.000E+00

     Forces acting on atoms (cartesian axes, Ry/au):

     atom    1 type  3   force =     0.00000000    0.00000000    0.00001170
     atom    2 type  2   force =     0.00000000    0.00000000    0.00084459
     atom    3 type  3   force =     0.00000000    0.00000000    0.00004138
     atom    4 type  1   force =     0.00000000    0.00000000   -0.00011935
     atom    5 type  2   force =     0.00000000    0.00000000    0.00059886
     atom    6 type  3   force =     0.00000000    0.00000000    0.00044060
     atom    7 type  3   force =     0.00000000    0.00000000    0.00023203
     atom    8 type  4   force =     0.00000000    0.00000000   -0.00066693
     atom    9 type  3   force =     0.00000000    0.00000000    0.00085790
     atom   10 type  3   force =     0.00000000    0.00000000    0.00109238
     atom   11 type  2   force =     0.00000000    0.00000000   -0.00122509
     atom   12 type  1   force =     0.00000000    0.00000000   -0.00159884
     atom   13 type  3   force =     0.00000000    0.00000000    0.00237618
     atom   14 type  3   force =     0.00000000    0.00000000    0.00565279
     atom   15 type  2   force =     0.00000000    0.00000000   -0.01092608
     atom   16 type  3   force =     0.00000000    0.00000000    0.01913589
     atom   17 type  1   force =     0.00000000    0.00000000   -0.02249749
     atom   18 type  2   force =     0.00000000    0.00000000    0.00163998
     atom   19 type  3   force =     0.00000000    0.00000000    0.06060064
     atom   20 type  3   force =     0.00000000    0.00000000    0.06197819
     atom   21 type  4   force =     0.00000000    0.00000000   -0.11575746
     atom   22 type  3   force =     0.00000000    0.00000000    0.02381466
     atom   23 type  3   force =     0.00000000    0.00000000    0.02984263
     atom   24 type  2   force =     0.00000000    0.00000000   -0.02041855
     atom   25 type  1   force =     0.00000000    0.00000000   -0.03303516
     atom   26 type  3   force =     0.00000000    0.00000000   -0.00445392
     atom   27 type  2   force =     0.00000000    0.00000000   -0.00392045
     atom   28 type  3   force =     0.00000000    0.00000000    0.00545891

     Total force =     0.158064     Total SCF correction =     0.003702


     Computing stress (Cartesian axis) and pressure


     negative rho (up, down):  8.996E-02 0.000E+00
          total   stress  (Ry/bohr**3)                   (kbar)     P=      -11.13
  -0.00006993   0.00000000   0.00000000          -10.29        0.00        0.00
   0.00000000  -0.00005758   0.00000000            0.00       -8.47        0.00
   0.00000000   0.00000000  -0.00009957            0.00        0.00      -14.65

 
     init_run     :     12.17s CPU     12.71s WALL (       1 calls)
     electrons    :    796.97s CPU    820.28s WALL (       1 calls)
     forces       :      5.54s CPU      5.73s WALL (       1 calls)
     stress       :     58.50s CPU     59.14s WALL (       1 calls)

     Called by init_run:
     wfcinit      :      8.50s CPU      8.69s WALL (       1 calls)
     potinit      :      0.80s CPU      0.82s WALL (       1 calls)
     hinit0       :      1.16s CPU      1.30s WALL (       1 calls)

     Called by electrons:
     c_bands      :    596.90s CPU    608.72s WALL (      36 calls)
     sum_band     :    124.45s CPU    130.62s WALL (      36 calls)
     v_of_rho     :      7.50s CPU      7.55s WALL (      37 calls)
     newd         :     35.89s CPU     41.06s WALL (      37 calls)
     mix_rho      :     32.20s CPU     32.40s WALL (      36 calls)

     Called by c_bands:
     init_us_2    :      4.06s CPU      4.09s WALL (    1875 calls)
     cegterg      :    557.36s CPU    568.55s WALL (     900 calls)

     Called by sum_band:
     sum_band:bec :      0.25s CPU      0.25s WALL (     900 calls)
     addusdens    :     25.62s CPU     30.89s WALL (      36 calls)

     Called by *egterg:
     h_psi        :    263.33s CPU    271.18s WALL (    3822 calls)
     s_psi        :     23.62s CPU     23.88s WALL (    3822 calls)
     g_psi        :      0.71s CPU      0.72s WALL (    2897 calls)
     cdiaghg      :    117.47s CPU    118.02s WALL (    3797 calls)

     Called by h_psi:
     h_psi:calbec :     34.29s CPU     35.46s WALL (    3822 calls)
     vloc_psi     :    203.80s CPU    206.67s WALL (    3822 calls)
     add_vuspsi   :     24.24s CPU     26.20s WALL (    3822 calls)

     General routines
     calbec       :     89.54s CPU     90.88s WALL (    4847 calls)
     fft          :      8.12s CPU      8.24s WALL (     504 calls)
     ffts         :     15.11s CPU     15.22s WALL (   14784 calls)
     fftw         :    242.43s CPU    245.76s WALL (  640936 calls)
     interpolate  :      0.62s CPU      0.63s WALL (      37 calls)
 
     Parallel routines
     fft_scatt_xy :     25.90s CPU     26.24s WALL (  656224 calls)
     fft_scatt_yz :    174.85s CPU    177.04s WALL (  656224 calls)
 
     PWSCF        :  14m34.01s CPU  14m58.96s WALL

 
   This run was terminated on:  18:21:39   5May2021            

=------------------------------------------------------------------------------=
   JOB DONE.
=------------------------------------------------------------------------------=
[1620253299.539744] [holy7c16601:15928:0]          mpool.c:43   UCX  WARN  object 0x3122800 was not returned to mpool ucp_requests
[1620253299.539904] [holy7c16504:125383:0]          mpool.c:43   UCX  WARN  object 0x3eb8880 was not returned to mpool ucp_requests
[1620253299.539924] [holy7c16504:125383:0]          mpool.c:43   UCX  WARN  object 0x3eb9140 was not returned to mpool ucp_requests
[1620253299.539560] [holy7c16510:67158:0]          mpool.c:43   UCX  WARN  object 0x38fc880 was not returned to mpool ucp_requests
[1620253299.539577] [holy7c16510:67158:0]          mpool.c:43   UCX  WARN  object 0x38fcc00 was not returned to mpool ucp_requests
[1620253299.545477] [holy7c16603:258925:0]          mpool.c:43   UCX  WARN  object 0x43bee40 was not returned to mpool ucp_requests
[1620253299.541918] [holy7c16411:102230:0]          mpool.c:43   UCX  WARN  object 0x3b28600 was not returned to mpool ucp_requests
[1620253299.565243] [holy7c16410:218135:0]          mpool.c:43   UCX  WARN  object 0x30842c0 was not returned to mpool ucp_requests
