
     Program PWSCF v.6.5 starts on  5May2021 at 17:23:49 

     This program is part of the open-source Quantum ESPRESSO suite
     for quantum simulation of materials; please cite
         "P. Giannozzi et al., J. Phys.:Condens. Matter 21 395502 (2009);
         "P. Giannozzi et al., J. Phys.:Condens. Matter 29 465901 (2017);
          URL http://www.quantum-espresso.org", 
     in publications or presentations arising from this work. More details at
     http://www.quantum-espresso.org/quote

     Parallel version (MPI), running on    20 processors

     MPI processes distributed on    11 nodes
     R & G space division:  proc/nbgrp/npool/nimage =      20
     Reading input from YBCO_Y_cleave_2.5_sep_scf.pwi
Warning: card &IONS ignored
Warning: card     ION_DYNAMICS = 'BFGS' ignored
Warning: card / ignored
Warning: card &CELL ignored
Warning: card     CELL_DYNAMICS = 'BFGS' ignored
Warning: card / ignored

     Current dimensions of program PWSCF are:
     Max number of different atomic species (ntypx) = 10
     Max number of k-points (npk) =  40000
     Max angular momentum in pseudopotentials (lmaxx) =  3

     Subspace diagonalization in iterative solution of the eigenvalue problem:
     one sub-group per band group will be used
     scalapack distributed-memory algorithm (size of sub-group:  4*  4 procs)

     Message from routine setup:
     using ibrav=0 with symmetry is DISCOURAGED, use correct ibrav instead
 
     Parallelization info
     --------------------
     sticks:   dense  smooth     PW     G-vecs:    dense   smooth      PW
     Min         150      50     14                75116    14450    2252
     Max         151      51     15                75157    14473    2301
     Sum        3015    1011    293              1502717   289173   45577
 


     bravais-lattice index     =            0
     lattice parameter (alat)  =       7.3477  a.u.
     unit-cell volume          =    4605.5967 (a.u.)^3
     number of atoms/cell      =           28
     number of atomic types    =            4
     number of electrons       =       229.00
     number of Kohn-Sham states=          138
     kinetic-energy cutoff     =      60.0000  Ry
     charge density cutoff     =     720.0000  Ry
     convergence threshold     =      1.0E-06
     mixing beta               =       0.2000
     number of iterations used =           10  local-TF  mixing
     Exchange-correlation= SLA PW PBE PBE
                           (   1   4   3   4   0   0   0)

     celldm(1)=   7.347715  celldm(2)=   0.000000  celldm(3)=   0.000000
     celldm(4)=   0.000000  celldm(5)=   0.000000  celldm(6)=   0.000000

     crystal axes: (cart. coord. in units of alat)
               a(1) = (   1.000000   0.000000   0.000000 )  
               a(2) = (   0.000000   0.975577   0.000000 )  
               a(3) = (   0.000000   0.000000  11.900557 )  

     reciprocal axes: (cart. coord. in units 2 pi/alat)
               b(1) = (  1.000000  0.000000  0.000000 )  
               b(2) = (  0.000000  1.025034  0.000000 )  
               b(3) = (  0.000000  0.000000  0.084030 )  


     PseudoPot. # 1 for Ba read from file:
     /n/holyscratch01/hoffman_lab/ruizhe/YBCO_Project/pseudo/Ba.pbe-nsp-van.UPF
     MD5 check sum: 2b9c31dd849566dd297d80989662b7a0
     Pseudo is Ultrasoft + core correction, Zval = 10.0
     Generated by new atomic code, or converted to UPF format
     Using radial grid of  907 points,  6 beta functions with: 
                l(1) =   0
                l(2) =   0
                l(3) =   1
                l(4) =   1
                l(5) =   2
                l(6) =   2
     Q(r) pseudized with  6 coefficients,  rinner =    1.200   1.200   1.200
                                                       1.200   1.200

     PseudoPot. # 2 for Cu read from file:
     /n/holyscratch01/hoffman_lab/ruizhe/YBCO_Project/pseudo/Cu.pbe-n-van_ak.UPF
     MD5 check sum: 34e3282627ffb533726feb647e090d62
     Pseudo is Ultrasoft + core correction, Zval = 11.0
     Generated by new atomic code, or converted to UPF format
     Using radial grid of  867 points,  6 beta functions with: 
                l(1) =   0
                l(2) =   0
                l(3) =   1
                l(4) =   1
                l(5) =   2
                l(6) =   2
     Q(r) pseudized with  8 coefficients,  rinner =    1.400   1.400   1.400
                                                       1.400   1.400

     PseudoPot. # 3 for O  read from file:
     /n/holyscratch01/hoffman_lab/ruizhe/YBCO_Project/pseudo/O.pbe-van_ak.UPF
     MD5 check sum: 783ce7fe4c79b6a4916957118fed0856
     Pseudo is Ultrasoft, Zval =  6.0
     Generated by new atomic code, or converted to UPF format
     Using radial grid of  737 points,  4 beta functions with: 
                l(1) =   0
                l(2) =   0
                l(3) =   1
                l(4) =   1
     Q(r) pseudized with  8 coefficients,  rinner =    0.800   0.800   0.800


     PseudoPot. # 4 for Y  read from file:
     /n/holyscratch01/hoffman_lab/ruizhe/YBCO_Project/pseudo/Y.pbe-nsp-van.UPF
     MD5 check sum: 4412fed3ab108fed87a1b7d6a69a4a38
     Pseudo is Ultrasoft + core correction, Zval = 11.0
     Generated by new atomic code, or converted to UPF format
     Using radial grid of  885 points,  6 beta functions with: 
                l(1) =   0
                l(2) =   0
                l(3) =   1
                l(4) =   1
                l(5) =   2
                l(6) =   2
     Q(r) pseudized with  6 coefficients,  rinner =    1.200   1.200   1.200
                                                       1.200   1.200

     atomic species   valence    mass     pseudopotential
        Ba            10.00   137.32700     Ba( 1.00)
        Cu            11.00    63.54600     Cu( 1.00)
        O              6.00    15.99900     O ( 1.00)
        Y             11.00    88.90584     Y ( 1.00)

      4 Sym. Ops. (no inversion) found



   Cartesian axes

     site n.     atom                  positions (alat units)
         1           O   tau(   1) = (   0.0000000   0.4877884  -0.0257983  )
         2           Cu  tau(   2) = (   0.0000000   0.0000000   0.0215779  )
         3           O   tau(   3) = (   0.0000000   0.0000000   0.5073114  )
         4           Ba  tau(   4) = (   0.4999996   0.4877884   0.5319677  )
         5           Cu  tau(   5) = (   0.0000000   0.0000000   1.0495845  )
         6           O   tau(   6) = (   0.4999996   0.0000000   1.1181579  )
         7           O   tau(   7) = (   0.0000000   0.4877884   1.1273137  )
         8           Y   tau(   8) = (   0.4999996   0.4877884   1.4938777  )
         9           O   tau(   9) = (   0.0000000   0.4877884   1.8497402  )
        10           O   tau(  10) = (   0.4999996   0.0000000   1.8692709  )
        11           Cu  tau(  11) = (   0.0000000   0.0000000   1.9417560  )
        12           Ba  tau(  12) = (   0.4999996   0.4877884   2.4526063  )
        13           O   tau(  13) = (   0.0000000   0.0000000   2.5103470  )
        14           O   tau(  14) = (   0.0000000   0.4877884   2.9968469  )
        15           Cu  tau(  15) = (   0.0000000   0.0000000   2.9968521  )
        16           O   tau(  16) = (   0.0000000   0.0000000   3.4833288  )
        17           Ba  tau(  17) = (   0.4999996   0.4877884   3.5410618  )
        18           Cu  tau(  18) = (   0.0000000   0.0000000   4.0519352  )
        19           O   tau(  19) = (   0.4999996   0.0000000   4.1244075  )
        20           O   tau(  20) = (   0.0000000   0.4877884   4.1439202  )
        21           Y   tau(  21) = (   0.4999996   0.4877884   4.4997853  )
        22           O   tau(  22) = (   0.0000000   0.4877884   5.5093131  )
        23           O   tau(  23) = (   0.4999996   0.0000000   5.5184818  )
        24           Cu  tau(  24) = (   0.0000000   0.0000000   5.5870603  )
        25           Ba  tau(  25) = (   0.4999996   0.4877884   6.1046617  )
        26           O   tau(  26) = (   0.0000000   0.0000000   6.1293180  )
        27           Cu  tau(  27) = (   0.0000000   0.0000000   6.6150232  )
        28           O   tau(  28) = (   0.0000000   0.4877884   6.6624045  )

     number of k points=    25  Gaussian smearing, width (Ry)=  0.0100
                       cart. coord. in units 2pi/alat
        k(    1) = (   0.0000000   0.0000000   0.0000000), wk =   0.0312500
        k(    2) = (   0.0000000   0.1281293   0.0000000), wk =   0.0625000
        k(    3) = (   0.0000000   0.2562585   0.0000000), wk =   0.0625000
        k(    4) = (   0.0000000   0.3843878   0.0000000), wk =   0.0625000
        k(    5) = (   0.0000000  -0.5125170   0.0000000), wk =   0.0312500
        k(    6) = (   0.1250000   0.0000000   0.0000000), wk =   0.0625000
        k(    7) = (   0.1250000   0.1281293   0.0000000), wk =   0.1250000
        k(    8) = (   0.1250000   0.2562585   0.0000000), wk =   0.1250000
        k(    9) = (   0.1250000   0.3843878   0.0000000), wk =   0.1250000
        k(   10) = (   0.1250000  -0.5125170   0.0000000), wk =   0.0625000
        k(   11) = (   0.2500000   0.0000000   0.0000000), wk =   0.0625000
        k(   12) = (   0.2500000   0.1281293   0.0000000), wk =   0.1250000
        k(   13) = (   0.2500000   0.2562585   0.0000000), wk =   0.1250000
        k(   14) = (   0.2500000   0.3843878   0.0000000), wk =   0.1250000
        k(   15) = (   0.2500000  -0.5125170   0.0000000), wk =   0.0625000
        k(   16) = (   0.3750000   0.0000000   0.0000000), wk =   0.0625000
        k(   17) = (   0.3750000   0.1281293   0.0000000), wk =   0.1250000
        k(   18) = (   0.3750000   0.2562585   0.0000000), wk =   0.1250000
        k(   19) = (   0.3750000   0.3843878   0.0000000), wk =   0.1250000
        k(   20) = (   0.3750000  -0.5125170   0.0000000), wk =   0.0625000
        k(   21) = (  -0.5000000   0.0000000   0.0000000), wk =   0.0312500
        k(   22) = (  -0.5000000   0.1281293   0.0000000), wk =   0.0625000
        k(   23) = (  -0.5000000   0.2562585   0.0000000), wk =   0.0625000
        k(   24) = (  -0.5000000   0.3843878   0.0000000), wk =   0.0625000
        k(   25) = (  -0.5000000  -0.5125170   0.0000000), wk =   0.0312500

     Dense  grid:  1502717 G-vectors     FFT dimensions: (  64,  64, 750)

     Smooth grid:   289173 G-vectors     FFT dimensions: (  40,  36, 432)

     Estimated max dynamical RAM per process >     479.64 MB

     Estimated total dynamical RAM >       9.37 GB

     Initial potential from superposition of free atoms

     starting charge  228.84827, renormalised to  229.00000

     negative rho (up, down):  8.981E-02 0.000E+00
     Starting wfcs are  201 randomized atomic wfcs

     total cpu time spent up to now is       10.5 secs

     Self-consistent Calculation

     iteration #  1     ecut=    60.00 Ry     beta= 0.20
     Davidson diagonalization with overlap
     ethr =  1.00E-02,  avg # of iterations =  2.0

     negative rho (up, down):  8.744E-02 0.000E+00

     total cpu time spent up to now is       26.4 secs

     total energy              =   -1869.44337799 Ry
     Harris-Foulkes estimate   =   -1871.02704528 Ry
     estimated scf accuracy    <      14.45466430 Ry

     iteration #  2     ecut=    60.00 Ry     beta= 0.20
     Davidson diagonalization with overlap
     ethr =  6.31E-03,  avg # of iterations =  1.0

     negative rho (up, down):  8.598E-02 0.000E+00

     total cpu time spent up to now is       40.8 secs

     total energy              =   -1868.91950472 Ry
     Harris-Foulkes estimate   =   -1869.78604635 Ry
     estimated scf accuracy    <       7.35239924 Ry

     iteration #  3     ecut=    60.00 Ry     beta= 0.20
     Davidson diagonalization with overlap
     ethr =  3.21E-03,  avg # of iterations =  1.0

     negative rho (up, down):  8.514E-02 0.000E+00

     total cpu time spent up to now is       55.2 secs

     total energy              =   -1868.60325547 Ry
     Harris-Foulkes estimate   =   -1869.12188606 Ry
     estimated scf accuracy    <       5.10240309 Ry

     iteration #  4     ecut=    60.00 Ry     beta= 0.20
     Davidson diagonalization with overlap
     ethr =  2.23E-03,  avg # of iterations =  1.0

     negative rho (up, down):  8.490E-02 0.000E+00

     total cpu time spent up to now is       69.4 secs

     total energy              =   -1868.85625388 Ry
     Harris-Foulkes estimate   =   -1868.81004968 Ry
     estimated scf accuracy    <       8.19797483 Ry

     iteration #  5     ecut=    60.00 Ry     beta= 0.20
     Davidson diagonalization with overlap
     ethr =  2.23E-03,  avg # of iterations =  1.0

     negative rho (up, down):  8.565E-02 0.000E+00

     total cpu time spent up to now is       83.8 secs

     total energy              =   -1868.33599916 Ry
     Harris-Foulkes estimate   =   -1868.88561184 Ry
     estimated scf accuracy    <      15.13233275 Ry

     iteration #  6     ecut=    60.00 Ry     beta= 0.20
     Davidson diagonalization with overlap
     ethr =  2.23E-03,  avg # of iterations =  1.2

     negative rho (up, down):  8.580E-02 0.000E+00

     total cpu time spent up to now is       98.4 secs

     total energy              =   -1868.48163441 Ry
     Harris-Foulkes estimate   =   -1868.63304655 Ry
     estimated scf accuracy    <       1.56089871 Ry

     iteration #  7     ecut=    60.00 Ry     beta= 0.20
     Davidson diagonalization with overlap
     ethr =  6.82E-04,  avg # of iterations =  4.6

     negative rho (up, down):  8.723E-02 0.000E+00

     total cpu time spent up to now is      117.0 secs

     total energy              =   -1868.41786145 Ry
     Harris-Foulkes estimate   =   -1868.54014220 Ry
     estimated scf accuracy    <       1.24150291 Ry

     iteration #  8     ecut=    60.00 Ry     beta= 0.20
     Davidson diagonalization with overlap
     ethr =  5.42E-04,  avg # of iterations =  5.4

     negative rho (up, down):  8.789E-02 0.000E+00

     total cpu time spent up to now is      137.5 secs

     total energy              =   -1868.42378984 Ry
     Harris-Foulkes estimate   =   -1868.59267916 Ry
     estimated scf accuracy    <      13.56678489 Ry

     iteration #  9     ecut=    60.00 Ry     beta= 0.20
     Davidson diagonalization with overlap
     ethr =  5.42E-04,  avg # of iterations =  1.2

     negative rho (up, down):  8.775E-02 0.000E+00

     total cpu time spent up to now is      152.2 secs

     total energy              =   -1868.43803660 Ry
     Harris-Foulkes estimate   =   -1868.47752206 Ry
     estimated scf accuracy    <       1.51931906 Ry

     iteration # 10     ecut=    60.00 Ry     beta= 0.20
     Davidson diagonalization with overlap
     ethr =  5.42E-04,  avg # of iterations =  1.0

     negative rho (up, down):  8.851E-02 0.000E+00

     total cpu time spent up to now is      166.5 secs

     total energy              =   -1868.44121858 Ry
     Harris-Foulkes estimate   =   -1868.46058434 Ry
     estimated scf accuracy    <       0.99085738 Ry

     iteration # 11     ecut=    60.00 Ry     beta= 0.20
     Davidson diagonalization with overlap
     ethr =  4.33E-04,  avg # of iterations =  1.0

     negative rho (up, down):  8.869E-02 0.000E+00

     total cpu time spent up to now is      180.8 secs

     total energy              =   -1868.44529620 Ry
     Harris-Foulkes estimate   =   -1868.44843373 Ry
     estimated scf accuracy    <       0.21058738 Ry

     iteration # 12     ecut=    60.00 Ry     beta= 0.20
     Davidson diagonalization with overlap
     ethr =  9.20E-05,  avg # of iterations =  4.2

     negative rho (up, down):  8.934E-02 0.000E+00

     total cpu time spent up to now is      199.3 secs

     total energy              =   -1868.43592847 Ry
     Harris-Foulkes estimate   =   -1868.44640589 Ry
     estimated scf accuracy    <       0.16953183 Ry

     iteration # 13     ecut=    60.00 Ry     beta= 0.20
     Davidson diagonalization with overlap
     ethr =  7.40E-05,  avg # of iterations =  4.1

     negative rho (up, down):  8.920E-02 0.000E+00

     total cpu time spent up to now is      217.3 secs

     total energy              =   -1868.43335309 Ry
     Harris-Foulkes estimate   =   -1868.44722258 Ry
     estimated scf accuracy    <       0.58682624 Ry

     iteration # 14     ecut=    60.00 Ry     beta= 0.20
     Davidson diagonalization with overlap
     ethr =  7.40E-05,  avg # of iterations =  1.1

     negative rho (up, down):  8.944E-02 0.000E+00

     total cpu time spent up to now is      231.6 secs

     total energy              =   -1868.43776498 Ry
     Harris-Foulkes estimate   =   -1868.43964598 Ry
     estimated scf accuracy    <       0.04764303 Ry

     iteration # 15     ecut=    60.00 Ry     beta= 0.20
     Davidson diagonalization with overlap
     ethr =  2.08E-05,  avg # of iterations =  8.4

     negative rho (up, down):  8.928E-02 0.000E+00

     total cpu time spent up to now is      255.2 secs

     total energy              =   -1868.43911315 Ry
     Harris-Foulkes estimate   =   -1868.44140535 Ry
     estimated scf accuracy    <       0.31094084 Ry

     iteration # 16     ecut=    60.00 Ry     beta= 0.20
     Davidson diagonalization with overlap
     ethr =  2.08E-05,  avg # of iterations =  1.0

     negative rho (up, down):  8.893E-02 0.000E+00

     total cpu time spent up to now is      269.2 secs

     total energy              =   -1868.43733183 Ry
     Harris-Foulkes estimate   =   -1868.43971465 Ry
     estimated scf accuracy    <       0.14405633 Ry

     iteration # 17     ecut=    60.00 Ry     beta= 0.20
     Davidson diagonalization with overlap
     ethr =  2.08E-05,  avg # of iterations =  1.2

     negative rho (up, down):  8.889E-02 0.000E+00

     total cpu time spent up to now is      283.6 secs

     total energy              =   -1868.43748065 Ry
     Harris-Foulkes estimate   =   -1868.43808475 Ry
     estimated scf accuracy    <       0.05413225 Ry

     iteration # 18     ecut=    60.00 Ry     beta= 0.20
     Davidson diagonalization with overlap
     ethr =  2.08E-05,  avg # of iterations =  1.0

     negative rho (up, down):  8.848E-02 0.000E+00

     total cpu time spent up to now is      297.6 secs

     total energy              =   -1868.43631715 Ry
     Harris-Foulkes estimate   =   -1868.43774291 Ry
     estimated scf accuracy    <       0.06389448 Ry

     iteration # 19     ecut=    60.00 Ry     beta= 0.20
     Davidson diagonalization with overlap
     ethr =  2.08E-05,  avg # of iterations =  1.5

     negative rho (up, down):  8.853E-02 0.000E+00

     total cpu time spent up to now is      312.5 secs

     total energy              =   -1868.43556173 Ry
     Harris-Foulkes estimate   =   -1868.43695909 Ry
     estimated scf accuracy    <       0.01917370 Ry

     iteration # 20     ecut=    60.00 Ry     beta= 0.20
     Davidson diagonalization with overlap
     ethr =  8.37E-06,  avg # of iterations =  3.6

     negative rho (up, down):  8.905E-02 0.000E+00

     total cpu time spent up to now is      329.4 secs

     total energy              =   -1868.43532511 Ry
     Harris-Foulkes estimate   =   -1868.43605567 Ry
     estimated scf accuracy    <       0.00881875 Ry

     iteration # 21     ecut=    60.00 Ry     beta= 0.20
     Davidson diagonalization with overlap
     c_bands:  1 eigenvalues not converged
     ethr =  3.85E-06,  avg # of iterations =  5.6

     negative rho (up, down):  9.512E-02 0.000E+00

     total cpu time spent up to now is      348.7 secs

     total energy              =   -1868.43446182 Ry
     Harris-Foulkes estimate   =   -1868.43540949 Ry
     estimated scf accuracy    <       0.00726661 Ry

     iteration # 22     ecut=    60.00 Ry     beta= 0.20
     Davidson diagonalization with overlap
     c_bands:  1 eigenvalues not converged
     ethr =  3.17E-06,  avg # of iterations =  8.3

     negative rho (up, down):  1.006E-01 0.000E+00

     total cpu time spent up to now is      371.8 secs

     total energy              =   -1868.43405272 Ry
     Harris-Foulkes estimate   =   -1868.43456155 Ry
     estimated scf accuracy    <       0.00290162 Ry

     iteration # 23     ecut=    60.00 Ry     beta= 0.20
     Davidson diagonalization with overlap
     c_bands:  1 eigenvalues not converged
     ethr =  1.27E-06,  avg # of iterations =  7.7

     negative rho (up, down):  1.000E-01 0.000E+00

     total cpu time spent up to now is      394.4 secs

     total energy              =   -1868.43391735 Ry
     Harris-Foulkes estimate   =   -1868.43411135 Ry
     estimated scf accuracy    <       0.00208269 Ry

     iteration # 24     ecut=    60.00 Ry     beta= 0.20
     Davidson diagonalization with overlap
     ethr =  9.09E-07,  avg # of iterations =  3.5

     negative rho (up, down):  9.854E-02 0.000E+00

     total cpu time spent up to now is      411.4 secs

     total energy              =   -1868.43380765 Ry
     Harris-Foulkes estimate   =   -1868.43394521 Ry
     estimated scf accuracy    <       0.00176296 Ry

     iteration # 25     ecut=    60.00 Ry     beta= 0.20
     Davidson diagonalization with overlap
     ethr =  7.70E-07,  avg # of iterations =  2.8

     negative rho (up, down):  9.568E-02 0.000E+00

     total cpu time spent up to now is      427.7 secs

     total energy              =   -1868.43352388 Ry
     Harris-Foulkes estimate   =   -1868.43381983 Ry
     estimated scf accuracy    <       0.00127751 Ry

     iteration # 26     ecut=    60.00 Ry     beta= 0.20
     Davidson diagonalization with overlap
     ethr =  5.58E-07,  avg # of iterations =  5.4

     negative rho (up, down):  9.203E-02 0.000E+00

     total cpu time spent up to now is      447.0 secs

     total energy              =   -1868.43339320 Ry
     Harris-Foulkes estimate   =   -1868.43357581 Ry
     estimated scf accuracy    <       0.00284753 Ry

     iteration # 27     ecut=    60.00 Ry     beta= 0.20
     Davidson diagonalization with overlap
     ethr =  5.58E-07,  avg # of iterations =  5.0

     negative rho (up, down):  9.154E-02 0.000E+00

     total cpu time spent up to now is      466.1 secs

     total energy              =   -1868.43345382 Ry
     Harris-Foulkes estimate   =   -1868.43343372 Ry
     estimated scf accuracy    <       0.00033903 Ry

     iteration # 28     ecut=    60.00 Ry     beta= 0.20
     Davidson diagonalization with overlap
     ethr =  1.48E-07,  avg # of iterations =  4.0

     negative rho (up, down):  9.044E-02 0.000E+00

     total cpu time spent up to now is      484.0 secs

     total energy              =   -1868.43347080 Ry
     Harris-Foulkes estimate   =   -1868.43346062 Ry
     estimated scf accuracy    <       0.00020055 Ry

     iteration # 29     ecut=    60.00 Ry     beta= 0.20
     Davidson diagonalization with overlap
     ethr =  8.76E-08,  avg # of iterations =  4.0

     negative rho (up, down):  8.989E-02 0.000E+00

     total cpu time spent up to now is      501.5 secs

     total energy              =   -1868.43348372 Ry
     Harris-Foulkes estimate   =   -1868.43347531 Ry
     estimated scf accuracy    <       0.00008455 Ry

     iteration # 30     ecut=    60.00 Ry     beta= 0.20
     Davidson diagonalization with overlap
     ethr =  3.69E-08,  avg # of iterations =  4.1

     negative rho (up, down):  9.000E-02 0.000E+00

     total cpu time spent up to now is      519.4 secs

     total energy              =   -1868.43348539 Ry
     Harris-Foulkes estimate   =   -1868.43348648 Ry
     estimated scf accuracy    <       0.00004065 Ry

     iteration # 31     ecut=    60.00 Ry     beta= 0.20
     Davidson diagonalization with overlap
     ethr =  1.78E-08,  avg # of iterations =  1.2

     negative rho (up, down):  8.992E-02 0.000E+00

     total cpu time spent up to now is      533.8 secs

     total energy              =   -1868.43348264 Ry
     Harris-Foulkes estimate   =   -1868.43348653 Ry
     estimated scf accuracy    <       0.00001729 Ry

     iteration # 32     ecut=    60.00 Ry     beta= 0.20
     Davidson diagonalization with overlap
     ethr =  7.55E-09,  avg # of iterations =  2.6

     negative rho (up, down):  8.997E-02 0.000E+00

     total cpu time spent up to now is      550.3 secs

     total energy              =   -1868.43348436 Ry
     Harris-Foulkes estimate   =   -1868.43348416 Ry
     estimated scf accuracy    <       0.00000630 Ry

     iteration # 33     ecut=    60.00 Ry     beta= 0.20
     Davidson diagonalization with overlap
     ethr =  2.75E-09,  avg # of iterations =  1.0

     negative rho (up, down):  8.983E-02 0.000E+00

     total cpu time spent up to now is      564.6 secs

     total energy              =   -1868.43348326 Ry
     Harris-Foulkes estimate   =   -1868.43348451 Ry
     estimated scf accuracy    <       0.00000441 Ry

     iteration # 34     ecut=    60.00 Ry     beta= 0.20
     Davidson diagonalization with overlap
     ethr =  1.93E-09,  avg # of iterations =  1.3

     negative rho (up, down):  8.983E-02 0.000E+00

     total cpu time spent up to now is      579.6 secs

     total energy              =   -1868.43348282 Ry
     Harris-Foulkes estimate   =   -1868.43348340 Ry
     estimated scf accuracy    <       0.00000324 Ry

     iteration # 35     ecut=    60.00 Ry     beta= 0.20
     Davidson diagonalization with overlap
     ethr =  1.42E-09,  avg # of iterations =  1.2

     negative rho (up, down):  8.984E-02 0.000E+00

     total cpu time spent up to now is      593.6 secs

     End of self-consistent calculation

          k = 0.0000 0.0000 0.0000 ( 36065 PWs)   bands (ev):

   -41.2102 -38.1398 -23.1172 -22.7957 -22.6589 -22.4654 -21.3253 -21.0864
   -21.0791 -18.6747 -18.1445 -18.1347 -16.2910 -15.4705 -15.3622 -14.6244
   -14.5102 -14.4095 -14.2793 -14.2559 -14.2238 -13.9944 -13.7773 -13.7347
   -13.6947 -13.4929 -13.1226  -8.4334  -8.0501  -8.0409  -8.0169  -7.9303
    -7.7879  -7.7612  -7.6127  -7.5942  -7.5940  -7.4911  -7.4573  -3.0598
    -3.0353  -2.5988  -2.0991  -2.0658  -2.0596  -1.9187  -1.8779  -1.8579
    -1.8112  -1.7341  -1.6532  -0.9267  -0.9094  -0.8874  -0.8423  -0.7862
    -0.5643  -0.5187  -0.4765  -0.4611  -0.4021  -0.3170  -0.1556  -0.1257
    -0.0881  -0.0515  -0.0342  -0.0059   0.0049   0.0968   0.1137   0.1206
     0.1275   0.2080   0.2647   0.2715   0.3785   0.3831   0.3892   0.4501
     0.4982   0.5131   0.5267   0.5284   0.5488   0.5750   0.5926   0.6313
     0.6431   0.6989   0.7304   0.8938   1.0565   1.0822   1.2127   1.2650
     1.2687   1.3354   1.3469   1.4263   1.4547   1.4683   1.4849   1.6634
     1.8808   1.9103   1.9669   2.0432   2.0496   2.0607   2.1653   2.1866
     2.2510   2.3492   2.3826   2.4104   2.5793   2.6325   2.6526   2.7556
     4.2702   5.0394   5.2542   5.4078   5.6510   5.6989   5.9981   6.5358
     6.5628   6.6611   6.8430   6.9542   6.9994   7.3946   7.8268   8.1417
     8.1583   8.1696

          k = 0.0000 0.1281 0.0000 ( 36067 PWs)   bands (ev):

   -41.2084 -38.1375 -23.0965 -22.7741 -22.6381 -22.4434 -21.3190 -21.1171
   -21.0841 -18.6388 -18.2390 -18.1413 -16.2415 -15.3801 -15.3618 -14.5814
   -14.5180 -14.3873 -14.2885 -14.2253 -14.2025 -14.0407 -13.7826 -13.7538
   -13.7376 -13.5566 -13.1536  -8.4219  -8.0617  -8.0121  -7.9994  -7.9177
    -7.7807  -7.7467  -7.6141  -7.5773  -7.5738  -7.4778  -7.4486  -3.1605
    -3.0116  -2.5063  -2.2023  -2.1951  -2.0498  -2.0378  -1.8967  -1.8793
    -1.7394  -1.7186  -1.6564  -1.3777  -1.2825  -0.9964  -0.9747  -0.9435
    -0.8431  -0.7715  -0.7509  -0.7382  -0.5863  -0.4514  -0.4487  -0.4025
    -0.2236  -0.1983  -0.1398  -0.1206  -0.0916  -0.0331   0.0165   0.0341
     0.1240   0.2315   0.2746   0.2762   0.2887   0.3962   0.3970   0.4249
     0.4826   0.5096   0.5267   0.5491   0.5945   0.6036   0.6187   0.8296
     0.8358   0.8898   0.8962   0.8969   1.0224   1.0356   1.1590   1.2174
     1.4249   1.4597   1.4625   1.5646   1.5919   1.5961   1.6708   1.6741
     1.7849   1.8646   1.9131   1.9431   2.0176   2.0463   2.1451   2.1634
     2.2223   2.4685   2.5209   2.5895   2.6850   2.9072   2.9897   3.0818
     4.3747   5.0613   5.5447   5.6297   5.7400   5.8363   6.1547   6.5829
     6.6001   6.9808   7.1490   7.2675   7.3286   7.6929   8.0392   8.0978
     8.3155   8.4028

          k = 0.0000 0.2563 0.0000 ( 36090 PWs)   bands (ev):

   -41.2042 -38.1319 -23.0456 -22.7211 -22.5869 -22.3892 -21.3131 -21.1970
   -21.0784 -18.5477 -18.4641 -18.1336 -16.1076 -15.4429 -15.1141 -14.5945
   -14.4680 -14.4097 -14.3454 -14.1591 -14.1073 -14.0865 -13.8947 -13.7597
   -13.7120 -13.7091 -13.2466  -8.3930  -8.1039  -7.9584  -7.9175  -7.8878
    -7.8218  -7.6578  -7.6435  -7.5362  -7.5212  -7.4766  -7.3421  -3.4145
    -2.8657  -2.6346  -2.5261  -2.4127  -2.2917  -2.1076  -2.0285  -1.9950
    -1.9084  -1.8373  -1.7575  -1.7288  -1.6706  -1.6658  -1.6279  -1.2958
    -1.2494  -0.9244  -0.9049  -0.8616  -0.8349  -0.7784  -0.7260  -0.6164
    -0.6025  -0.5033  -0.4183  -0.3681  -0.3161  -0.3118  -0.1422  -0.1320
    -0.0677  -0.0430   0.0818   0.1318   0.2097   0.2837   0.3083   0.3364
     0.4021   0.5540   0.5623   0.5792   0.5844   0.6499   0.7515   0.7937
     1.0886   1.1113   1.1676   1.2627   1.2648   1.3334   1.3615   1.3653
     1.4914   1.5366   1.5652   1.5992   1.6301   1.7204   1.7304   1.8034
     1.8166   1.8705   1.8800   1.9912   2.0104   2.1255   2.2447   2.2769
     2.3423   2.6208   2.6253   2.6450   2.9545   3.2672   3.3873   3.7669
     4.5459   5.0461   5.2566   6.4399   6.5278   6.6055   6.6977   6.7565
     6.7830   7.8259   7.8799   7.9678   8.0670   8.1025   8.2603   8.3648
     8.7146   8.7672

          k = 0.0000 0.3844 0.0000 ( 36012 PWs)   bands (ev):

   -41.2001 -38.1263 -22.9934 -22.6665 -22.5344 -22.3335 -21.3489 -21.2321
   -21.0728 -18.6619 -18.4494 -18.1258 -15.9253 -15.5619 -14.8649 -14.7369
   -14.4995 -14.4535 -14.3312 -14.1301 -14.1101 -14.0296 -13.8706 -13.8564
   -13.7007 -13.6511 -13.4028  -8.3597  -8.1418  -7.9184  -7.8559  -7.8529
    -7.8181  -7.6983  -7.5582  -7.5345  -7.4927  -7.3744  -7.2292  -3.6535
    -3.1016  -2.9841  -2.7618  -2.6189  -2.6129  -2.5845  -2.3649  -2.2809
    -2.0942  -1.9364  -1.9013  -1.8216  -1.7527  -1.7020  -1.5711  -1.5564
    -1.5129  -1.2511  -1.1721  -1.0624  -0.8861  -0.8802  -0.8593  -0.7972
    -0.7525  -0.7421  -0.6608  -0.6095  -0.5505  -0.4445  -0.3692  -0.3206
    -0.3113  -0.2733  -0.1223  -0.0604  -0.0017   0.1118   0.3340   0.4146
     0.5303   0.5413   0.5550   0.5568   0.6040   0.6789   0.9174   1.0147
     1.0270   1.1221   1.1992   1.2706   1.3124   1.3717   1.4443   1.5650
     1.5674   1.5857   1.5967   1.6731   1.7374   1.8164   1.8611   1.9037
     1.9639   1.9804   2.0988   2.1025   2.2136   2.2914   2.4215   2.5841
     2.6095   2.6396   2.6523   2.7073   3.2167   3.2403   3.3711   4.3206
     4.6330   5.0289   5.1410   6.7648   6.9680   7.2225   7.4157   7.5810
     7.6267   7.8553   7.9046   8.3673   8.6237   8.8151   8.8351   8.8737
     8.9991   9.1091

          k = 0.0000-0.5125 0.0000 ( 36138 PWs)   bands (ev):

   -41.1983 -38.1240 -22.9713 -22.6435 -22.5122 -22.3099 -21.3778 -21.2317
   -21.0704 -18.7379 -18.4063 -18.1226 -15.7543 -15.7090 -14.8176 -14.7334
   -14.5461 -14.5194 -14.2584 -14.1443 -14.1177 -14.0703 -13.9119 -13.6694
   -13.6669 -13.6064 -13.5902  -8.3435  -8.1581  -7.9023  -7.8664  -7.8370
    -7.7754  -7.7161  -7.5714  -7.4874  -7.4745  -7.3305  -7.1804  -3.7530
    -3.3360  -3.1337  -2.8964  -2.8470  -2.8164  -2.5438  -2.2917  -2.2763
    -2.2625  -2.1266  -1.9712  -1.9387  -1.8164  -1.6121  -1.5555  -1.5018
    -1.5009  -1.3766  -1.2830  -1.1232  -1.0480  -1.0124  -0.9034  -0.8793
    -0.8579  -0.7138  -0.6623  -0.6210  -0.6036  -0.5381  -0.4575  -0.3983
    -0.3953  -0.3688  -0.3355  -0.1147  -0.1055   0.1230   0.3428   0.4857
     0.5290   0.5402   0.5437   0.5652   0.6100   0.6871   0.9923   1.0986
     1.1067   1.1094   1.1129   1.2309   1.3503   1.3696   1.5138   1.5184
     1.5604   1.5857   1.5903   1.7018   1.7483   1.7738   1.8451   2.0149
     2.0352   2.1186   2.2566   2.2698   2.4049   2.4538   2.5163   2.5194
     2.5534   2.6756   2.8147   2.8503   3.1015   3.2213   3.3626   4.5130
     4.6339   4.9453   5.2105   6.7889   7.2333   7.4264   7.7383   7.8127
     7.8831   7.9082   8.0338   8.2586   8.7568   8.9154   9.1772   9.1860
     9.2371   9.4424

          k = 0.1250 0.0000 0.0000 ( 36058 PWs)   bands (ev):

   -41.2089 -38.1380 -23.0997 -22.7773 -22.6412 -22.4465 -21.3203 -21.1205
   -21.0773 -18.6422 -18.2446 -18.1322 -16.2419 -15.3788 -15.3550 -14.6523
   -14.5376 -14.4059 -14.3273 -14.2340 -14.2315 -14.0236 -13.7778 -13.7471
   -13.7334 -13.5228 -13.1533  -8.4553  -8.0393  -8.0228  -8.0097  -7.9282
    -7.7529  -7.7270  -7.6098  -7.5750  -7.5618  -7.4514  -7.4218  -3.1541
    -2.9916  -2.5142  -2.1918  -2.1286  -2.0164  -2.0037  -1.8934  -1.8615
    -1.8005  -1.7571  -1.6765  -1.1147  -0.9456  -0.9076  -0.9011  -0.8824
    -0.8158  -0.5969  -0.5226  -0.4710  -0.4557  -0.4530  -0.3153  -0.2651
    -0.1730  -0.1613  -0.1127  -0.0697  -0.0640   0.0249   0.0323   0.1171
     0.1203   0.1663   0.2471   0.2704   0.3884   0.4090   0.4207   0.4571
     0.4930   0.5029   0.5204   0.5266   0.5428   0.6376   0.6544   0.6568
     0.6808   0.7368   0.8979   0.9445   0.9539   1.0073   1.1261   1.2274
     1.2310   1.2618   1.3655   1.4343   1.5160   1.5395   1.6102   1.7060
     1.7995   1.9599   1.9689   2.0216   2.0471   2.0768   2.1121   2.1979
     2.2724   2.3237   2.4338   2.4879   2.6312   2.6926   2.6986   2.8453
     4.3730   4.9806   5.4513   5.5626   5.5963   5.8410   6.1578   6.3754
     6.6076   6.8997   7.0707   7.1790   7.3325   7.6591   8.0304   8.1388
     8.3075   8.5049

          k = 0.1250 0.1281 0.0000 ( 36060 PWs)   bands (ev):

   -41.2071 -38.1357 -23.0797 -22.7565 -22.6210 -22.4253 -21.3142 -21.1224
   -21.1106 -18.6067 -18.2484 -18.2273 -16.1939 -15.3929 -15.2472 -14.6062
   -14.5352 -14.3965 -14.3238 -14.2062 -14.1894 -14.0772 -13.7901 -13.7770
   -13.7310 -13.5750 -13.1808  -8.4405  -8.1810  -8.0135  -7.9433  -7.9006
    -7.8695  -7.7291  -7.6310  -7.6031  -7.5610  -7.4396  -7.3020  -3.2812
    -2.9525  -2.4371  -2.2987  -2.2468  -2.0488  -2.0286  -1.9270  -1.8972
    -1.8481  -1.6784  -1.6523  -1.3934  -1.2655  -1.2430  -1.0967  -0.9905
    -0.9840  -0.9694  -0.8144  -0.7934  -0.6371  -0.5435  -0.4809  -0.4634
    -0.3506  -0.3485  -0.2375  -0.1340  -0.1245  -0.0877   0.0525   0.1293
     0.1427   0.1751   0.2472   0.2701   0.2851   0.3342   0.3485   0.4338
     0.4688   0.4750   0.4908   0.5417   0.5786   0.6025   0.6191   0.8288
     0.8644   0.8862   0.9684   1.0373   1.1170   1.1242   1.1856   1.2304
     1.2516   1.4401   1.4783   1.4846   1.5304   1.6193   1.6750   1.8242
     1.8451   1.8674   1.8884   1.9494   1.9755   2.1768   2.1999   2.2755
     2.3025   2.4697   2.6667   2.6920   2.9262   3.0020   3.0227   3.0901
     4.4673   5.0144   5.4258   5.7775   5.8671   5.9795   6.3058   6.4627
     6.6256   7.2098   7.3771   7.4787   7.5905   7.9053   8.0407   8.2182
     8.4686   8.5917

          k = 0.1250 0.2563 0.0000 ( 36120 PWs)   bands (ev):

   -41.2029 -38.1301 -23.0304 -22.7053 -22.5715 -22.3731 -21.3089 -21.1963
   -21.1098 -18.5169 -18.4596 -18.2290 -16.0645 -15.4455 -15.0020 -14.5795
   -14.4843 -14.4144 -14.3468 -14.1637 -14.1420 -14.0515 -13.8958 -13.7510
   -13.7049 -13.7036 -13.2637  -8.4061  -8.2909  -8.0245  -7.9586  -7.9145
    -7.8494  -7.8171  -7.7199  -7.5590  -7.5405  -7.4022  -7.2577  -3.5418
    -2.8664  -2.7336  -2.5404  -2.4010  -2.2349  -2.1196  -2.0484  -2.0057
    -1.9455  -1.8626  -1.8316  -1.7834  -1.7518  -1.7291  -1.6110  -1.5699
    -1.2694  -1.0423  -0.9816  -0.9441  -0.8391  -0.8321  -0.8121  -0.7335
    -0.6312  -0.5978  -0.5329  -0.3304  -0.3059  -0.2606  -0.2158  -0.1691
    -0.0671  -0.0204   0.0974   0.1696   0.2170   0.3657   0.3728   0.4073
     0.4534   0.4742   0.4919   0.5544   0.6125   0.6308   0.7572   0.9022
     0.9661   1.1883   1.2252   1.2972   1.3531   1.3874   1.4196   1.4363
     1.4533   1.5351   1.5906   1.6327   1.6888   1.7025   1.7216   1.7702
     1.8508   1.9269   2.0563   2.0961   2.2081   2.2207   2.2611   2.3839
     2.4170   2.7061   2.9417   2.9498   3.1962   3.2717   3.4163   3.7611
     4.6538   5.0136   5.1408   6.4391   6.5813   6.6229   6.6626   6.7244
     6.8790   7.8171   8.0352   8.0990   8.2341   8.2565   8.4112   8.4608
     8.7521   8.8250

          k = 0.1250 0.3844 0.0000 ( 36125 PWs)   bands (ev):

   -41.1988 -38.1245 -22.9799 -22.6527 -22.5208 -22.3194 -21.3455 -21.2310
   -21.1032 -18.6559 -18.4200 -18.2191 -15.8895 -15.5509 -14.7630 -14.6920
   -14.4735 -14.4244 -14.3263 -14.1703 -14.1079 -14.0122 -13.8404 -13.8374
   -13.6967 -13.6481 -13.4043  -8.3740  -8.3069  -8.0292  -7.9360  -7.9265
    -7.8593  -7.8228  -7.7312  -7.6070  -7.5036  -7.4474  -7.3046  -3.7924
    -3.1338  -3.0510  -2.8128  -2.7327  -2.6065  -2.5743  -2.3794  -2.2699
    -2.1315  -2.0710  -1.9683  -1.9007  -1.8034  -1.7878  -1.6450  -1.4815
    -1.4611  -1.2836  -1.1883  -1.1710  -1.0116  -0.9500  -0.8939  -0.8561
    -0.8186  -0.6868  -0.6673  -0.5921  -0.4901  -0.4516  -0.4407  -0.4220
    -0.3110  -0.2677  -0.0095   0.0983   0.1793   0.2372   0.4173   0.4507
     0.4902   0.5677   0.5784   0.6163   0.6399   0.6519   0.8714   1.0043
     1.0660   1.1948   1.2440   1.3144   1.3374   1.4368   1.4989   1.5535
     1.5595   1.6403   1.6848   1.7444   1.8223   1.8522   1.8742   1.9927
     2.0815   2.0937   2.2308   2.2997   2.3127   2.4467   2.5906   2.6263
     2.6670   2.7313   2.9643   3.0551   3.2564   3.2745   3.4533   4.2816
     4.7142   4.9460   5.1209   6.6456   6.8680   7.1356   7.2985   7.4528
     7.5110   7.7518   8.0264   8.5179   8.5886   8.8079   8.8640   8.9879
     9.1288   9.1651

          k = 0.1250-0.5125 0.0000 ( 36108 PWs)   bands (ev):

   -41.1970 -38.1222 -22.9585 -22.6306 -22.4994 -22.2968 -21.3746 -21.2307
   -21.1004 -18.7315 -18.3776 -18.2150 -15.7255 -15.6883 -14.7768 -14.6159
   -14.5062 -14.4846 -14.2232 -14.1611 -14.1156 -14.0881 -13.8864 -13.6682
   -13.6553 -13.5951 -13.5810  -8.3598  -8.2883  -8.0039  -7.9683  -7.9136
    -7.8464  -7.8179  -7.7088  -7.6550  -7.4882  -7.4877  -7.3514  -3.8980
    -3.3330  -3.2411  -2.9546  -2.8374  -2.8106  -2.5652  -2.5484  -2.5200
    -2.1427  -2.0991  -1.9861  -1.9352  -1.7496  -1.6993  -1.6639  -1.5088
    -1.4613  -1.4147  -1.3845  -1.2303  -1.0674  -0.9893  -0.8950  -0.8878
    -0.8493  -0.7583  -0.7138  -0.6328  -0.5618  -0.5254  -0.5080  -0.5035
    -0.4011  -0.3582  -0.0413   0.0642   0.1056   0.1865   0.4157   0.4523
     0.5110   0.5944   0.6021   0.6333   0.6840   0.7134   0.9082   1.0754
     1.1013   1.1919   1.2038   1.3296   1.3356   1.4254   1.4588   1.5223
     1.5502   1.6670   1.7167   1.7342   1.8176   1.9028   1.9715   2.1032
     2.2470   2.2736   2.3088   2.4933   2.5095   2.5379   2.6954   2.7332
     2.7937   2.8365   2.8814   2.9514   3.1569   3.2357   3.4644   4.4562
     4.6702   4.8945   5.2098   6.6751   6.9822   7.4529   7.4783   7.5810
     7.6946   7.8326   7.9216   8.3636   8.7791   9.0965   9.2699   9.2841
     9.4088   9.4696

          k = 0.2500 0.0000 0.0000 ( 36166 PWs)   bands (ev):

   -41.2057 -38.1336 -23.0569 -22.7321 -22.5978 -22.4000 -21.3144 -21.1944
   -21.0730 -18.5604 -18.4596 -18.1261 -16.1100 -15.4367 -15.0907 -14.7349
   -14.6440 -14.4973 -14.4381 -14.1967 -14.1383 -14.0582 -13.8747 -13.7721
   -13.7245 -13.5764 -13.2424  -8.4931  -8.0373  -8.0005  -7.9322  -7.9137
    -7.6829  -7.6417  -7.6197  -7.5112  -7.4818  -7.3837  -7.3331  -3.3493
    -2.8598  -2.4996  -2.4166  -2.3562  -2.0384  -2.0093  -1.9094  -1.8720
    -1.7655  -1.7143  -1.6724  -1.6239  -1.3616  -1.0738  -0.9777  -0.9496
    -0.9412  -0.8441  -0.7045  -0.6983  -0.6033  -0.5582  -0.4779  -0.4579
    -0.4426  -0.4348  -0.3734  -0.3139  -0.1547  -0.1534   0.0566   0.0781
     0.0964   0.1757   0.2300   0.2598   0.2623   0.3781   0.4357   0.4503
     0.4598   0.4937   0.5029   0.5059   0.6529   0.6674   0.6736   0.7565
     0.7649   0.8177   0.8203   0.9827   1.0739   1.0818   1.1071   1.2171
     1.2858   1.3830   1.3835   1.5392   1.5751   1.6211   1.6476   1.6767
     1.8001   1.8194   1.8712   1.9240   1.9657   2.0037   2.1143   2.1861
     2.2707   2.4821   2.5855   2.6087   2.6410   2.8325   2.9647   3.0146
     4.5544   4.7891   5.3959   5.9057   5.9801   6.2619   6.5541   6.6458
     6.6788   7.5292   7.6320   7.7605   7.9097   8.0932   8.1016   8.3948
     8.7677   8.9217

          k = 0.2500 0.1281 0.0000 ( 36140 PWs)   bands (ev):

   -41.2040 -38.1313 -23.0384 -22.7131 -22.5793 -22.3808 -21.3090 -21.1928
   -21.1085 -18.5263 -18.4538 -18.2262 -16.0664 -15.4407 -14.9858 -14.6812
   -14.6155 -14.4777 -14.4133 -14.1674 -14.1236 -14.0869 -13.8817 -13.7617
   -13.7134 -13.6054 -13.2600  -8.4870  -8.2144  -8.0439  -7.9635  -7.9278
    -7.8272  -7.7469  -7.6876  -7.5620  -7.5289  -7.3760  -7.2274  -3.4982
    -2.8629  -2.6375  -2.4566  -2.2907  -2.0326  -2.0324  -1.9910  -1.9509
    -1.8835  -1.8314  -1.6370  -1.6137  -1.5915  -1.4184  -1.2118  -1.1070
    -1.0206  -0.9873  -0.9661  -0.8587  -0.8297  -0.8158  -0.7639  -0.6631
    -0.6578  -0.4735  -0.3307  -0.3183  -0.2534  -0.2309  -0.0182   0.1186
     0.1586   0.2098   0.2251   0.2624   0.2851   0.3491   0.3552   0.3991
     0.4373   0.4554   0.4729   0.5931   0.7030   0.7151   0.7335   0.8090
     0.8420   0.8653   0.9632   1.0315   1.2144   1.2611   1.3134   1.3389
     1.3530   1.4201   1.5160   1.5367   1.5625   1.6092   1.7109   1.7285
     1.7599   1.7646   1.9483   1.9544   2.0942   2.0982   2.3286   2.3581
     2.4201   2.7586   2.9179   2.9692   2.9872   3.0892   3.1159   3.3272
     4.6676   4.7983   5.2417   6.1480   6.2221   6.2703   6.5774   6.6728
     6.7751   7.7862   7.8753   7.8868   8.0229   8.1872   8.3604   8.4921
     8.7742   8.9614

          k = 0.2500 0.2563 0.0000 ( 36157 PWs)   bands (ev):

   -41.1998 -38.1258 -22.9932 -22.6666 -22.5340 -22.3335 -21.3029 -21.2159
   -21.1582 -18.4601 -18.4404 -18.4236 -15.9503 -15.4653 -14.7540 -14.5731
   -14.5216 -14.4378 -14.3635 -14.2678 -14.1004 -13.9476 -13.9045 -13.7292
   -13.6892 -13.6822 -13.3144  -8.5198  -8.4168  -8.2307  -8.0508  -7.9770
    -7.9584  -7.9288  -7.8542  -7.6261  -7.5557  -7.4714  -7.3267  -3.8379
    -3.0573  -2.8534  -2.6812  -2.4201  -2.3497  -2.1892  -2.1328  -2.0701
    -2.0590  -1.9920  -1.9809  -1.8292  -1.7601  -1.7269  -1.5787  -1.5238
    -1.4970  -1.3971  -1.3814  -1.2239  -0.9118  -0.8615  -0.8104  -0.7373
    -0.6438  -0.6265  -0.5603  -0.4513  -0.3409  -0.3056  -0.1852  -0.1777
    -0.0870  -0.0495  -0.0461   0.1489   0.1664   0.3181   0.4213   0.5504
     0.5771   0.6189   0.6629   0.7066   0.7645   0.8117   0.8441   0.8830
     1.2217   1.2505   1.3019   1.3318   1.3725   1.3810   1.4407   1.4728
     1.4918   1.5815   1.6557   1.7143   1.7526   1.8193   1.8511   1.8844
     1.9672   1.9880   2.1028   2.1362   2.2319   2.2450   2.3538   2.4943
     2.8818   3.0961   3.2402   3.3457   3.3685   3.5574   3.7484   3.8230
     4.7780   4.9433   4.9692   6.3892   6.6091   6.6475   6.6617   6.7677
     7.1349   7.6132   8.3075   8.3962   8.4801   8.6327   8.7828   8.8358
     8.9582   9.0227

          k = 0.2500 0.3844 0.0000 ( 36181 PWs)   bands (ev):

   -41.1956 -38.1202 -22.9469 -22.6191 -22.4877 -22.2852 -21.3374 -21.2480
   -21.1551 -18.6415 -18.4241 -18.3449 -15.7975 -15.5322 -14.6299 -14.5015
   -14.4113 -14.3435 -14.3217 -14.3181 -14.0544 -13.9603 -13.7908 -13.7616
   -13.6855 -13.6419 -13.4107  -8.6065  -8.4198  -8.3373  -8.1871  -8.1194
    -8.0383  -7.9555  -7.8744  -7.8628  -7.6881  -7.5688  -7.5283  -4.1644
    -3.4713  -3.0673  -2.9620  -2.8690  -2.7094  -2.6135  -2.5479  -2.4309
    -2.1590  -2.0972  -2.0191  -1.9305  -1.9058  -1.8666  -1.8602  -1.6347
    -1.5395  -1.4911  -1.3989  -1.3025  -1.0149  -0.9273  -0.8563  -0.8447
    -0.8155  -0.7322  -0.5714  -0.5237  -0.4943  -0.4345  -0.3547  -0.3252
    -0.3069  -0.2522  -0.0952   0.1170   0.2085   0.3240   0.4600   0.6486
     0.6799   0.7252   0.7812   0.8083   0.9236   0.9618   1.0382   1.0474
     1.2855   1.3026   1.3516   1.4045   1.5102   1.5896   1.5983   1.7170
     1.7476   1.7876   1.7984   1.8114   1.8948   1.9612   1.9848   2.0550
     2.1355   2.1387   2.2558   2.3360   2.4086   2.5602   2.6038   2.7880
     3.1086   3.1689   3.2768   3.3196   3.6463   3.8254   4.0919   4.1966
     4.7273   4.7757   5.2327   6.1922   6.6446   6.8275   6.9808   7.1148
     7.1599   7.8944   8.3762   8.6838   8.7187   8.8866   9.1276   9.2024
     9.3111   9.4388

          k = 0.2500-0.5125 0.0000 ( 36190 PWs)   bands (ev):

   -41.1939 -38.1179 -22.9274 -22.5990 -22.4682 -22.2649 -21.3669 -21.2481
   -21.1509 -18.7159 -18.4183 -18.3042 -15.6543 -15.6414 -14.6733 -14.4050
   -14.3983 -14.3544 -14.3043 -14.1337 -14.0943 -14.0458 -13.8225 -13.6647
   -13.6309 -13.6044 -13.5199  -8.5945  -8.4119  -8.3220  -8.2984  -8.1510
    -8.0250  -8.0223  -7.9416  -7.8744  -7.8130  -7.7224  -7.5186  -4.2984
    -3.6346  -3.2863  -3.1434  -2.9186  -2.8290  -2.7867  -2.7592  -2.6385
    -2.1533  -2.0988  -2.0239  -1.9780  -1.9313  -1.9111  -1.8550  -1.7507
    -1.5122  -1.4925  -1.4056  -1.3240  -1.1167  -0.9761  -0.8860  -0.8747
    -0.8560  -0.7105  -0.6098  -0.6080  -0.5122  -0.4283  -0.4113  -0.3743
    -0.3593  -0.3014  -0.1103   0.1048   0.2462   0.3311   0.4781   0.6656
     0.6920   0.7284   0.8593   0.9310   0.9616   1.0155   1.1279   1.1723
     1.3133   1.3349   1.3920   1.4385   1.5754   1.5883   1.6066   1.6564
     1.6671   1.8307   1.8661   1.9430   1.9490   2.0120   2.0246   2.0773
     2.2235   2.2805   2.4419   2.5043   2.5305   2.7387   2.7758   2.9448
     3.0102   3.1435   3.1635   3.3951   3.7041   3.8798   4.1452   4.3489
     4.6152   4.7689   5.3571   6.0896   6.6481   6.7781   6.9341   7.0581
     7.7523   8.0405   8.0447   8.6666   8.8341   9.3054   9.3066   9.5386
     9.5759   9.6752

          k = 0.3750 0.0000 0.0000 ( 36186 PWs)   bands (ev):

   -41.2025 -38.1292 -23.0130 -22.6858 -22.5533 -22.3523 -21.3374 -21.2366
   -21.0687 -18.6488 -18.4717 -18.1201 -15.9354 -15.5442 -14.8544 -14.8368
   -14.7530 -14.6309 -14.5530 -14.2036 -14.0507 -13.9928 -13.9643 -13.7604
   -13.7064 -13.6086 -13.3766  -8.5160  -8.0382  -7.9608  -7.8987  -7.8514
    -7.6236  -7.6148  -7.5523  -7.4729  -7.3983  -7.3316  -7.2401  -3.5420
    -2.8214  -2.6717  -2.6439  -2.2667  -2.2475  -2.0704  -1.9782  -1.8840
    -1.8327  -1.7114  -1.7076  -1.6440  -1.6436  -1.3098  -1.1682  -1.0477
    -0.9664  -0.9455  -0.9343  -0.8943  -0.8251  -0.7523  -0.7331  -0.5971
    -0.5948  -0.5258  -0.4423  -0.4280  -0.3467  -0.2170  -0.1897  -0.1090
     0.0279   0.0813   0.1600   0.1814   0.3636   0.4235   0.4625   0.4810
     0.4839   0.4895   0.4925   0.6578   0.7109   0.7123   0.7336   0.7849
     0.8045   0.8475   0.9004   0.9091   0.9647   1.0266   1.1321   1.2953
     1.3722   1.4644   1.4895   1.5465   1.5857   1.6348   1.6803   1.7848
     1.8071   1.8519   1.9141   1.9261   1.9670   1.9844   2.0570   2.2519
     2.2690   2.5207   2.5900   2.6492   2.6614   2.9388   3.0562   3.2449
     4.4114   4.8849   5.2327   6.5416   6.6076   6.6181   6.7258   6.9320
     7.2508   7.8642   8.0427   8.0492   8.1804   8.4285   8.4907   8.8108
     8.9640   9.1457

          k = 0.3750 0.1281 0.0000 ( 36132 PWs)   bands (ev):

   -41.2008 -38.1270 -22.9962 -22.6688 -22.5366 -22.3352 -21.3331 -21.2343
   -21.1034 -18.6415 -18.4388 -18.2184 -15.8985 -15.5354 -14.7966 -14.7632
   -14.6711 -14.5868 -14.5098 -14.1694 -14.1179 -13.9698 -13.9204 -13.7440
   -13.6908 -13.6195 -13.3800  -8.5125  -8.1529  -8.0389  -7.9537  -7.8825
    -7.8704  -7.6993  -7.6440  -7.5849  -7.5417  -7.4376  -7.2838  -3.7057
    -2.9692  -2.7525  -2.7268  -2.2950  -2.2703  -2.1478  -2.0432  -2.0100
    -1.9127  -1.8791  -1.7910  -1.5974  -1.5433  -1.4501  -1.3115  -1.2395
    -1.1988  -1.1380  -0.9917  -0.9741  -0.9274  -0.8823  -0.8428  -0.8119
    -0.7308  -0.5741  -0.5623  -0.4950  -0.4646  -0.2742  -0.0984   0.0385
     0.0635   0.1597   0.1817   0.2228   0.2656   0.3505   0.3877   0.4238
     0.4708   0.5032   0.5920   0.6554   0.7799   0.8065   0.8217   0.8922
     0.9104   0.9130   0.9581   1.1098   1.1758   1.2056   1.2439   1.3544
     1.3854   1.4532   1.5491   1.6109   1.6352   1.6458   1.6935   1.7668
     1.7804   1.8249   1.9207   1.9921   2.0746   2.1655   2.2971   2.5028
     2.6052   2.8703   2.9858   3.0144   3.0371   3.2076   3.2425   3.4605
     4.4533   4.9354   5.0960   6.4526   6.6651   6.6900   6.7556   6.9791
     7.3402   7.7018   8.1183   8.1354   8.2204   8.6589   8.7748   8.8359
     8.9271   9.1784

          k = 0.3750 0.2563 0.0000 ( 36161 PWs)   bands (ev):

   -41.1967 -38.1215 -22.9552 -22.6272 -22.4957 -22.2932 -21.3234 -21.2527
   -21.1602 -18.6241 -18.4336 -18.3556 -15.8033 -15.5229 -14.6712 -14.5837
   -14.4855 -14.4744 -14.3718 -14.2840 -14.0865 -13.9170 -13.8062 -13.7064
   -13.6651 -13.6581 -13.3942  -8.5755  -8.4501  -8.2798  -8.1603  -8.0839
    -7.9953  -7.9776  -7.8995  -7.8536  -7.6901  -7.5743  -7.5563  -4.1299
    -3.4089  -2.9576  -2.8381  -2.7736  -2.4019  -2.3067  -2.1967  -2.0958
    -2.0464  -1.9853  -1.9127  -1.9111  -1.8638  -1.7734  -1.7664  -1.7139
    -1.6121  -1.5398  -1.2982  -1.2490  -0.9374  -0.8267  -0.7746  -0.7322
    -0.7049  -0.6311  -0.5405  -0.4844  -0.4270  -0.4024  -0.2387  -0.1958
    -0.1783  -0.1263  -0.0328   0.0919   0.2282   0.4258   0.5099   0.6795
     0.7032   0.7260   0.8203   0.8796   0.9335   0.9824   1.0375   1.0670
     1.1805   1.2770   1.3304   1.3894   1.4372   1.4762   1.4839   1.5265
     1.6086   1.6668   1.6897   1.7338   1.7492   1.8113   1.8948   1.9345
     2.0260   2.0442   2.1064   2.1702   2.2170   2.2688   2.2838   2.7718
     3.2339   3.2515   3.2838   3.3352   3.7399   3.7740   3.9128   4.1511
     4.4854   4.8300   5.1737   6.0716   6.6371   6.6486   6.7790   7.0616
     7.1115   7.8037   8.3594   8.4805   8.6942   8.7908   9.0925   9.1384
     9.1765   9.2559

          k = 0.3750 0.3844 0.0000 ( 36239 PWs)   bands (ev):

   -41.1925 -38.1160 -22.9133 -22.5848 -22.4540 -22.2504 -21.3302 -21.3039
   -21.1645 -18.6282 -18.6036 -18.2662 -15.6873 -15.5346 -14.5580 -14.4475
   -14.3672 -14.3511 -14.3182 -14.1823 -14.0116 -13.9002 -13.7412 -13.6727
   -13.6690 -13.6359 -13.4264  -8.8147  -8.5462  -8.4726  -8.4705  -8.3410
    -8.2449  -8.1824  -7.9868  -7.9820  -7.8981  -7.8893  -7.5590  -4.5439
    -3.8611  -3.3198  -3.0687  -2.9640  -2.8472  -2.7416  -2.5201  -2.4715
    -2.2942  -2.2634  -2.1827  -2.0518  -1.9734  -1.8760  -1.8212  -1.7909
    -1.7470  -1.6095  -1.3147  -1.2155  -1.1158  -0.9151  -0.8700  -0.7647
    -0.7451  -0.7297  -0.5793  -0.5321  -0.5053  -0.4178  -0.3994  -0.3495
    -0.3262  -0.0929   0.0202   0.0930   0.3280   0.5347   0.5717   0.7679
     0.8903   0.9073   1.0033   1.0216   1.1183   1.1930   1.2340   1.3927
     1.4292   1.4401   1.5225   1.6055   1.6312   1.6497   1.7176   1.7282
     1.8340   1.9340   1.9348   1.9586   2.0144   2.0240   2.0438   2.0968
     2.2102   2.2503   2.2838   2.4063   2.4370   2.4814   2.5293   3.0682
     3.1596   3.2606   3.4046   3.7520   4.1461   4.3092   4.4082   4.4881
     4.6247   4.7112   5.4196   5.5602   6.2756   6.4281   6.8179   6.8816
     7.3541   8.1200   8.6751   8.8140   8.9464   9.0037   9.0582   9.1916
     9.1972   9.4433

          k = 0.3750-0.5125 0.0000 ( 36266 PWs)   bands (ev):

   -41.1908 -38.1137 -22.8957 -22.5670 -22.4364 -22.2324 -21.3593 -21.3043
   -21.1600 -18.7004 -18.5983 -18.2271 -15.5990 -15.5807 -14.5611 -14.4623
   -14.3089 -14.2956 -14.1130 -14.0927 -14.0344 -13.9786 -13.7543 -13.6610
   -13.6317 -13.5898 -13.4599  -8.8926  -8.6252  -8.6148  -8.4625  -8.4452
    -8.3376  -8.3243  -8.1126  -8.0448  -7.9791  -7.8939  -7.5531  -4.7091
    -4.0421  -3.4875  -3.2105  -3.1616  -2.9255  -2.8429  -2.7583  -2.7055
    -2.4034  -2.3106  -2.1963  -2.0480  -2.0065  -1.8715  -1.8178  -1.8156
    -1.7453  -1.6429  -1.3177  -1.3153  -1.1261  -0.9486  -0.8755  -0.8118
    -0.8009  -0.7738  -0.6129  -0.5855  -0.5842  -0.4882  -0.4154  -0.3770
    -0.3426   0.0427   0.0540   0.1069   0.3580   0.5887   0.5988   0.7825
     0.9327   1.0119   1.0313   1.1156   1.1961   1.2774   1.3005   1.4473
     1.4762   1.5583   1.6450   1.6902   1.7339   1.7974   1.8196   1.8217
     1.8792   1.8840   1.9340   2.0168   2.0401   2.1986   2.2187   2.2530
     2.2874   2.3006   2.4608   2.5231   2.5640   2.6779   2.7162   2.9904
     3.1025   3.2127   3.4564   3.8967   4.2622   4.4448   4.4669   4.5728
     4.6025   4.8658   5.3462   5.5342   6.0778   6.2313   6.7314   6.9503
     7.9976   8.1080   8.2715   8.8914   8.9176   9.0721   9.1740   9.2733
     9.3744   9.4368

          k =-0.5000 0.0000 0.0000 ( 36146 PWs)   bands (ev):

   -41.2012 -38.1274 -22.9945 -22.6663 -22.5346 -22.3322 -21.3599 -21.2404
   -21.0670 -18.7210 -18.4333 -18.1175 -15.8093 -15.6444 -14.9094 -14.8457
   -14.6891 -14.6612 -14.6153 -14.2354 -14.0389 -14.0342 -13.8602 -13.7547
   -13.6856 -13.6169 -13.4739  -8.5222  -8.0374  -7.9408  -7.8949  -7.8170
    -7.6102  -7.6008  -7.5140  -7.4623  -7.3626  -7.3127  -7.2001  -3.6248
    -2.9448  -2.7859  -2.4429  -2.3804  -2.2288  -2.1242  -2.1052  -2.0049
    -1.9369  -1.6835  -1.6778  -1.6728  -1.4237  -1.4162  -1.2207  -1.1859
    -1.0967  -1.0646  -1.0064  -0.8764  -0.8590  -0.8549  -0.6984  -0.6930
    -0.6484  -0.5930  -0.4617  -0.4423  -0.4364  -0.4220  -0.2054  -0.1550
    -0.0093   0.0772   0.1202   0.1699   0.4135   0.4413   0.4715   0.4735
     0.4839   0.4870   0.4996   0.6887   0.7272   0.7400   0.7764   0.8103
     0.8143   0.8200   0.8269   0.9305   0.9915   1.0321   1.2680   1.2867
     1.4172   1.4402   1.4505   1.5654   1.5756   1.5859   1.6394   1.8148
     1.8604   1.9055   1.9123   1.9138   1.9883   2.0276   2.2326   2.2473
     2.3014   2.5023   2.5371   2.6437   2.6718   2.9521   3.0341   3.3774
     4.2858   4.9642   5.1719   6.7363   6.7418   7.1687   7.2876   7.3977
     7.4370   7.4391   7.5671   7.6899   8.0314   8.6698   8.8324   9.0275
     9.1954   9.2220

          k =-0.5000 0.1281 0.0000 ( 36112 PWs)   bands (ev):

   -41.1995 -38.1252 -22.9785 -22.6501 -22.5186 -22.3160 -21.3560 -21.2379
   -21.1013 -18.7132 -18.4010 -18.2151 -15.7774 -15.6280 -14.8530 -14.7825
   -14.6349 -14.5741 -14.5452 -14.2011 -14.1055 -14.0008 -13.8210 -13.7363
   -13.6710 -13.6216 -13.4678  -8.5172  -8.0331  -8.0225  -8.0216  -7.9382
    -7.7360  -7.7254  -7.6108  -7.5856  -7.5667  -7.4485  -7.4103  -3.7948
    -3.0980  -2.8493  -2.6489  -2.4816  -2.4069  -2.1057  -2.0780  -2.0242
    -1.9313  -1.9008  -1.6193  -1.5547  -1.5503  -1.5308  -1.4666  -1.3967
    -1.2348  -1.0912  -1.0114  -0.9922  -0.9675  -0.8826  -0.8370  -0.7546
    -0.7499  -0.6732  -0.6112  -0.5847  -0.5763  -0.2887  -0.1472  -0.0014
     0.0446   0.0871   0.1679   0.1750   0.2560   0.3404   0.4101   0.4282
     0.4895   0.5075   0.6373   0.6847   0.7739   0.8179   0.9185   0.9201
     0.9766   0.9876   1.0381   1.0935   1.1172   1.1307   1.3048   1.3663
     1.4161   1.4524   1.5490   1.5715   1.5751   1.5928   1.6978   1.7496
     1.8431   1.8683   1.9335   2.0143   2.1204   2.2669   2.3005   2.5406
     2.7174   2.8916   2.9673   3.0080   3.0345   3.2309   3.2707   3.5336
     4.2942   5.0308   5.0356   6.4888   6.6912   7.1148   7.2530   7.3348
     7.5214   7.6759   7.7358   7.7452   7.8235   9.0319   9.0485   9.0867
     9.1475   9.3744

          k =-0.5000 0.2563 0.0000 ( 36182 PWs)   bands (ev):

   -41.1954 -38.1197 -22.9392 -22.6107 -22.4796 -22.2762 -21.3465 -21.2562
   -21.1574 -18.6944 -18.4291 -18.3194 -15.6987 -15.5920 -14.7187 -14.5972
   -14.4927 -14.4656 -14.2882 -14.2677 -14.1181 -13.9201 -13.7238 -13.6967
   -13.6527 -13.6429 -13.4536  -8.5349  -8.4349  -8.3230  -8.2020  -8.0472
    -8.0407  -8.0014  -7.8990  -7.8929  -7.8680  -7.7596  -7.5787  -4.2512
    -3.5505  -3.0929  -2.9033  -2.8185  -2.5372  -2.2832  -2.2118  -2.0921
    -2.0404  -2.0205  -1.9772  -1.9531  -1.8899  -1.7781  -1.7679  -1.7046
    -1.6929  -1.5590  -1.2840  -1.2301  -1.0399  -0.8040  -0.7316  -0.6729
    -0.6048  -0.5947  -0.5729  -0.5635  -0.4956  -0.3793  -0.2456  -0.2203
    -0.1887  -0.1620  -0.0371   0.0681   0.2682   0.4292   0.6144   0.7093
     0.7337   0.8254   0.8308   0.9759   0.9884   1.0422   1.0898   1.1436
     1.2255   1.3138   1.3882   1.4908   1.5002   1.5128   1.5305   1.5490
     1.5737   1.5748   1.5935   1.7045   1.7690   1.9001   1.9500   1.9888
     1.9918   2.0333   2.0751   2.0961   2.2224   2.2859   2.3063   2.9076
     3.2332   3.3233   3.3515   3.3688   3.7960   3.8744   4.0084   4.2559
     4.2886   4.7784   5.2631   5.9126   6.5985   6.6483   6.7442   7.0290
     7.6556   7.9658   8.0583   8.4570   8.5245   9.0597   9.0771   9.2773
     9.3121   9.3361

          k =-0.5000 0.3844 0.0000 ( 36306 PWs)   bands (ev):

   -41.1912 -38.1142 -22.8993 -22.5705 -22.4398 -22.2358 -21.3370 -21.3228
   -21.1622 -18.6757 -18.6201 -18.2318 -15.6172 -15.5609 -14.5840 -14.4394
   -14.3449 -14.3271 -14.3192 -14.0493 -14.0393 -13.8730 -13.7180 -13.6670
   -13.6338 -13.6208 -13.4407  -8.8668  -8.6163  -8.5955  -8.4832  -8.4147
    -8.3410  -8.2916  -8.1299  -8.0515  -7.9973  -7.9048  -7.5715  -4.6978
    -4.0215  -3.4601  -3.1603  -2.9495  -2.8571  -2.8514  -2.5084  -2.4730
    -2.4052  -2.3278  -2.2106  -2.0461  -2.0301  -1.8751  -1.8428  -1.7971
    -1.7499  -1.6602  -1.3068  -1.2886  -1.0278  -0.9703  -0.8731  -0.7373
    -0.7057  -0.6948  -0.6519  -0.5145  -0.4758  -0.4408  -0.4229  -0.3802
    -0.3619   0.0548   0.0743   0.1197   0.3593   0.5733   0.6934   0.8016
     0.9699   0.9748   1.0731   1.1595   1.1882   1.3391   1.3649   1.4066
     1.4641   1.4877   1.5911   1.6820   1.6895   1.7800   1.8254   1.8475
     1.8486   1.8676   1.9379   1.9670   2.0247   2.0429   2.0584   2.1921
     2.2879   2.3187   2.3260   2.3727   2.4435   2.4462   2.4880   3.1572
     3.1983   3.2442   3.4681   3.9657   4.2235   4.2783   4.5291   4.5730
     4.6165   4.9021   5.2825   5.5089   6.0369   6.1917   6.7139   6.9772
     7.9420   8.2483   8.2599   8.7270   8.7769   8.9410   9.1859   9.2402
     9.2889   9.4180

          k =-0.5000-0.5125 0.0000 ( 36252 PWs)   bands (ev):

   -41.1895 -38.1119 -22.8825 -22.5536 -22.4232 -22.2188 -21.3561 -21.3331
   -21.1577 -18.6939 -18.6679 -18.1935 -15.5826 -15.5494 -14.5279 -14.5114
   -14.2712 -14.2474 -14.1009 -14.0110 -13.9856 -13.9565 -13.7243 -13.6592
   -13.6377 -13.5784 -13.4357  -9.0146  -8.7476  -8.7368  -8.5649  -8.4790
    -8.4585  -8.4445  -8.2324  -8.1677  -7.9952  -7.9018  -7.5678  -4.8743
    -4.2109  -3.6283  -3.2434  -3.1991  -3.0267  -2.8582  -2.7461  -2.7094
    -2.5360  -2.3556  -2.2342  -2.0774  -2.0407  -1.8633  -1.8353  -1.8293
    -1.7184  -1.7144  -1.4006  -1.2803  -1.0435  -0.9572  -0.9439  -0.7875
    -0.7684  -0.7608  -0.6828  -0.6039  -0.5241  -0.4946  -0.4891  -0.4045
    -0.3357   0.1174   0.1490   0.2368   0.3870   0.6377   0.7593   0.8199
     0.9998   1.0306   1.0612   1.2289   1.3899   1.4243   1.4505   1.4949
     1.5463   1.5549   1.5774   1.7618   1.8192   1.8280   1.9534   1.9760
     1.9801   2.0141   2.0264   2.0395   2.0576   2.1924   2.2474   2.2918
     2.3556   2.4414   2.5370   2.5431   2.5960   2.6506   2.6867   2.9845
     3.0767   3.3366   3.5004   4.1725   4.2572   4.3446   4.4840   4.7541
     4.8407   5.0509   5.1226   5.5859   5.7872   5.9439   6.6161   7.2576
     8.1284   8.3204   8.3870   8.5309   8.7367   8.7472   9.1759   9.1995
     9.2735   9.2775

     the Fermi energy is     2.9485 ev

!    total energy              =   -1868.43348212 Ry
     Harris-Foulkes estimate   =   -1868.43348293 Ry
     estimated scf accuracy    <       0.00000093 Ry

     The total energy is the sum of the following terms:

     one-electron contribution =  -30405.91894694 Ry
     hartree contribution      =   15355.35816225 Ry
     xc contribution           =    -641.81226928 Ry
     ewald contribution        =   13823.94882707 Ry
     smearing contrib. (-TS)   =      -0.00925522 Ry

     convergence has been achieved in  35 iterations

     negative rho (up, down):  8.984E-02 0.000E+00

     Forces acting on atoms (cartesian axes, Ry/au):

     atom    1 type  3   force =     0.00000000    0.00000000   -0.00009706
     atom    2 type  2   force =     0.00000000    0.00000000    0.00053448
     atom    3 type  3   force =     0.00000000    0.00000000   -0.00006043
     atom    4 type  1   force =     0.00000000    0.00000000   -0.00017346
     atom    5 type  2   force =     0.00000000    0.00000000   -0.00000038
     atom    6 type  3   force =     0.00000000    0.00000000    0.00030258
     atom    7 type  3   force =     0.00000000    0.00000000    0.00005654
     atom    8 type  4   force =     0.00000000    0.00000000   -0.00073923
     atom    9 type  3   force =     0.00000000    0.00000000    0.00090770
     atom   10 type  3   force =     0.00000000    0.00000000    0.00117986
     atom   11 type  2   force =     0.00000000    0.00000000   -0.00150263
     atom   12 type  1   force =     0.00000000    0.00000000   -0.00188580
     atom   13 type  3   force =     0.00000000    0.00000000    0.00255426
     atom   14 type  3   force =     0.00000000    0.00000000    0.00636951
     atom   15 type  2   force =     0.00000000    0.00000000   -0.01052324
     atom   16 type  3   force =     0.00000000    0.00000000    0.02136930
     atom   17 type  1   force =     0.00000000    0.00000000   -0.02494070
     atom   18 type  2   force =     0.00000000    0.00000000    0.00208962
     atom   19 type  3   force =     0.00000000    0.00000000    0.06591282
     atom   20 type  3   force =     0.00000000    0.00000000    0.06800761
     atom   21 type  4   force =     0.00000000    0.00000000   -0.09688547
     atom   22 type  3   force =     0.00000000    0.00000000    0.00763142
     atom   23 type  3   force =     0.00000000    0.00000000    0.01369178
     atom   24 type  2   force =     0.00000000    0.00000000   -0.02056153
     atom   25 type  1   force =     0.00000000    0.00000000   -0.03174585
     atom   26 type  3   force =     0.00000000    0.00000000   -0.00230177
     atom   27 type  2   force =     0.00000000    0.00000000   -0.00342955
     atom   28 type  3   force =     0.00000000    0.00000000    0.00423962

     Total force =     0.146005     Total SCF correction =     0.003813


     Computing stress (Cartesian axis) and pressure


     negative rho (up, down):  8.984E-02 0.000E+00
          total   stress  (Ry/bohr**3)                   (kbar)     P=      -10.80
  -0.00004521   0.00000000   0.00000000           -6.65        0.00        0.00
   0.00000000  -0.00002856   0.00000000            0.00       -4.20        0.00
   0.00000000   0.00000000  -0.00014640            0.00        0.00      -21.54

 
     init_run     :      9.05s CPU      9.50s WALL (       1 calls)
     electrons    :    545.52s CPU    583.16s WALL (       1 calls)
     forces       :      3.61s CPU      3.93s WALL (       1 calls)
     stress       :     20.03s CPU     20.90s WALL (       1 calls)

     Called by init_run:
     wfcinit      :      6.29s CPU      6.41s WALL (       1 calls)
     potinit      :      0.64s CPU      0.65s WALL (       1 calls)
     hinit0       :      1.19s CPU      1.20s WALL (       1 calls)

     Called by electrons:
     c_bands      :    430.55s CPU    446.18s WALL (      35 calls)
     sum_band     :     77.53s CPU     89.83s WALL (      35 calls)
     v_of_rho     :      2.55s CPU      2.58s WALL (      36 calls)
     newd         :     19.17s CPU     28.94s WALL (      36 calls)
     mix_rho      :     16.12s CPU     16.26s WALL (      35 calls)

     Called by c_bands:
     init_us_2    :      3.80s CPU      3.85s WALL (    1825 calls)
     cegterg      :    405.11s CPU    420.16s WALL (     875 calls)

     Called by sum_band:
     sum_band:bec :      0.23s CPU      0.23s WALL (     875 calls)
     addusdens    :     19.91s CPU     31.40s WALL (      35 calls)

     Called by *egterg:
     h_psi        :    204.73s CPU    213.97s WALL (    3502 calls)
     s_psi        :     21.70s CPU     22.01s WALL (    3502 calls)
     g_psi        :      0.65s CPU      0.66s WALL (    2602 calls)
     cdiaghg      :    103.03s CPU    103.47s WALL (    3477 calls)

     Called by h_psi:
     h_psi:calbec :     24.75s CPU     25.95s WALL (    3502 calls)
     vloc_psi     :    156.15s CPU    158.94s WALL (    3502 calls)
     add_vuspsi   :     22.63s CPU     25.61s WALL (    3502 calls)

     General routines
     calbec       :     41.23s CPU     42.50s WALL (    4502 calls)
     fft          :      2.03s CPU      2.04s WALL (     491 calls)
     ffts         :      8.53s CPU      8.60s WALL (   15581 calls)
     fftw         :    176.19s CPU    179.26s WALL (  623110 calls)
     interpolate  :      0.17s CPU      0.17s WALL (      36 calls)
 
     Parallel routines
     fft_scatt_xy :     23.13s CPU     23.51s WALL (  639182 calls)
     fft_scatt_yz :    106.16s CPU    108.04s WALL (  639182 calls)
 
     PWSCF        :   9m39.17s CPU  10m18.49s WALL

 
   This run was terminated on:  17:34: 7   5May2021            

=------------------------------------------------------------------------------=
   JOB DONE.
=------------------------------------------------------------------------------=
[1620250447.737651] [holy7c12411:8473 :0]          mpool.c:43   UCX  WARN  object 0x3618600 was not returned to mpool ucp_requests
[1620250447.737672] [holy7c12411:8473 :0]          mpool.c:43   UCX  WARN  object 0x36187c0 was not returned to mpool ucp_requests
[1620250447.740515] [holy7c08602:39846:0]          mpool.c:43   UCX  WARN  object 0x2a706c0 was not returned to mpool ucp_requests
[1620250447.735239] [holy7c12505:267143:0]          mpool.c:43   UCX  WARN  object 0x40fc3c0 was not returned to mpool ucp_requests
[1620250447.735257] [holy7c12505:267143:0]          mpool.c:43   UCX  WARN  object 0x40fc580 was not returned to mpool ucp_requests
[1620250447.742785] [holy7c08602:39845:0]          mpool.c:43   UCX  WARN  object 0x2a72700 was not returned to mpool ucp_requests
[1620250447.742802] [holy7c08602:39845:0]          mpool.c:43   UCX  WARN  object 0x2a72c40 was not returned to mpool ucp_requests
[1620250447.738055] [holy7c12411:8471 :0]          mpool.c:43   UCX  WARN  object 0x2eaa680 was not returned to mpool ucp_requests
[1620250447.742036] [holy7c12411:8474 :0]          mpool.c:43   UCX  WARN  object 0x3a80940 was not returned to mpool ucp_requests
[1620250447.739800] [holy7c12407:176924:0]          mpool.c:43   UCX  WARN  object 0x2f01fc0 was not returned to mpool ucp_requests
[1620250447.739833] [holy7c12407:176924:0]          mpool.c:43   UCX  WARN  object 0x2f02180 was not returned to mpool ucp_requests
