
     Program PWSCF v.6.5 starts on  5May2021 at 17: 8:59 

     This program is part of the open-source Quantum ESPRESSO suite
     for quantum simulation of materials; please cite
         "P. Giannozzi et al., J. Phys.:Condens. Matter 21 395502 (2009);
         "P. Giannozzi et al., J. Phys.:Condens. Matter 29 465901 (2017);
          URL http://www.quantum-espresso.org", 
     in publications or presentations arising from this work. More details at
     http://www.quantum-espresso.org/quote

     Parallel version (MPI), running on    20 processors

     MPI processes distributed on    20 nodes
     R & G space division:  proc/nbgrp/npool/nimage =      20
     Reading input from YBCO_BaO_cleave_1.0_sep_scf.pwi
Warning: card &IONS ignored
Warning: card     ION_DYNAMICS = 'BFGS' ignored
Warning: card / ignored
Warning: card &CELL ignored
Warning: card     CELL_DYNAMICS = 'BFGS' ignored
Warning: card / ignored

     Current dimensions of program PWSCF are:
     Max number of different atomic species (ntypx) = 10
     Max number of k-points (npk) =  40000
     Max angular momentum in pseudopotentials (lmaxx) =  3

     Subspace diagonalization in iterative solution of the eigenvalue problem:
     one sub-group per band group will be used
     scalapack distributed-memory algorithm (size of sub-group:  4*  4 procs)

     Message from routine setup:
     using ibrav=0 with symmetry is DISCOURAGED, use correct ibrav instead
 
     Parallelization info
     --------------------
     sticks:   dense  smooth     PW     G-vecs:    dense   smooth      PW
     Min         150      50     14                72684    13980    2180
     Max         151      51     15                72723    14005    2227
     Sum        3015    1011    293              1454061   279771   44085
 


     bravais-lattice index     =            0
     lattice parameter (alat)  =       7.3477  a.u.
     unit-cell volume          =    4456.2979 (a.u.)^3
     number of atoms/cell      =           28
     number of atomic types    =            4
     number of electrons       =       229.00
     number of Kohn-Sham states=          138
     kinetic-energy cutoff     =      60.0000  Ry
     charge density cutoff     =     720.0000  Ry
     convergence threshold     =      1.0E-06
     mixing beta               =       0.2000
     number of iterations used =           10  local-TF  mixing
     Exchange-correlation= SLA PW PBE PBE
                           (   1   4   3   4   0   0   0)

     celldm(1)=   7.347715  celldm(2)=   0.000000  celldm(3)=   0.000000
     celldm(4)=   0.000000  celldm(5)=   0.000000  celldm(6)=   0.000000

     crystal axes: (cart. coord. in units of alat)
               a(1) = (   1.000000   0.000000   0.000000 )  
               a(2) = (   0.000000   0.975577   0.000000 )  
               a(3) = (   0.000000   0.000000  11.514779 )  

     reciprocal axes: (cart. coord. in units 2 pi/alat)
               b(1) = (  1.000000  0.000000  0.000000 )  
               b(2) = (  0.000000  1.025034  0.000000 )  
               b(3) = (  0.000000  0.000000  0.086845 )  


     PseudoPot. # 1 for Ba read from file:
     /n/holyscratch01/hoffman_lab/ruizhe/YBCO_Project/pseudo/Ba.pbe-nsp-van.UPF
     MD5 check sum: 2b9c31dd849566dd297d80989662b7a0
     Pseudo is Ultrasoft + core correction, Zval = 10.0
     Generated by new atomic code, or converted to UPF format
     Using radial grid of  907 points,  6 beta functions with: 
                l(1) =   0
                l(2) =   0
                l(3) =   1
                l(4) =   1
                l(5) =   2
                l(6) =   2
     Q(r) pseudized with  6 coefficients,  rinner =    1.200   1.200   1.200
                                                       1.200   1.200

     PseudoPot. # 2 for Cu read from file:
     /n/holyscratch01/hoffman_lab/ruizhe/YBCO_Project/pseudo/Cu.pbe-n-van_ak.UPF
     MD5 check sum: 34e3282627ffb533726feb647e090d62
     Pseudo is Ultrasoft + core correction, Zval = 11.0
     Generated by new atomic code, or converted to UPF format
     Using radial grid of  867 points,  6 beta functions with: 
                l(1) =   0
                l(2) =   0
                l(3) =   1
                l(4) =   1
                l(5) =   2
                l(6) =   2
     Q(r) pseudized with  8 coefficients,  rinner =    1.400   1.400   1.400
                                                       1.400   1.400

     PseudoPot. # 3 for O  read from file:
     /n/holyscratch01/hoffman_lab/ruizhe/YBCO_Project/pseudo/O.pbe-van_ak.UPF
     MD5 check sum: 783ce7fe4c79b6a4916957118fed0856
     Pseudo is Ultrasoft, Zval =  6.0
     Generated by new atomic code, or converted to UPF format
     Using radial grid of  737 points,  4 beta functions with: 
                l(1) =   0
                l(2) =   0
                l(3) =   1
                l(4) =   1
     Q(r) pseudized with  8 coefficients,  rinner =    0.800   0.800   0.800


     PseudoPot. # 4 for Y  read from file:
     /n/holyscratch01/hoffman_lab/ruizhe/YBCO_Project/pseudo/Y.pbe-nsp-van.UPF
     MD5 check sum: 4412fed3ab108fed87a1b7d6a69a4a38
     Pseudo is Ultrasoft + core correction, Zval = 11.0
     Generated by new atomic code, or converted to UPF format
     Using radial grid of  885 points,  6 beta functions with: 
                l(1) =   0
                l(2) =   0
                l(3) =   1
                l(4) =   1
                l(5) =   2
                l(6) =   2
     Q(r) pseudized with  6 coefficients,  rinner =    1.200   1.200   1.200
                                                       1.200   1.200

     atomic species   valence    mass     pseudopotential
        Ba            10.00   137.32700     Ba( 1.00)
        Cu            11.00    63.54600     Cu( 1.00)
        O              6.00    15.99900     O ( 1.00)
        Y             11.00    88.90584     Y ( 1.00)

      4 Sym. Ops. (no inversion) found



   Cartesian axes

     site n.     atom                  positions (alat units)
         1           O   tau(   1) = (   0.0000000   0.4877884  -0.0257983  )
         2           Cu  tau(   2) = (   0.0000000   0.0000000   0.0215779  )
         3           O   tau(   3) = (   0.0000000   0.0000000   0.5073114  )
         4           Ba  tau(   4) = (   0.4999996   0.4877884   0.5319677  )
         5           Cu  tau(   5) = (   0.0000000   0.0000000   1.0495845  )
         6           O   tau(   6) = (   0.4999996   0.0000000   1.1181579  )
         7           O   tau(   7) = (   0.0000000   0.4877884   1.1273137  )
         8           Y   tau(   8) = (   0.4999996   0.4877884   1.4938777  )
         9           O   tau(   9) = (   0.0000000   0.4877884   1.8497402  )
        10           O   tau(  10) = (   0.4999996   0.0000000   1.8692709  )
        11           Cu  tau(  11) = (   0.0000000   0.0000000   1.9417560  )
        12           Ba  tau(  12) = (   0.4999996   0.4877884   2.4526063  )
        13           O   tau(  13) = (   0.0000000   0.0000000   2.5103470  )
        14           O   tau(  14) = (   0.0000000   0.4877884   2.9968469  )
        15           Cu  tau(  15) = (   0.0000000   0.0000000   2.9968521  )
        16           O   tau(  16) = (   0.0000000   0.0000000   3.4833288  )
        17           Ba  tau(  17) = (   0.4999996   0.4877884   3.5410618  )
        18           Cu  tau(  18) = (   0.0000000   0.0000000   4.3091207  )
        19           O   tau(  19) = (   0.4999996   0.0000000   4.3815931  )
        20           O   tau(  20) = (   0.0000000   0.4877884   4.4011057  )
        21           Y   tau(  21) = (   0.4999996   0.4877884   4.7569708  )
        22           O   tau(  22) = (   0.0000000   0.4877884   5.1235348  )
        23           O   tau(  23) = (   0.4999996   0.0000000   5.1327035  )
        24           Cu  tau(  24) = (   0.0000000   0.0000000   5.2012820  )
        25           Ba  tau(  25) = (   0.4999996   0.4877884   5.7188833  )
        26           O   tau(  26) = (   0.0000000   0.0000000   5.7435397  )
        27           Cu  tau(  27) = (   0.0000000   0.0000000   6.2292449  )
        28           O   tau(  28) = (   0.0000000   0.4877884   6.2766262  )

     number of k points=    25  Gaussian smearing, width (Ry)=  0.0100
                       cart. coord. in units 2pi/alat
        k(    1) = (   0.0000000   0.0000000   0.0000000), wk =   0.0312500
        k(    2) = (   0.0000000   0.1281293   0.0000000), wk =   0.0625000
        k(    3) = (   0.0000000   0.2562585   0.0000000), wk =   0.0625000
        k(    4) = (   0.0000000   0.3843878   0.0000000), wk =   0.0625000
        k(    5) = (   0.0000000  -0.5125170   0.0000000), wk =   0.0312500
        k(    6) = (   0.1250000   0.0000000   0.0000000), wk =   0.0625000
        k(    7) = (   0.1250000   0.1281293   0.0000000), wk =   0.1250000
        k(    8) = (   0.1250000   0.2562585   0.0000000), wk =   0.1250000
        k(    9) = (   0.1250000   0.3843878   0.0000000), wk =   0.1250000
        k(   10) = (   0.1250000  -0.5125170   0.0000000), wk =   0.0625000
        k(   11) = (   0.2500000   0.0000000   0.0000000), wk =   0.0625000
        k(   12) = (   0.2500000   0.1281293   0.0000000), wk =   0.1250000
        k(   13) = (   0.2500000   0.2562585   0.0000000), wk =   0.1250000
        k(   14) = (   0.2500000   0.3843878   0.0000000), wk =   0.1250000
        k(   15) = (   0.2500000  -0.5125170   0.0000000), wk =   0.0625000
        k(   16) = (   0.3750000   0.0000000   0.0000000), wk =   0.0625000
        k(   17) = (   0.3750000   0.1281293   0.0000000), wk =   0.1250000
        k(   18) = (   0.3750000   0.2562585   0.0000000), wk =   0.1250000
        k(   19) = (   0.3750000   0.3843878   0.0000000), wk =   0.1250000
        k(   20) = (   0.3750000  -0.5125170   0.0000000), wk =   0.0625000
        k(   21) = (  -0.5000000   0.0000000   0.0000000), wk =   0.0312500
        k(   22) = (  -0.5000000   0.1281293   0.0000000), wk =   0.0625000
        k(   23) = (  -0.5000000   0.2562585   0.0000000), wk =   0.0625000
        k(   24) = (  -0.5000000   0.3843878   0.0000000), wk =   0.0625000
        k(   25) = (  -0.5000000  -0.5125170   0.0000000), wk =   0.0312500

     Dense  grid:  1454061 G-vectors     FFT dimensions: (  64,  64, 729)

     Smooth grid:   279771 G-vectors     FFT dimensions: (  40,  36, 432)

     Estimated max dynamical RAM per process >     464.48 MB

     Estimated total dynamical RAM >       9.07 GB

     Initial potential from superposition of free atoms

     starting charge  228.84827, renormalised to  229.00000

     negative rho (up, down):  8.960E-02 0.000E+00
     Starting wfcs are  201 randomized atomic wfcs

     total cpu time spent up to now is       11.2 secs

     Self-consistent Calculation

     iteration #  1     ecut=    60.00 Ry     beta= 0.20
     Davidson diagonalization with overlap
     ethr =  1.00E-02,  avg # of iterations =  2.0

     negative rho (up, down):  8.747E-02 0.000E+00

     total cpu time spent up to now is       27.4 secs

     total energy              =   -1869.53787017 Ry
     Harris-Foulkes estimate   =   -1871.12307768 Ry
     estimated scf accuracy    <      13.61341357 Ry

     iteration #  2     ecut=    60.00 Ry     beta= 0.20
     Davidson diagonalization with overlap
     ethr =  5.94E-03,  avg # of iterations =  1.0

     negative rho (up, down):  8.629E-02 0.000E+00

     total cpu time spent up to now is       42.0 secs

     total energy              =   -1869.03586221 Ry
     Harris-Foulkes estimate   =   -1869.89871006 Ry
     estimated scf accuracy    <       5.78060779 Ry

     iteration #  3     ecut=    60.00 Ry     beta= 0.20
     Davidson diagonalization with overlap
     ethr =  2.52E-03,  avg # of iterations =  1.0

     negative rho (up, down):  8.586E-02 0.000E+00

     total cpu time spent up to now is       56.6 secs

     total energy              =   -1868.73565555 Ry
     Harris-Foulkes estimate   =   -1869.25994044 Ry
     estimated scf accuracy    <       3.65055506 Ry

     iteration #  4     ecut=    60.00 Ry     beta= 0.20
     Davidson diagonalization with overlap
     ethr =  1.59E-03,  avg # of iterations =  1.6

     negative rho (up, down):  8.587E-02 0.000E+00

     total cpu time spent up to now is       72.1 secs

     total energy              =   -1868.93867013 Ry
     Harris-Foulkes estimate   =   -1868.96595147 Ry
     estimated scf accuracy    <       2.42570779 Ry

     iteration #  5     ecut=    60.00 Ry     beta= 0.20
     Davidson diagonalization with overlap
     ethr =  1.06E-03,  avg # of iterations =  1.0

     negative rho (up, down):  8.683E-02 0.000E+00

     total cpu time spent up to now is       86.7 secs

     total energy              =   -1868.83717184 Ry
     Harris-Foulkes estimate   =   -1868.96044137 Ry
     estimated scf accuracy    <       1.58313505 Ry

     iteration #  6     ecut=    60.00 Ry     beta= 0.20
     Davidson diagonalization with overlap
     ethr =  6.91E-04,  avg # of iterations =  1.2

     negative rho (up, down):  8.768E-02 0.000E+00

     total cpu time spent up to now is      101.4 secs

     total energy              =   -1868.84017400 Ry
     Harris-Foulkes estimate   =   -1868.87517891 Ry
     estimated scf accuracy    <       0.33940768 Ry

     iteration #  7     ecut=    60.00 Ry     beta= 0.20
     Davidson diagonalization with overlap
     ethr =  1.48E-04,  avg # of iterations =  6.6

     negative rho (up, down):  8.827E-02 0.000E+00

     total cpu time spent up to now is      123.5 secs

     total energy              =   -1868.83190858 Ry
     Harris-Foulkes estimate   =   -1868.85148148 Ry
     estimated scf accuracy    <       0.20201936 Ry

     iteration #  8     ecut=    60.00 Ry     beta= 0.20
     Davidson diagonalization with overlap
     ethr =  8.82E-05,  avg # of iterations =  4.3

     negative rho (up, down):  8.934E-02 0.000E+00

     total cpu time spent up to now is      142.2 secs

     total energy              =   -1868.82390700 Ry
     Harris-Foulkes estimate   =   -1868.84141359 Ry
     estimated scf accuracy    <       0.15269980 Ry

     iteration #  9     ecut=    60.00 Ry     beta= 0.20
     Davidson diagonalization with overlap
     ethr =  6.67E-05,  avg # of iterations =  2.6

     negative rho (up, down):  8.990E-02 0.000E+00

     total cpu time spent up to now is      159.0 secs

     total energy              =   -1868.83063686 Ry
     Harris-Foulkes estimate   =   -1868.83252194 Ry
     estimated scf accuracy    <       0.34221872 Ry

     iteration # 10     ecut=    60.00 Ry     beta= 0.20
     Davidson diagonalization with overlap
     ethr =  6.67E-05,  avg # of iterations =  1.0

     negative rho (up, down):  9.029E-02 0.000E+00

     total cpu time spent up to now is      173.8 secs

     total energy              =   -1868.82541188 Ry
     Harris-Foulkes estimate   =   -1868.83284476 Ry
     estimated scf accuracy    <       0.34416349 Ry

     iteration # 11     ecut=    60.00 Ry     beta= 0.20
     Davidson diagonalization with overlap
     ethr =  6.67E-05,  avg # of iterations =  1.6

     negative rho (up, down):  9.038E-02 0.000E+00

     total cpu time spent up to now is      189.1 secs

     total energy              =   -1868.82032009 Ry
     Harris-Foulkes estimate   =   -1868.82772189 Ry
     estimated scf accuracy    <       0.10336662 Ry

     iteration # 12     ecut=    60.00 Ry     beta= 0.20
     Davidson diagonalization with overlap
     ethr =  4.51E-05,  avg # of iterations =  5.9

     negative rho (up, down):  9.031E-02 0.000E+00

     total cpu time spent up to now is      209.7 secs

     total energy              =   -1868.82133122 Ry
     Harris-Foulkes estimate   =   -1868.82489562 Ry
     estimated scf accuracy    <       0.04420063 Ry

     iteration # 13     ecut=    60.00 Ry     beta= 0.20
     Davidson diagonalization with overlap
     ethr =  1.93E-05,  avg # of iterations =  4.8

     negative rho (up, down):  9.034E-02 0.000E+00

     total cpu time spent up to now is      229.1 secs

     total energy              =   -1868.81903859 Ry
     Harris-Foulkes estimate   =   -1868.82240736 Ry
     estimated scf accuracy    <       0.03643842 Ry

     iteration # 14     ecut=    60.00 Ry     beta= 0.20
     Davidson diagonalization with overlap
     ethr =  1.59E-05,  avg # of iterations =  3.8

     negative rho (up, down):  8.968E-02 0.000E+00

     total cpu time spent up to now is      247.1 secs

     total energy              =   -1868.81967389 Ry
     Harris-Foulkes estimate   =   -1868.82028203 Ry
     estimated scf accuracy    <       0.01607207 Ry

     iteration # 15     ecut=    60.00 Ry     beta= 0.20
     Davidson diagonalization with overlap
     ethr =  7.02E-06,  avg # of iterations =  3.9

     negative rho (up, down):  8.968E-02 0.000E+00

     total cpu time spent up to now is      265.1 secs

     total energy              =   -1868.82008553 Ry
     Harris-Foulkes estimate   =   -1868.82024392 Ry
     estimated scf accuracy    <       0.02638576 Ry

     iteration # 16     ecut=    60.00 Ry     beta= 0.20
     Davidson diagonalization with overlap
     ethr =  7.02E-06,  avg # of iterations =  1.0

     negative rho (up, down):  8.971E-02 0.000E+00

     total cpu time spent up to now is      279.6 secs

     total energy              =   -1868.81986136 Ry
     Harris-Foulkes estimate   =   -1868.82016676 Ry
     estimated scf accuracy    <       0.02166240 Ry

     iteration # 17     ecut=    60.00 Ry     beta= 0.20
     Davidson diagonalization with overlap
     ethr =  7.02E-06,  avg # of iterations =  1.0

     negative rho (up, down):  8.978E-02 0.000E+00

     total cpu time spent up to now is      294.0 secs

     total energy              =   -1868.81949146 Ry
     Harris-Foulkes estimate   =   -1868.81995866 Ry
     estimated scf accuracy    <       0.02509476 Ry

     iteration # 18     ecut=    60.00 Ry     beta= 0.20
     Davidson diagonalization with overlap
     ethr =  7.02E-06,  avg # of iterations =  1.0

     negative rho (up, down):  8.967E-02 0.000E+00

     total cpu time spent up to now is      308.7 secs

     total energy              =   -1868.81969014 Ry
     Harris-Foulkes estimate   =   -1868.81970085 Ry
     estimated scf accuracy    <       0.01576612 Ry

     iteration # 19     ecut=    60.00 Ry     beta= 0.20
     Davidson diagonalization with overlap
     ethr =  6.88E-06,  avg # of iterations =  1.0

     negative rho (up, down):  8.973E-02 0.000E+00

     total cpu time spent up to now is      323.5 secs

     total energy              =   -1868.81986341 Ry
     Harris-Foulkes estimate   =   -1868.81982473 Ry
     estimated scf accuracy    <       0.01486370 Ry

     iteration # 20     ecut=    60.00 Ry     beta= 0.20
     Davidson diagonalization with overlap
     ethr =  6.49E-06,  avg # of iterations =  1.0

     negative rho (up, down):  8.933E-02 0.000E+00

     total cpu time spent up to now is      338.0 secs

     total energy              =   -1868.81912197 Ry
     Harris-Foulkes estimate   =   -1868.81987890 Ry
     estimated scf accuracy    <       0.01514843 Ry

     iteration # 21     ecut=    60.00 Ry     beta= 0.20
     Davidson diagonalization with overlap
     ethr =  6.49E-06,  avg # of iterations =  1.8

     negative rho (up, down):  9.950E-02 0.000E+00

     total cpu time spent up to now is      353.4 secs

     total energy              =   -1868.81806920 Ry
     Harris-Foulkes estimate   =   -1868.81923469 Ry
     estimated scf accuracy    <       0.01290733 Ry

     iteration # 22     ecut=    60.00 Ry     beta= 0.20
     Davidson diagonalization with overlap
     ethr =  5.64E-06,  avg # of iterations =  6.8

     negative rho (up, down):  1.012E-01 0.000E+00

     total cpu time spent up to now is      375.9 secs

     total energy              =   -1868.81743978 Ry
     Harris-Foulkes estimate   =   -1868.81863314 Ry
     estimated scf accuracy    <       0.01251794 Ry

     iteration # 23     ecut=    60.00 Ry     beta= 0.20
     Davidson diagonalization with overlap
     ethr =  5.47E-06,  avg # of iterations =  1.4

     negative rho (up, down):  1.004E-01 0.000E+00

     total cpu time spent up to now is      390.9 secs

     total energy              =   -1868.81615633 Ry
     Harris-Foulkes estimate   =   -1868.81759257 Ry
     estimated scf accuracy    <       0.00927891 Ry

     iteration # 24     ecut=    60.00 Ry     beta= 0.20
     Davidson diagonalization with overlap
     ethr =  4.05E-06,  avg # of iterations =  3.5

     negative rho (up, down):  1.048E-01 0.000E+00

     total cpu time spent up to now is      408.6 secs

     total energy              =   -1868.81574935 Ry
     Harris-Foulkes estimate   =   -1868.81648534 Ry
     estimated scf accuracy    <       0.00660556 Ry

     iteration # 25     ecut=    60.00 Ry     beta= 0.20
     Davidson diagonalization with overlap
     ethr =  2.88E-06,  avg # of iterations =  7.3

     negative rho (up, down):  1.039E-01 0.000E+00

     total cpu time spent up to now is      431.7 secs

     total energy              =   -1868.81542309 Ry
     Harris-Foulkes estimate   =   -1868.81605221 Ry
     estimated scf accuracy    <       0.00478990 Ry

     iteration # 26     ecut=    60.00 Ry     beta= 0.20
     Davidson diagonalization with overlap
     ethr =  2.09E-06,  avg # of iterations =  5.9

     negative rho (up, down):  1.088E-01 0.000E+00

     total cpu time spent up to now is      452.2 secs

     total energy              =   -1868.81523729 Ry
     Harris-Foulkes estimate   =   -1868.81550208 Ry
     estimated scf accuracy    <       0.00286084 Ry

     iteration # 27     ecut=    60.00 Ry     beta= 0.20
     Davidson diagonalization with overlap
     ethr =  1.25E-06,  avg # of iterations =  7.1

     negative rho (up, down):  1.023E-01 0.000E+00

     total cpu time spent up to now is      475.4 secs

     total energy              =   -1868.81524424 Ry
     Harris-Foulkes estimate   =   -1868.81531356 Ry
     estimated scf accuracy    <       0.00153263 Ry

     iteration # 28     ecut=    60.00 Ry     beta= 0.20
     Davidson diagonalization with overlap
     ethr =  6.69E-07,  avg # of iterations =  4.7

     negative rho (up, down):  9.916E-02 0.000E+00

     total cpu time spent up to now is      494.8 secs

     total energy              =   -1868.81507448 Ry
     Harris-Foulkes estimate   =   -1868.81528825 Ry
     estimated scf accuracy    <       0.00104011 Ry

     iteration # 29     ecut=    60.00 Ry     beta= 0.20
     Davidson diagonalization with overlap
     ethr =  4.54E-07,  avg # of iterations =  4.2

     negative rho (up, down):  9.869E-02 0.000E+00

     total cpu time spent up to now is      514.1 secs

     total energy              =   -1868.81516142 Ry
     Harris-Foulkes estimate   =   -1868.81516487 Ry
     estimated scf accuracy    <       0.00041743 Ry

     iteration # 30     ecut=    60.00 Ry     beta= 0.20
     Davidson diagonalization with overlap
     ethr =  1.82E-07,  avg # of iterations =  1.6

     negative rho (up, down):  9.404E-02 0.000E+00

     total cpu time spent up to now is      529.6 secs

     total energy              =   -1868.81504271 Ry
     Harris-Foulkes estimate   =   -1868.81517364 Ry
     estimated scf accuracy    <       0.00035500 Ry

     iteration # 31     ecut=    60.00 Ry     beta= 0.20
     Davidson diagonalization with overlap
     ethr =  1.55E-07,  avg # of iterations =  5.7

     negative rho (up, down):  9.087E-02 0.000E+00

     total cpu time spent up to now is      551.4 secs

     total energy              =   -1868.81500584 Ry
     Harris-Foulkes estimate   =   -1868.81506623 Ry
     estimated scf accuracy    <       0.00016007 Ry

     iteration # 32     ecut=    60.00 Ry     beta= 0.20
     Davidson diagonalization with overlap
     c_bands:  1 eigenvalues not converged
     c_bands:  1 eigenvalues not converged
     ethr =  6.99E-08,  avg # of iterations =  7.8

     negative rho (up, down):  9.078E-02 0.000E+00

     total cpu time spent up to now is      574.7 secs

     total energy              =   -1868.81501513 Ry
     Harris-Foulkes estimate   =   -1868.81501804 Ry
     estimated scf accuracy    <       0.00002898 Ry

     iteration # 33     ecut=    60.00 Ry     beta= 0.20
     Davidson diagonalization with overlap
     ethr =  1.27E-08,  avg # of iterations =  3.4

     negative rho (up, down):  9.084E-02 0.000E+00

     total cpu time spent up to now is      593.0 secs

     total energy              =   -1868.81501831 Ry
     Harris-Foulkes estimate   =   -1868.81501702 Ry
     estimated scf accuracy    <       0.00002331 Ry

     iteration # 34     ecut=    60.00 Ry     beta= 0.20
     Davidson diagonalization with overlap
     ethr =  1.02E-08,  avg # of iterations =  1.2

     negative rho (up, down):  9.125E-02 0.000E+00

     total cpu time spent up to now is      607.9 secs

     total energy              =   -1868.81502595 Ry
     Harris-Foulkes estimate   =   -1868.81501901 Ry
     estimated scf accuracy    <       0.00001549 Ry

     iteration # 35     ecut=    60.00 Ry     beta= 0.20
     Davidson diagonalization with overlap
     ethr =  6.77E-09,  avg # of iterations =  2.7

     negative rho (up, down):  9.126E-02 0.000E+00

     total cpu time spent up to now is      624.8 secs

     total energy              =   -1868.81502542 Ry
     Harris-Foulkes estimate   =   -1868.81502636 Ry
     estimated scf accuracy    <       0.00000750 Ry

     iteration # 36     ecut=    60.00 Ry     beta= 0.20
     Davidson diagonalization with overlap
     ethr =  3.28E-09,  avg # of iterations =  1.1

     negative rho (up, down):  9.093E-02 0.000E+00

     total cpu time spent up to now is      639.6 secs

     total energy              =   -1868.81502061 Ry
     Harris-Foulkes estimate   =   -1868.81502566 Ry
     estimated scf accuracy    <       0.00000572 Ry

     iteration # 37     ecut=    60.00 Ry     beta= 0.20
     Davidson diagonalization with overlap
     ethr =  2.50E-09,  avg # of iterations =  2.2

     negative rho (up, down):  9.071E-02 0.000E+00

     total cpu time spent up to now is      655.4 secs

     total energy              =   -1868.81501838 Ry
     Harris-Foulkes estimate   =   -1868.81502074 Ry
     estimated scf accuracy    <       0.00000259 Ry

     iteration # 38     ecut=    60.00 Ry     beta= 0.20
     Davidson diagonalization with overlap
     ethr =  1.13E-09,  avg # of iterations =  2.4

     negative rho (up, down):  9.059E-02 0.000E+00

     total cpu time spent up to now is      671.4 secs

     total energy              =   -1868.81501754 Ry
     Harris-Foulkes estimate   =   -1868.81501843 Ry
     estimated scf accuracy    <       0.00000134 Ry

     iteration # 39     ecut=    60.00 Ry     beta= 0.20
     Davidson diagonalization with overlap
     ethr =  5.83E-10,  avg # of iterations =  1.4

     negative rho (up, down):  9.057E-02 0.000E+00

     total cpu time spent up to now is      686.1 secs

     End of self-consistent calculation

          k = 0.0000 0.0000 0.0000 ( 34859 PWs)   bands (ev):

   -38.0105 -37.8249 -23.0915 -22.6669 -22.6535 -22.5126 -18.5455 -18.3318
   -18.0153 -18.0051 -17.8425 -17.8289 -15.3414 -15.1709 -14.4700 -14.3797
   -14.1957 -14.1528 -14.1267 -14.1138 -14.0126 -13.8650 -13.6520 -13.6510
   -13.6148 -13.3497 -13.1500  -8.3573  -7.9486  -7.9422  -7.8880  -7.8705
    -7.7881  -7.6595  -7.6470  -7.6327  -7.6197  -7.4657  -7.4461  -1.9699
    -1.9369  -1.8315  -1.8111  -1.7984  -1.7597  -1.7516  -1.7211  -1.6828
    -1.6162  -1.6045  -1.5163  -1.4031  -0.7713  -0.7021  -0.5946  -0.4021
    -0.3571  -0.3508  -0.2125  -0.1882   0.0145   0.0383   0.0392   0.0662
     0.0749   0.0765   0.2288   0.2396   0.2497   0.2503   0.3362   0.3769
     0.3932   0.4003   0.4518   0.4826   0.5044   0.5109   0.5331   0.5357
     0.6095   0.6444   0.6465   0.6525   0.7155   0.7652   0.7698   0.8158
     0.8347   0.9921   1.1808   1.2117   1.3121   1.3416   1.3974   1.4228
     1.4673   1.4760   1.4873   1.5586   1.6013   1.6115   1.6462   1.8406
     1.8778   1.9756   2.0278   2.0938   2.1088   2.1562   2.2868   2.2871
     2.2966   2.3033   2.4522   2.5214   2.5221   2.7688   2.7791   5.2989
     5.3878   5.5482   5.9559   6.1214   6.7148   6.7870   6.8249   7.0865
     7.4939   7.8562   8.1723   8.2606   8.2878   8.4431   8.4482   8.5325
     8.8012   8.8669

          k = 0.0000 0.1281 0.0000 ( 34895 PWs)   bands (ev):

   -38.0082 -37.8225 -23.0730 -22.6454 -22.6319 -22.4918 -18.5096 -18.2957
   -18.1094 -18.0121 -17.9332 -17.8392 -15.2328 -15.0669 -14.4246 -14.3852
   -14.2129 -14.1616 -14.1052 -14.0962 -13.9922 -13.9115 -13.6573 -13.6563
   -13.6493 -13.4089 -13.2219  -8.3433  -7.9653  -7.9081  -7.8708  -7.8541
    -7.7758  -7.6522  -7.6392  -7.6182  -7.6057  -7.4659  -7.4269  -2.0750
    -2.0413  -2.0380  -1.9206  -1.8167  -1.7872  -1.7530  -1.7425  -1.6294
    -1.6078  -1.5890  -1.5136  -1.3876  -1.2586  -0.8750  -0.8705  -0.7163
    -0.6835  -0.5343  -0.3237  -0.3069  -0.2607  -0.1169  -0.1039  -0.0660
    -0.0133  -0.0112  -0.0080   0.0056   0.0238   0.0965   0.1872   0.2623
     0.3613   0.3968   0.4020   0.4831   0.5500   0.5996   0.6340   0.6448
     0.6508   0.6528   0.7302   0.7333   0.7688   0.9091   0.9482   0.9567
     1.0140   1.0295   1.1056   1.1437   1.1557   1.2856   1.3471   1.3981
     1.5369   1.5550   1.5845   1.6071   1.7118   1.7425   1.7942   1.8179
     1.8588   1.9181   1.9287   2.0699   2.0856   2.0999   2.2054   2.2396
     2.3545   2.3610   2.5622   2.6346   3.0418   3.0918   3.1257   5.6698
     5.7607   5.8276   6.2203   6.3745   6.9774   7.1065   7.1358   7.3351
     7.7294   8.0662   8.2274   8.2923   8.3814   8.4271   8.6283   8.6421
     8.9445   9.0778

          k = 0.0000 0.2563 0.0000 ( 34926 PWs)   bands (ev):

   -38.0026 -37.8169 -23.0277 -22.5923 -22.5788 -22.4407 -18.4186 -18.3344
   -18.2063 -18.1562 -18.0043 -17.8315 -14.9854 -14.8359 -14.4647 -14.3110
   -14.2934 -14.2175 -14.1244 -14.0295 -13.9784 -13.9254 -13.6954 -13.6338
   -13.6335 -13.5523 -13.3986  -8.3039  -8.0020  -7.8299  -7.8235  -7.8142
    -7.7458  -7.6933  -7.6803  -7.5150  -7.5090  -7.5024  -7.3300  -2.5010
    -2.4513  -2.3618  -2.2017  -2.1401  -1.9024  -1.8980  -1.7795  -1.6609
    -1.6346  -1.6319  -1.6271  -1.5408  -1.5361  -1.4358  -1.3349  -1.1112
    -0.7637  -0.7295  -0.6625  -0.5161  -0.4946  -0.3981  -0.3767  -0.3476
    -0.2818  -0.2416  -0.2383  -0.1822  -0.1499  -0.1498  -0.0656   0.0539
     0.0583   0.2193   0.2712   0.3174   0.4343   0.5040   0.5256   0.6476
     0.6708   0.6886   0.7062   0.7076   0.7131   0.8818   1.0234   1.0441
     1.1902   1.2170   1.2925   1.3279   1.4327   1.4611   1.4987   1.5230
     1.6053   1.6191   1.6636   1.6854   1.7273   1.7950   1.8378   1.8569
     1.8823   1.9475   2.0128   2.0970   2.1581   2.2524   2.3198   2.3669
     2.3708   2.4685   2.7321   2.7817   3.3918   3.3977   3.9377   6.4207
     6.6525   6.6531   6.9037   6.9895   7.6334   7.7494   7.9634   7.9855
     8.0975   8.2489   8.2946   8.3800   8.6558   8.8511   8.8885   8.9299
     9.1148   9.1888

          k = 0.0000 0.3844 0.0000 ( 34832 PWs)   bands (ev):

   -37.9970 -37.8113 -22.9814 -22.5378 -22.5243 -22.3882 -18.5322 -18.3571
   -18.3204 -18.1046 -17.9966 -17.8236 -14.7369 -14.6309 -14.6064 -14.4439
   -14.3227 -14.2001 -14.1303 -13.9952 -13.9757 -13.8333 -13.7126 -13.7077
   -13.5786 -13.5761 -13.5741  -8.2514  -8.0424  -7.7898  -7.7739  -7.7354
    -7.7265  -7.7134  -7.7117  -7.5490  -7.4059  -7.3933  -7.2281  -2.9367
    -2.8547  -2.8229  -2.6333  -2.4775  -2.4586  -2.4482  -1.8104  -1.8071
    -1.6713  -1.6432  -1.5737  -1.5028  -1.4744  -1.4413  -1.4132  -1.2523
    -0.9384  -0.9026  -0.7594  -0.7305  -0.6729  -0.6540  -0.6289  -0.5285
    -0.4877  -0.4855  -0.4829  -0.4760  -0.3158  -0.2547  -0.1898  -0.1854
    -0.1184   0.0314   0.0727   0.1208   0.2534   0.2982   0.4452   0.5448
     0.6551   0.6832   0.7301   0.7361   0.8149   1.0169   1.0726   1.0920
     1.1934   1.2155   1.2774   1.3813   1.4347   1.4993   1.5217   1.5710
     1.6173   1.6917   1.7373   1.7390   1.8743   1.9652   2.0207   2.0930
     2.1217   2.2107   2.2229   2.2300   2.2538   2.3405   2.3551   2.5730
     2.7066   2.7442   2.7738   2.7783   3.3622   3.3670   4.5125   7.1852
     7.3098   7.5326   7.5883   7.7533   7.9850   7.9856   8.1347   8.3663
     8.5688   8.7530   8.7858   8.9481   9.0065   9.1370   9.2346   9.3544
     9.4637   9.7605

          k = 0.0000-0.5125 0.0000 ( 34942 PWs)   bands (ev):

   -37.9947 -37.8090 -22.9619 -22.5147 -22.5012 -22.3661 -18.6082 -18.4329
   -18.2772 -18.0614 -17.9934 -17.8204 -14.6879 -14.6054 -14.5928 -14.4600
   -14.3881 -14.2426 -14.0313 -13.9983 -13.9493 -13.8202 -13.7683 -13.7353
   -13.6420 -13.5478 -13.5433  -8.2215  -8.0652  -7.7736  -7.7572  -7.7380
    -7.7250  -7.6978  -7.6949  -7.5664  -7.3588  -7.3461  -7.1843  -3.1772
    -3.0067  -2.9720  -2.7682  -2.7027  -2.6903  -2.5910  -1.8451  -1.8414
    -1.7298  -1.6886  -1.5740  -1.5195  -1.4277  -1.3712  -1.2961  -1.2691
    -1.0017  -0.9523  -0.9173  -0.8886  -0.7838  -0.7704  -0.6911  -0.6039
    -0.5869  -0.5815  -0.4941  -0.4096  -0.3852  -0.3399  -0.2769  -0.2724
    -0.2047  -0.1271   0.0149   0.0373   0.1990   0.2729   0.3434   0.6163
     0.6518   0.6553   0.7361   0.7417   0.8650   0.9346   1.0775   1.1558
     1.1826   1.2240   1.2316   1.4667   1.5001   1.5192   1.5555   1.6410
     1.6448   1.6502   1.7077   1.7147   1.9157   1.9178   2.1422   2.1627
     2.1986   2.2472   2.2749   2.3655   2.3686   2.5784   2.5928   2.6367
     2.6424   2.6762   2.9360   2.9407   3.2250   3.2302   4.6988   7.2482
     7.6991   7.9425   8.0118   8.0349   8.0389   8.0527   8.0915   8.2852
     8.9234   8.9884   9.0522   9.2694   9.3082   9.3219   9.4572   9.4698
     9.6118   9.8112

          k = 0.1250 0.0000 0.0000 ( 34894 PWs)   bands (ev):

   -38.0087 -37.8230 -23.0760 -22.6485 -22.6351 -22.4949 -18.5131 -18.2988
   -18.1154 -18.0026 -17.9434 -17.8264 -15.2258 -15.0577 -14.4904 -14.4082
   -14.2472 -14.2006 -14.1361 -14.1049 -13.9966 -13.8938 -13.6573 -13.6515
   -13.6260 -13.3991 -13.1920  -8.3811  -7.9206  -7.9194  -7.8962  -7.8810
    -7.7914  -7.6244  -7.6120  -7.5984  -7.5853  -7.4280  -7.4140  -2.0603
    -1.9971  -1.9663  -1.8875  -1.7673  -1.7565  -1.7370  -1.7107  -1.6722
    -1.6326  -1.6043  -1.5106  -1.5049  -0.7590  -0.7250  -0.5814  -0.4362
    -0.3516  -0.3454  -0.3179  -0.2487  -0.1449  -0.1378  -0.0463  -0.0418
    -0.0347  -0.0091   0.0593   0.0659   0.0965   0.1696   0.2407   0.2524
     0.2942   0.4233   0.5092   0.5142   0.5835   0.6014   0.6195   0.6267
     0.6284   0.6527   0.6581   0.6698   0.7335   0.7642   0.7665   0.7884
     0.9613   1.0835   1.1131   1.1326   1.1533   1.2561   1.3530   1.3538
     1.3603   1.4606   1.4838   1.5550   1.5771   1.6148   1.6484   1.8337
     1.8463   1.9973   2.1099   2.1488   2.1778   2.1977   2.2395   2.2519
     2.3127   2.4374   2.4584   2.5739   2.5821   2.8138   2.8220   5.5374
     5.5799   5.7171   6.1799   6.3222   6.9062   7.0275   7.0565   7.2954
     7.6856   8.0621   8.2684   8.2799   8.4170   8.4220   8.6302   8.7932
     8.9748   9.1308

          k = 0.1250 0.1281 0.0000 ( 34902 PWs)   bands (ev):

   -38.0064 -37.8207 -23.0580 -22.6277 -22.6142 -22.4748 -18.4776 -18.2632
   -18.1190 -18.0978 -17.9456 -17.9230 -15.1182 -14.9560 -14.4406 -14.4053
   -14.2462 -14.1970 -14.1189 -14.0771 -13.9906 -13.9476 -13.6671 -13.6508
   -13.6489 -13.4428 -13.2494  -8.3593  -8.0823  -7.8850  -7.8691  -7.8132
    -7.7724  -7.7593  -7.7566  -7.5820  -7.4746  -7.4619  -7.2920  -2.1675
    -2.1261  -2.1043  -1.9202  -1.8480  -1.8241  -1.7699  -1.7261  -1.7240
    -1.6176  -1.5673  -1.5464  -1.4432  -1.2705  -0.8703  -0.8647  -0.7345
    -0.6689  -0.5142  -0.5058  -0.4639  -0.3368  -0.3197  -0.3071  -0.2211
    -0.1333  -0.1117  -0.0981  -0.0071   0.0044   0.1918   0.2676   0.2768
     0.3153   0.3881   0.3904   0.4245   0.5601   0.5982   0.5999   0.6155
     0.6546   0.7032   0.7043   0.7299   0.7493   0.8006   0.9496   0.9560
     0.9846   1.1020   1.2318   1.2485   1.2725   1.3094   1.3200   1.3581
     1.3602   1.5708   1.5774   1.5998   1.6273   1.6535   1.6632   1.6715
     1.9412   1.9585   1.9703   2.0105   2.0226   2.0581   2.3687   2.4052
     2.5955   2.6054   2.8102   2.8864   3.0607   3.1056   3.1380   5.8557
     5.9047   5.9555   6.4029   6.5323   7.1611   7.3337   7.3573   7.4906
     7.8728   8.1372   8.2346   8.2641   8.4626   8.5788   8.7549   8.7786
     9.0698   9.1888

          k = 0.1250 0.2563 0.0000 ( 34954 PWs)   bands (ev):

   -38.0008 -37.8151 -23.0140 -22.5765 -22.5630 -22.4253 -18.3878 -18.3299
   -18.1775 -18.1491 -18.0998 -17.9276 -14.8733 -14.7337 -14.4496 -14.3059
   -14.2912 -14.2192 -14.1189 -14.0355 -14.0118 -13.9596 -13.6991 -13.6268
   -13.6248 -13.5533 -13.3953  -8.3087  -8.1921  -7.8960  -7.8829  -7.8301
    -7.8149  -7.7868  -7.7215  -7.6861  -7.4305  -7.4178  -7.2547  -2.6019
    -2.5338  -2.3906  -2.1996  -2.1665  -1.9218  -1.9085  -1.8248  -1.7553
    -1.7461  -1.6281  -1.6275  -1.6097  -1.5358  -1.4779  -1.3685  -1.1191
    -0.8406  -0.8130  -0.7017  -0.6876  -0.6636  -0.6080  -0.5335  -0.4954
    -0.4478  -0.3789  -0.1783  -0.1695  -0.0898  -0.0716  -0.0175   0.0676
     0.1145   0.2990   0.3330   0.4411   0.4975   0.5296   0.5498   0.5813
     0.6518   0.6554   0.7223   0.7387   0.7522   0.7867   1.0620   1.1054
     1.2488   1.2986   1.3155   1.3672   1.4121   1.4867   1.5075   1.5463
     1.5921   1.6350   1.7064   1.7235   1.7813   1.8224   1.8287   1.8478
     1.8671   1.9125   1.9832   1.9863   2.2921   2.3380   2.3439   2.5177
     2.8350   2.8574   3.0771   3.1400   3.3972   3.4057   3.9400   6.5038
     6.7068   6.7076   7.0084   7.0373   7.5550   7.8394   7.9477   8.1548
     8.1644   8.1823   8.4483   8.4944   8.8042   8.8535   8.8615   8.8991
     9.1525   9.1750

          k = 0.1250 0.3844 0.0000 ( 34953 PWs)   bands (ev):

   -37.9952 -37.8095 -22.9691 -22.5240 -22.5105 -22.3747 -18.5262 -18.3511
   -18.2910 -18.0899 -18.0747 -17.9178 -14.6354 -14.5609 -14.5601 -14.3661
   -14.2942 -14.1841 -14.1294 -14.0407 -13.9727 -13.8744 -13.7015 -13.6887
   -13.5741 -13.5706 -13.5473  -8.2603  -8.2038  -7.9007  -7.8878  -7.8279
    -7.7993  -7.7841  -7.7107  -7.6960  -7.4785  -7.4658  -7.3004  -2.9954
    -2.9211  -2.8973  -2.6843  -2.5159  -2.4484  -2.4470  -1.8422  -1.8316
    -1.7318  -1.6614  -1.6247  -1.6091  -1.5227  -1.4547  -1.3881  -1.3414
    -1.1544  -1.0903  -1.0523  -0.9019  -0.8784  -0.8264  -0.7391  -0.5393
    -0.4805  -0.4379  -0.3617  -0.3316  -0.3199  -0.2568  -0.1835  -0.1539
    -0.0784   0.1867   0.3169   0.3683   0.3780   0.4729   0.4889   0.6017
     0.6316   0.7041   0.7270   0.7628   0.7701   0.9851   1.0139   1.1992
     1.2495   1.3360   1.3790   1.4090   1.4713   1.5653   1.5961   1.6256
     1.6766   1.6800   1.7156   1.8009   1.8762   1.9948   2.0131   2.1157
     2.1431   2.1682   2.2116   2.3504   2.3586   2.6020   2.7482   2.7524
     2.8600   2.8950   3.0934   3.1390   3.3885   3.3986   4.5031   7.0000
     7.2398   7.4231   7.4473   7.6386   7.7558   7.8979   8.1505   8.4040
     8.5477   8.7148   8.7349   9.1058   9.2206   9.2640   9.3424   9.4055
     9.5355   9.8248

          k = 0.1250-0.5125 0.0000 ( 34944 PWs)   bands (ev):

   -37.9929 -37.8072 -22.9502 -22.5018 -22.4883 -22.3533 -18.6017 -18.4265
   -18.2485 -18.0858 -18.0322 -17.9136 -14.6470 -14.5486 -14.4880 -14.3539
   -14.3511 -14.2201 -14.0343 -14.0024 -13.9740 -13.8190 -13.7920 -13.7099
   -13.6027 -13.5470 -13.5420  -8.2297  -8.1926  -7.8755  -7.8692  -7.8625
    -7.7854  -7.7699  -7.6968  -7.6858  -7.5265  -7.5139  -7.3416  -3.1809
    -3.1094  -3.0728  -2.8262  -2.7030  -2.6847  -2.6388  -1.8600  -1.8527
    -1.7189  -1.5972  -1.5941  -1.5363  -1.5335  -1.4676  -1.3939  -1.3676
    -1.2989  -1.2604  -1.1695  -1.0932  -0.9478  -0.8746  -0.8119  -0.5300
    -0.5040  -0.4753  -0.4326  -0.3785  -0.3678  -0.2824  -0.2746  -0.2565
    -0.0816   0.1486   0.2359   0.3145   0.3679   0.4007   0.4765   0.6187
     0.6291   0.7176   0.7205   0.7708   0.8161   1.0666   1.0675   1.1267
     1.2925   1.3251   1.3321   1.4484   1.4910   1.5571   1.6029   1.6436
     1.6776   1.6931   1.7499   1.8242   1.9035   2.0295   2.0991   2.2311
     2.2368   2.3472   2.3634   2.6297   2.6356   2.6520   2.8237   2.8611
     2.9151   2.9197   3.0089   3.0432   3.2853   3.3007   4.6856   6.9353
     7.5151   7.6084   7.6934   7.7084   7.8378   8.0418   8.1599   8.3644
     8.7938   9.1928   9.2419   9.2660   9.4120   9.5634   9.6014   9.6061
     9.6203   9.8668

          k = 0.2500 0.0000 0.0000 ( 34996 PWs)   bands (ev):

   -38.0043 -37.8186 -23.0379 -22.6033 -22.5899 -22.4515 -18.4313 -18.3305
   -18.2155 -18.1601 -17.9965 -17.8203 -14.9613 -14.8096 -14.5596 -14.5131
   -14.3881 -14.3109 -14.2168 -14.0671 -13.9441 -13.9277 -13.6671 -13.6458
   -13.6282 -13.5227 -13.2736  -8.4158  -7.9086  -7.8923  -7.8697  -7.8514
    -7.7870  -7.5544  -7.5420  -7.5131  -7.4999  -7.3638  -7.3341  -2.3695
    -2.3283  -2.2724  -2.0130  -1.7835  -1.7754  -1.7430  -1.6464  -1.6394
    -1.6372  -1.5388  -1.4611  -1.4388  -0.8471  -0.7916  -0.7108  -0.5628
    -0.5282  -0.4378  -0.4306  -0.3859  -0.3404  -0.3352  -0.3319  -0.3063
    -0.2575  -0.2500  -0.2468  -0.1519  -0.0269   0.0386   0.2135   0.2207
     0.2979   0.3424   0.3778   0.3891   0.4221   0.5584   0.5599   0.5758
     0.5979   0.6230   0.6287   0.7792   0.7894   0.8000   0.8009   0.9040
     0.9529   1.0543   1.1414   1.1989   1.2012   1.2196   1.2411   1.3570
     1.4148   1.5130   1.5382   1.6190   1.6645   1.6971   1.7018   1.7577
     1.7795   1.9831   2.0058   2.0560   2.1309   2.1664   2.2660   2.2664
     2.3355   2.3654   2.6096   2.7404   2.7918   2.9535   2.9605   6.0269
     6.0313   6.1832   6.7689   6.8625   7.4218   7.6502   7.6804   7.7229
     8.1368   8.2227   8.3730   8.4679   8.5106   8.8680   8.9977   9.1267
     9.3313   9.5095

          k = 0.2500 0.1281 0.0000 ( 34972 PWs)   bands (ev):

   -38.0021 -37.8163 -23.0213 -22.5844 -22.5709 -22.4330 -18.3972 -18.3247
   -18.1813 -18.1543 -18.0966 -17.9203 -14.8566 -14.7188 -14.5086 -14.4790
   -14.3471 -14.2862 -14.1878 -14.0384 -13.9928 -13.9514 -13.6820 -13.6354
   -13.6330 -13.5307 -13.3023  -8.3982  -8.1160  -7.9154  -7.9008  -7.8232
    -7.7992  -7.7862  -7.7217  -7.6053  -7.4004  -7.3876  -7.2281  -2.5064
    -2.4359  -2.3193  -2.0679  -1.8656  -1.8315  -1.8259  -1.7572  -1.7429
    -1.6397  -1.6221  -1.4616  -1.3466  -1.2943  -0.8921  -0.8667  -0.8624
    -0.8138  -0.8076  -0.7087  -0.6877  -0.6115  -0.5544  -0.5407  -0.4322
    -0.4177  -0.2013  -0.1436  -0.1087  -0.0878   0.1226   0.1726   0.2871
     0.3260   0.3607   0.4314   0.4334   0.4787   0.5170   0.5328   0.5961
     0.6144   0.6575   0.7114   0.8267   0.8291   0.8400   0.9209   0.9627
     0.9663   1.1570   1.2275   1.2645   1.3408   1.3544   1.4257   1.4382
     1.4719   1.4937   1.5533   1.6191   1.6447   1.6754   1.7600   1.8428
     1.8534   1.8936   1.9085   1.9392   2.0733   2.0951   2.3423   2.4378
     2.8868   2.9192   3.1062   3.1158   3.1432   3.2221   3.2537   6.2695
     6.2734   6.3149   6.9055   6.9732   7.5527   7.7026   7.9173   7.9449
     8.0058   8.2251   8.3691   8.5110   8.7389   8.7648   8.9667   9.0668
     9.1873   9.3689

          k = 0.2500 0.2563 0.0000 ( 34971 PWs)   bands (ev):

   -37.9965 -37.8108 -22.9806 -22.5379 -22.5244 -22.3878 -18.3306 -18.3113
   -18.2942 -18.1573 -18.1246 -18.0912 -14.6254 -14.5411 -14.4397 -14.3382
   -14.2517 -14.2364 -14.1386 -14.1050 -14.0323 -13.9709 -13.6863 -13.6063
   -13.6030 -13.5606 -13.3839  -8.4088  -8.3160  -8.1023  -8.0894  -7.9072
    -7.8486  -7.8366  -7.8334  -7.7276  -7.4977  -7.4849  -7.3235  -2.9271
    -2.8257  -2.5458  -2.3159  -2.1770  -2.0062  -1.9796  -1.9331  -1.8548
    -1.8490  -1.7693  -1.6363  -1.6342  -1.6232  -1.3683  -1.2690  -1.2576
    -1.2442  -1.2128  -1.0487  -1.0009  -0.7288  -0.6725  -0.6145  -0.5182
    -0.4964  -0.3774  -0.2021  -0.1640  -0.0783  -0.0567  -0.0400   0.0424
     0.1086   0.1543   0.1828   0.4743   0.4913   0.5503   0.6859   0.7512
     0.7693   0.8025   0.8322   0.8917   0.9005   1.0380   1.0453   1.3456
     1.3560   1.4224   1.4696   1.4916   1.4985   1.5101   1.5151   1.5978
     1.6055   1.6214   1.6911   1.8013   1.8177   1.8741   1.8809   1.9351
     1.9435   1.9867   2.0912   2.1115   2.2617   2.2633   2.4063   2.5678
     3.3644   3.3687   3.4964   3.5379   3.6859   3.7665   3.9485   6.5052
     6.7869   6.7910   7.1146   7.2645   7.4010   7.7434   7.9915   8.2348
     8.4447   8.4603   8.7460   8.9172   8.9506   9.0253   9.0424   9.1541
     9.2326   9.3322

          k = 0.2500 0.3844 0.0000 ( 35015 PWs)   bands (ev):

   -37.9910 -37.8052 -22.9392 -22.4903 -22.4768 -22.3415 -18.5117 -18.3365
   -18.2949 -18.2158 -18.1232 -17.9995 -14.5012 -14.4372 -14.3703 -14.2155
   -14.1921 -14.1848 -14.1449 -14.1304 -13.9646 -13.9230 -13.6583 -13.6369
   -13.5630 -13.5593 -13.4730  -8.5041  -8.2852  -8.2089  -8.1960  -8.0662
    -7.9817  -7.8270  -7.8118  -7.7354  -7.7331  -7.7219  -7.5409  -3.3417
    -3.2403  -2.9220  -2.8254  -2.6827  -2.4246  -2.4220  -2.0318  -2.0015
    -1.9273  -1.7660  -1.7410  -1.7316  -1.7224  -1.6339  -1.6240  -1.5015
    -1.3220  -1.2566  -1.1695  -1.1187  -0.8138  -0.7413  -0.7221  -0.6035
    -0.5152  -0.4184  -0.3380  -0.3284  -0.2303  -0.2072  -0.1961  -0.0767
    -0.0605   0.0569   0.1170   0.4657   0.5333   0.5898   0.7781   0.8272
     0.8554   0.9065   0.9461   0.9816   1.1470   1.2021   1.3764   1.4173
     1.4272   1.4341   1.5253   1.6155   1.6592   1.7201   1.7337   1.7765
     1.8238   1.8604   1.8863   1.9222   1.9331   1.9663   2.0692   2.0842
     2.1375   2.1736   2.2965   2.3689   2.3923   2.6187   2.6821   2.6862
     3.2917   3.2967   3.7746   3.8264   3.9537   4.0227   4.4765   6.2892
     6.9446   6.9539   7.0449   7.2544   7.7159   8.0330   8.2698   8.4099
     8.6084   8.8141   8.8381   9.3035   9.3499   9.5096   9.5444   9.7535
     9.8244   9.8578

          k = 0.2500-0.5125 0.0000 ( 35022 PWs)   bands (ev):

   -37.9887 -37.8029 -22.9218 -22.4702 -22.4567 -22.3220 -18.5862 -18.4109
   -18.2891 -18.1751 -18.1176 -17.9585 -14.5433 -14.4325 -14.2692 -14.2268
   -14.1760 -14.1696 -14.1659 -13.9807 -13.9309 -13.8877 -13.7240 -13.6476
   -13.5437 -13.5385 -13.5005  -8.4950  -8.2686  -8.1936  -8.1817  -8.1805
    -8.0018  -7.8939  -7.8813  -7.8131  -7.7975  -7.7316  -7.6675  -3.5050
    -3.4057  -3.1380  -3.0140  -2.8428  -2.6629  -2.6609  -2.0247  -1.9923
    -1.8947  -1.8928  -1.7839  -1.7637  -1.7353  -1.6847  -1.6246  -1.6221
    -1.4312  -1.2680  -1.2011  -1.1240  -0.8708  -0.7663  -0.7603  -0.5810
    -0.5054  -0.4793  -0.4062  -0.3769  -0.3010  -0.2781  -0.2499  -0.1055
    -0.0466   0.0428   0.0949   0.4641   0.5480   0.6167   0.7966   0.8420
     0.8577   0.9345   0.9871   1.0087   1.3019   1.3175   1.4765   1.5049
     1.5159   1.5230   1.5826   1.6246   1.6321   1.7279   1.7493   1.7842
     1.7995   1.8486   1.8512   1.9943   2.0087   2.1084   2.1554   2.2081
     2.2089   2.3078   2.3328   2.6141   2.6248   2.6304   2.8604   2.8648
     3.1325   3.1392   3.8324   3.8873   4.0077   4.0731   4.6443   6.1325
     6.8890   6.9047   6.9963   7.1894   7.9644   8.1284   8.3546   8.4583
     8.7097   9.0656   9.4323   9.4381   9.4527   9.6459   9.7342   9.8089
     9.9319   9.9566

          k = 0.3750 0.0000 0.0000 ( 34996 PWs)   bands (ev):

   -38.0000 -37.8143 -22.9991 -22.5570 -22.5435 -22.4071 -18.5197 -18.3497
   -18.3425 -18.1259 -17.9905 -17.8142 -14.7234 -14.6710 -14.6640 -14.6024
   -14.4434 -14.4235 -14.3255 -14.0679 -13.9199 -13.8939 -13.6629 -13.6481
   -13.6336 -13.6244 -13.3299  -8.4282  -7.9096  -7.8939  -7.8245  -7.7815
    -7.7797  -7.4952  -7.4829  -7.4237  -7.4104  -7.3247  -7.2507  -2.6928
    -2.6427  -2.5386  -2.3158  -1.8520  -1.8456  -1.6535  -1.5829  -1.5154
    -1.5107  -1.5101  -1.3963  -1.3391  -0.8761  -0.8680  -0.8157  -0.8006
    -0.7468  -0.7430  -0.6353  -0.6006  -0.5644  -0.5061  -0.4720  -0.4706
    -0.4301  -0.3954  -0.3230  -0.3166  -0.0865  -0.0649   0.0158   0.0284
     0.0749   0.1556   0.2044   0.2898   0.5051   0.5669   0.5792   0.5883
     0.6094   0.6153   0.6783   0.8385   0.8467   0.8603   0.8645   0.9123
     0.9766   1.0210   1.0317   1.1471   1.2395   1.2651   1.3657   1.4218
     1.5002   1.5908   1.5948   1.5984   1.6743   1.6978   1.7919   1.8085
     1.9373   1.9839   2.0200   2.0428   2.1267   2.1269   2.1933   2.3298
     2.3886   2.4201   2.6424   2.7780   2.7868   3.0441   3.0672   6.6523
     6.6685   6.6790   7.3622   7.4592   7.7648   8.1545   8.1703   8.1786
     8.2440   8.3264   8.6233   8.6632   8.8988   8.9767   9.1162   9.3984
     9.6220   9.7447

          k = 0.3750 0.1281 0.0000 ( 34944 PWs)   bands (ev):

   -37.9977 -37.8120 -22.9838 -22.5400 -22.5265 -22.3903 -18.5124 -18.3424
   -18.3096 -18.0931 -18.0888 -17.9124 -14.6635 -14.6106 -14.5940 -14.5243
   -14.3810 -14.3520 -14.2864 -14.0351 -13.9870 -13.8840 -13.6921 -13.6239
   -13.6173 -13.6167 -13.3372  -8.4123  -8.0565  -7.9104  -7.8954  -7.8146
    -7.7828  -7.7419  -7.7290  -7.5532  -7.4564  -7.4436  -7.2895  -2.8397
    -2.7627  -2.5944  -2.3747  -1.8840  -1.8659  -1.7938  -1.7223  -1.6809
    -1.6169  -1.5284  -1.4129  -1.3135  -1.2898  -1.1750  -1.1219  -1.1076
    -0.8881  -0.8797  -0.8619  -0.8596  -0.7287  -0.6396  -0.6137  -0.5177
    -0.4768  -0.3814  -0.3025  -0.2217  -0.1621   0.0340   0.0633   0.1941
     0.2507   0.2889   0.3538   0.3800   0.4806   0.5378   0.5527   0.5826
     0.5921   0.7199   0.8233   0.8800   0.9026   0.9069   0.9312   1.0138
     1.0189   1.1672   1.2418   1.2634   1.3062   1.3570   1.4601   1.4914
     1.5171   1.5608   1.5786   1.6125   1.7375   1.7461   1.7730   1.8604
     1.9104   1.9557   2.0430   2.0609   2.1076   2.1618   2.1742   2.4429
     2.9982   3.0251   3.1400   3.1463   3.1668   3.3697   3.3923   6.6027
     6.7921   6.7937   7.3611   7.4811   7.6713   7.8330   8.1176   8.1715
     8.2441   8.2732   8.8449   8.9335   8.9890   9.0671   9.0737   9.3665
     9.5169   9.7406

          k = 0.3750 0.2563 0.0000 ( 34989 PWs)   bands (ev):

   -37.9922 -37.8064 -22.9466 -22.4984 -22.4849 -22.3495 -18.4949 -18.3248
   -18.3039 -18.2264 -18.1290 -18.0082 -14.5421 -14.4830 -14.4090 -14.3392
   -14.2435 -14.2329 -14.1539 -14.1367 -13.9548 -13.9188 -13.6896 -13.5836
   -13.5802 -13.5727 -13.3672  -8.4617  -8.3366  -8.1513  -8.1384  -8.0454
    -7.9408  -7.8669  -7.8516  -7.7579  -7.7252  -7.7125  -7.5423  -3.2791
    -3.1679  -2.8257  -2.6030  -2.1529  -2.0698  -2.0383  -1.9649  -1.8633
    -1.8594  -1.8285  -1.7369  -1.6469  -1.6407  -1.6307  -1.6220  -1.4824
    -1.2991  -1.1426  -1.0554  -1.0377  -0.6964  -0.6258  -0.5999  -0.5490
    -0.5185  -0.4123  -0.2912  -0.2822  -0.1129  -0.0782  -0.0718  -0.0446
     0.0391   0.0999   0.1264   0.4971   0.5617   0.6796   0.8215   0.8691
     0.8869   0.9331   1.0309   1.0451   1.0929   1.1959   1.3862   1.4009
     1.4092   1.4385   1.4818   1.5241   1.5645   1.5883   1.6097   1.6515
     1.6979   1.7552   1.7961   1.8236   1.8297   1.9442   1.9680   2.0274
     2.0447   2.0927   2.1540   2.1653   2.1715   2.2120   2.4221   2.4649
     3.3638   3.3697   3.8828   3.9283   3.9484   4.0476   4.1094   6.1815
     6.7669   6.7706   7.0129   7.2390   7.7196   7.9227   8.1496   8.3382
     8.4861   8.5092   9.0315   9.2556   9.2687   9.3560   9.4026   9.5759
     9.6433   9.6764

          k = 0.3750 0.3844 0.0000 ( 35061 PWs)   bands (ev):

   -37.9867 -37.8009 -22.9088 -22.4560 -22.4425 -22.3078 -18.4986 -18.4744
   -18.3238 -18.3037 -18.1371 -17.9191 -14.4295 -14.3447 -14.3182 -14.2359
   -14.1838 -14.1413 -14.1401 -14.0516 -13.8818 -13.8248 -13.6221 -13.5827
   -13.5504 -13.5465 -13.3937  -8.7133  -8.4178  -8.4047  -8.3605  -8.3098
    -8.1915  -8.0540  -8.0416  -7.8555  -7.8393  -7.8373  -7.7540  -3.7316
    -3.6153  -3.1882  -2.9664  -2.8217  -2.3984  -2.3943  -2.1675  -2.1413
    -2.1347  -2.0519  -2.0126  -1.9253  -1.7500  -1.7462  -1.6348  -1.6267
    -1.4774  -1.1627  -0.9910  -0.9009  -0.7847  -0.7652  -0.7242  -0.6199
    -0.6068  -0.4524  -0.3745  -0.3393  -0.2810  -0.2736  -0.2477  -0.2125
    -0.0198   0.1467   0.1501   0.4907   0.6671   0.7275   0.9485   1.0349
     1.1331   1.2377   1.2630   1.3050   1.4487   1.5563   1.5665   1.5687
     1.6188   1.6494   1.7409   1.7630   1.7854   1.8126   1.8523   1.8643
     1.8869   1.9504   2.0363   2.0669   2.0867   2.1075   2.1228   2.1324
     2.1558   2.2700   2.3573   2.3951   2.4235   2.6036   2.6075   2.6774
     3.2810   3.2906   4.4099   4.4646   4.4906   4.5378   4.6060   5.6368
     6.4018   6.4053   6.7087   6.9529   7.9116   8.0897   8.3494   8.5524
     8.8057   9.0677   9.1010   9.1047   9.1906   9.4381   9.5538   9.7119
     9.8454   9.8754

          k = 0.3750-0.5125 0.0000 ( 35078 PWs)   bands (ev):

   -37.9844 -37.7986 -22.8929 -22.4382 -22.4247 -22.2903 -18.5706 -18.4692
   -18.3953 -18.2989 -18.0980 -17.8799 -14.4308 -14.3345 -14.2928 -14.2087
   -14.1816 -14.1341 -13.9903 -13.9736 -13.8571 -13.7543 -13.6552 -13.5839
   -13.5400 -13.5349 -13.3867  -8.7941  -8.4985  -8.4968  -8.4836  -8.2965
    -8.2880  -8.2092  -8.1970  -7.9648  -7.8504  -7.8338  -7.7489  -3.9127
    -3.7971  -3.3555  -3.1340  -3.0683  -2.6368  -2.6325  -2.2746  -2.1841
    -2.1601  -2.1545  -2.0640  -1.9360  -1.7456  -1.7414  -1.6794  -1.6294
    -1.5341  -1.1963  -1.0035  -0.9302  -0.8441  -0.7458  -0.6781  -0.6774
    -0.6750  -0.4835  -0.4584  -0.3997  -0.3620  -0.3389  -0.2910  -0.2239
    -0.0049   0.1786   0.1822   0.4989   0.7081   0.7410   0.9638   1.0762
     1.2443   1.3092   1.3739   1.4300   1.5709   1.6054   1.6546   1.6645
     1.7022   1.7760   1.8261   1.8757   1.8766   1.9115   1.9325   1.9738
     1.9968   2.0337   2.0580   2.0654   2.0699   2.1629   2.1690   2.2628
     2.3065   2.3423   2.5253   2.6444   2.6492   2.6878   2.7996   2.8040
     3.1080   3.1212   4.5473   4.6272   4.6629   4.7008   4.7658   5.4111
     6.2041   6.2080   6.6015   6.8661   7.9375   8.1492   8.4065   8.6368
     8.8285   9.0247   9.1422   9.2660   9.4416   9.4969   9.5830   9.6514
     9.7269   9.8450

          k =-0.5000 0.0000 0.0000 ( 34974 PWs)   bands (ev):

   -37.9982 -37.8124 -22.9827 -22.5375 -22.5240 -22.3883 -18.5918 -18.4222
   -18.3041 -18.0868 -17.9879 -17.8116 -14.7684 -14.6965 -14.6682 -14.5308
   -14.4818 -14.3821 -14.3624 -14.0927 -13.9084 -13.8818 -13.6975 -13.6523
   -13.6295 -13.6280 -13.3469  -8.4284  -7.9089  -7.8930  -7.8005  -7.7853
    -7.7492  -7.4725  -7.4603  -7.3854  -7.3721  -7.3137  -7.2150  -2.8164
    -2.7671  -2.6535  -2.4407  -1.8788  -1.8728  -1.6512  -1.5495  -1.5412
    -1.4591  -1.4268  -1.2947  -1.1536  -1.0927  -0.9986  -0.9266  -0.9129
    -0.7632  -0.7301  -0.6751  -0.6441  -0.6413  -0.5665  -0.5638  -0.5500
    -0.5418  -0.4778  -0.3172  -0.3161  -0.3108  -0.1229  -0.0782  -0.0186
     0.0120   0.0896   0.1991   0.2420   0.5633   0.5742   0.5945   0.5992
     0.6038   0.6097   0.7076   0.8533   0.8616   0.9006   0.9143   0.9345
     0.9358   0.9406   0.9608   1.1539   1.3060   1.3805   1.4160   1.4499
     1.5451   1.5790   1.6072   1.6225   1.6911   1.7085   1.7271   1.7506
     1.9869   1.9909   2.0411   2.0497   2.1585   2.2260   2.3073   2.3448
     2.3720   2.4042   2.6457   2.7521   2.7705   3.0480   3.0804   6.8789
     7.4104   7.4349   7.4771   7.5224   7.5251   7.6905   8.0106   8.1608
     8.3077   8.5064   8.8002   8.8961   9.0042   9.3488   9.3581   9.5151
     9.5646   9.8417

          k =-0.5000 0.1281 0.0000 ( 34968 PWs)   bands (ev):

   -37.9959 -37.8102 -22.9681 -22.5213 -22.5078 -22.3724 -18.5841 -18.4144
   -18.2718 -18.0855 -18.0546 -17.9090 -14.7169 -14.6428 -14.6001 -14.4407
   -14.4149 -14.3473 -14.2600 -14.0604 -13.9750 -13.8510 -13.7038 -13.6610
   -13.6117 -13.6096 -13.3471  -8.4104  -7.9452  -7.9096  -7.9046  -7.8893
    -7.7970  -7.6076  -7.5968  -7.5955  -7.5834  -7.4375  -7.4190  -2.9687
    -2.8932  -2.7175  -2.5059  -1.8983  -1.8847  -1.7844  -1.7012  -1.6503
    -1.4524  -1.4216  -1.4005  -1.3726  -1.3361  -1.3198  -1.2846  -1.2665
    -1.0192  -0.9013  -0.8710  -0.8661  -0.7487  -0.6195  -0.5265  -0.5217
    -0.4848  -0.4755  -0.4107  -0.2757  -0.1825  -0.0171   0.0121   0.1790
     0.2139   0.2320   0.3035   0.3056   0.4289   0.5511   0.5759   0.5897
     0.6016   0.7741   0.8279   0.8779   0.9004   0.9022   1.0168   1.0969
     1.1023   1.1911   1.2313   1.2384   1.2437   1.4062   1.4970   1.5314
     1.5416   1.5614   1.5814   1.6431   1.7020   1.7205   1.7217   1.8766
     1.9921   1.9972   2.0561   2.0766   2.1450   2.1829   2.2980   2.4322
     3.0191   3.0408   3.1354   3.1462   3.1615   3.3911   3.4048   6.6620
     7.2410   7.2519   7.3411   7.6508   7.7991   7.8042   7.8712   8.0286
     8.1179   8.2813   9.1365   9.2134   9.2436   9.3726   9.4741   9.5337
     9.6337   9.7617

          k =-0.5000 0.2563 0.0000 ( 34990 PWs)   bands (ev):

   -37.9904 -37.8046 -22.9324 -22.4819 -22.4684 -22.3334 -18.5653 -18.3956
   -18.2995 -18.1902 -18.1243 -17.9716 -14.5889 -14.5024 -14.4122 -14.3311
   -14.2617 -14.1598 -14.1352 -14.1029 -13.9825 -13.7754 -13.7617 -13.5784
   -13.5736 -13.5697 -13.3587  -8.4039  -8.3387  -8.2045  -8.0735  -8.0601
    -7.9189  -7.9067  -7.8930  -7.8728  -7.8577  -7.7546  -7.7212  -3.4208
    -3.3094  -2.9616  -2.7442  -2.1423  -2.0848  -2.0501  -1.9554  -1.8914
    -1.8691  -1.8530  -1.8166  -1.7720  -1.6459  -1.6427  -1.6275  -1.5659
    -1.3775  -1.1014  -1.0647  -1.0063  -0.6676  -0.6163  -0.5862  -0.4811
    -0.4811  -0.4789  -0.3716  -0.2935  -0.1288  -0.0983  -0.0944  -0.0537
     0.0376   0.0896   0.0959   0.4991   0.5744   0.7679   0.8538   0.8922
     0.9553   0.9956   1.0871   1.1043   1.1199   1.3541   1.3967   1.4366
     1.5161   1.5245   1.5325   1.5799   1.6318   1.6481   1.6559   1.6638
     1.7055   1.7107   1.7316   1.7459   1.8965   1.9019   2.0745   2.1000
     2.1220   2.1304   2.1401   2.1721   2.2173   2.2651   2.2802   2.4038
     3.3600   3.3665   3.9438   4.0035   4.0390   4.1393   4.1997   6.0091
     6.7249   6.7300   6.9271   7.1596   7.9425   8.0536   8.2312   8.4197
     8.5821   8.5857   9.1227   9.1768   9.4307   9.5149   9.5658   9.6150
     9.6713   9.7443

          k =-0.5000 0.3844 0.0000 ( 35110 PWs)   bands (ev):

   -37.9849 -37.7991 -22.8961 -22.4417 -22.4282 -22.2937 -18.5466 -18.4904
   -18.3767 -18.3150 -18.1026 -17.8841 -14.4559 -14.3399 -14.3091 -14.2140
   -14.1748 -14.1564 -14.1449 -13.9188 -13.9089 -13.7000 -13.6358 -13.5583
   -13.5456 -13.5409 -13.3594  -8.7688  -8.4958  -8.4671  -8.4538  -8.3169
    -8.2649  -8.2127  -8.2005  -7.9845  -7.8686  -7.8524  -7.7580  -3.8920
    -3.7731  -3.3290  -3.1079  -2.8106  -2.3871  -2.3826  -2.2772  -2.2013
    -2.1777  -2.1540  -2.0812  -1.9633  -1.7491  -1.7457  -1.6672  -1.6270
    -1.5202  -1.1589  -0.9018  -0.8383  -0.8162  -0.7891  -0.7653  -0.5799
    -0.5765  -0.5203  -0.3840  -0.3759  -0.3163  -0.3148  -0.2554  -0.2089
    -0.0162   0.1990   0.2005   0.4923   0.6930   0.8364   0.9928   1.1237
     1.2934   1.3614   1.4406   1.4984   1.5573   1.5901   1.6205   1.6234
     1.6620   1.7188   1.7643   1.8134   1.8296   1.9098   1.9123   1.9761
     1.9833   2.0202   2.0211   2.0449   2.1049   2.1481   2.1525   2.1789
     2.2147   2.3274   2.4073   2.4240   2.5434   2.5663   2.5697   2.6016
     3.2775   3.2887   4.4253   4.6654   4.7138   4.7415   4.8062   5.3809
     6.1631   6.1681   6.5862   6.8470   8.0179   8.0297   8.4377   8.6358
     8.8464   8.9738   9.0630   9.0680   9.3909   9.5481   9.5709   9.6586
     9.7256   9.7852

          k =-0.5000-0.5125 0.0000 ( 35092 PWs)   bands (ev):

   -37.9826 -37.7968 -22.8809 -22.4248 -22.4113 -22.2770 -18.5642 -18.5388
   -18.3889 -18.3689 -18.0644 -17.8457 -14.4001 -14.3810 -14.2617 -14.2119
   -14.1446 -14.1396 -13.9868 -13.8833 -13.8260 -13.6708 -13.6262 -13.5571
   -13.5377 -13.5331 -13.3357  -8.9180  -8.6192  -8.6164  -8.6059  -8.4165
    -8.3302  -8.3180  -8.2948  -8.0876  -7.8663  -7.8489  -7.7539  -4.0815
    -3.9623  -3.4973  -3.2755  -3.0598  -2.6250  -2.6203  -2.4083  -2.2917
    -2.2292  -2.2067  -2.1042  -1.9852  -1.7373  -1.7337  -1.7022  -1.6218
    -1.5648  -1.1916  -0.9168  -0.8787  -0.8512  -0.8147  -0.7512  -0.6342
    -0.6246  -0.5500  -0.4738  -0.4023  -0.3982  -0.3777  -0.3623  -0.1713
    -0.0159   0.2411   0.2436   0.5027   0.7386   0.8557   1.0134   1.1983
     1.4838   1.5190   1.5929   1.6257   1.6432   1.6731   1.6736   1.6923
     1.6989   1.7424   1.7860   1.9013   1.9558   1.9931   2.0354   2.0400
     2.0899   2.1422   2.1454   2.1667   2.1699   2.1787   2.2493   2.2981
     2.3612   2.3855   2.6641   2.6691   2.6745   2.7723   2.7766   2.7817
     3.1003   3.1161   4.5457   4.8819   4.9377   4.9678   5.0253   5.1290
     5.9135   5.9185   6.4659   6.7529   7.9323   8.0587   8.5153   8.7069
     8.7130   8.8603   9.0500   9.3128   9.3391   9.4222   9.4236   9.4827
     9.6320   9.6882

     the Fermi energy is     3.0747 ev

!    total energy              =   -1868.81501702 Ry
     Harris-Foulkes estimate   =   -1868.81501757 Ry
     estimated scf accuracy    <       0.00000057 Ry

     The total energy is the sum of the following terms:

     one-electron contribution =  -30545.94217982 Ry
     hartree contribution      =   15428.09299751 Ry
     xc contribution           =    -642.24024730 Ry
     ewald contribution        =   13891.28289608 Ry
     smearing contrib. (-TS)   =      -0.00848350 Ry

     convergence has been achieved in  39 iterations

     negative rho (up, down):  9.057E-02 0.000E+00

     Forces acting on atoms (cartesian axes, Ry/au):

     atom    1 type  3   force =     0.00000000    0.00000000    0.00001886
     atom    2 type  2   force =     0.00000000    0.00000000   -0.00079007
     atom    3 type  3   force =     0.00000000    0.00000000   -0.00010005
     atom    4 type  1   force =     0.00000000    0.00000000   -0.00007752
     atom    5 type  2   force =     0.00000000    0.00000000   -0.00092780
     atom    6 type  3   force =     0.00000000    0.00000000    0.00010741
     atom    7 type  3   force =     0.00000000    0.00000000    0.00001405
     atom    8 type  4   force =     0.00000000    0.00000000   -0.00016730
     atom    9 type  3   force =     0.00000000    0.00000000    0.00029761
     atom   10 type  3   force =     0.00000000    0.00000000    0.00053778
     atom   11 type  2   force =     0.00000000    0.00000000   -0.00078865
     atom   12 type  1   force =     0.00000000    0.00000000   -0.00202551
     atom   13 type  3   force =     0.00000000    0.00000000    0.00145401
     atom   14 type  3   force =     0.00000000    0.00000000    0.00758358
     atom   15 type  2   force =     0.00000000    0.00000000   -0.00274710
     atom   16 type  3   force =     0.00000000    0.00000000    0.00789525
     atom   17 type  1   force =     0.00000000    0.00000000    0.00612955
     atom   18 type  2   force =     0.00000000    0.00000000    0.00717620
     atom   19 type  3   force =     0.00000000    0.00000000   -0.00016034
     atom   20 type  3   force =     0.00000000    0.00000000   -0.00272402
     atom   21 type  4   force =     0.00000000    0.00000000   -0.02811838
     atom   22 type  3   force =     0.00000000    0.00000000    0.00187321
     atom   23 type  3   force =     0.00000000    0.00000000    0.00268941
     atom   24 type  2   force =     0.00000000    0.00000000    0.00175622
     atom   25 type  1   force =     0.00000000    0.00000000   -0.00081245
     atom   26 type  3   force =     0.00000000    0.00000000    0.00121369
     atom   27 type  2   force =     0.00000000    0.00000000    0.00020501
     atom   28 type  3   force =     0.00000000    0.00000000    0.00048734

     Total force =     0.032242     Total SCF correction =     0.003329
     SCF correction compared to forces is large: reduce conv_thr to get better values


     Computing stress (Cartesian axis) and pressure


     negative rho (up, down):  9.057E-02 0.000E+00
          total   stress  (Ry/bohr**3)                   (kbar)     P=       -5.35
  -0.00004694   0.00000000   0.00000000           -6.90        0.00        0.00
   0.00000000  -0.00002693   0.00000000            0.00       -3.96        0.00
   0.00000000   0.00000000  -0.00003524            0.00        0.00       -5.18

 
     init_run     :      9.77s CPU     10.03s WALL (       1 calls)
     electrons    :    652.72s CPU    674.96s WALL (       1 calls)
     forces       :      3.80s CPU      3.98s WALL (       1 calls)
     stress       :     19.04s CPU     19.50s WALL (       1 calls)

     Called by init_run:
     wfcinit      :      6.84s CPU      6.93s WALL (       1 calls)
     potinit      :      0.63s CPU      0.64s WALL (       1 calls)
     hinit0       :      1.21s CPU      1.23s WALL (       1 calls)

     Called by electrons:
     c_bands      :    506.44s CPU    517.64s WALL (      39 calls)
     sum_band     :     97.36s CPU    103.35s WALL (      39 calls)
     v_of_rho     :      3.00s CPU      3.04s WALL (      40 calls)
     newd         :     28.26s CPU     33.19s WALL (      40 calls)
     mix_rho      :     18.15s CPU     18.32s WALL (      39 calls)

     Called by c_bands:
     init_us_2    :      3.78s CPU      3.81s WALL (    2025 calls)
     cegterg      :    475.50s CPU    486.10s WALL (     975 calls)

     Called by sum_band:
     sum_band:bec :      0.27s CPU      0.27s WALL (     975 calls)
     addusdens    :     24.78s CPU     29.96s WALL (      39 calls)

     Called by *egterg:
     h_psi        :    231.57s CPU    239.13s WALL (    3982 calls)
     s_psi        :     22.46s CPU     22.69s WALL (    3982 calls)
     g_psi        :      0.70s CPU      0.71s WALL (    2982 calls)
     cdiaghg      :    116.52s CPU    116.98s WALL (    3957 calls)

     Called by h_psi:
     h_psi:calbec :     27.79s CPU     28.93s WALL (    3982 calls)
     vloc_psi     :    179.24s CPU    182.04s WALL (    3982 calls)
     add_vuspsi   :     23.55s CPU     25.35s WALL (    3982 calls)

     General routines
     calbec       :     44.25s CPU     45.45s WALL (    5082 calls)
     fft          :      2.85s CPU      2.87s WALL (     543 calls)
     ffts         :      9.32s CPU      9.40s WALL (   16439 calls)
     fftw         :    207.06s CPU    210.22s WALL (  695778 calls)
     interpolate  :      0.18s CPU      0.18s WALL (      40 calls)
 
     Parallel routines
     fft_scatt_xy :     25.56s CPU     25.94s WALL (  712760 calls)
     fft_scatt_yz :    129.44s CPU    131.45s WALL (  712760 calls)
 
     PWSCF        :  11m26.41s CPU  11m49.62s WALL

 
   This run was terminated on:  17:20:49   5May2021            

=------------------------------------------------------------------------------=
   JOB DONE.
=------------------------------------------------------------------------------=
[1620249649.114806] [holy7c06109:270324:0]          mpool.c:43   UCX  WARN  object 0x372db00 was not returned to mpool ucp_requests
[1620249649.122785] [holy7c04404:121434:0]          mpool.c:43   UCX  WARN  object 0x4239b80 was not returned to mpool ucp_requests
[1620249649.122800] [holy7c04404:121434:0]          mpool.c:43   UCX  WARN  object 0x423a0c0 was not returned to mpool ucp_requests
[1620249649.123056] [holy7c04409:151379:0]          mpool.c:43   UCX  WARN  object 0x2900740 was not returned to mpool ucp_requests
[1620249649.123071] [holy7c04409:151379:0]          mpool.c:43   UCX  WARN  object 0x2900ac0 was not returned to mpool ucp_requests
[1620249649.122447] [holy7c06108:84377:0]          mpool.c:43   UCX  WARN  object 0x3556040 was not returned to mpool ucp_requests
[1620249649.123840] [holy7c04505:259684:0]          mpool.c:43   UCX  WARN  object 0x392fb80 was not returned to mpool ucp_requests
[1620249649.123244] [holy7c06102:27041:0]          mpool.c:43   UCX  WARN  object 0x3d4e9c0 was not returned to mpool ucp_requests
[1620249649.123260] [holy7c06102:27041:0]          mpool.c:43   UCX  WARN  object 0x3d4eb80 was not returned to mpool ucp_requests
[1620249649.125744] [holy7c04405:249910:0]          mpool.c:43   UCX  WARN  object 0x40ee5c0 was not returned to mpool ucp_requests
