
     Program PWSCF v.6.5 starts on  5May2021 at 17:15: 8 

     This program is part of the open-source Quantum ESPRESSO suite
     for quantum simulation of materials; please cite
         "P. Giannozzi et al., J. Phys.:Condens. Matter 21 395502 (2009);
         "P. Giannozzi et al., J. Phys.:Condens. Matter 29 465901 (2017);
          URL http://www.quantum-espresso.org", 
     in publications or presentations arising from this work. More details at
     http://www.quantum-espresso.org/quote

     Parallel version (MPI), running on    20 processors

     MPI processes distributed on    16 nodes
     R & G space division:  proc/nbgrp/npool/nimage =      20
     Reading input from YBCO_CuO_cleave_1.5_sep_scf.pwi
Warning: card &IONS ignored
Warning: card     ION_DYNAMICS = 'BFGS' ignored
Warning: card / ignored
Warning: card &CELL ignored
Warning: card     CELL_DYNAMICS = 'BFGS' ignored
Warning: card / ignored

     Current dimensions of program PWSCF are:
     Max number of different atomic species (ntypx) = 10
     Max number of k-points (npk) =  40000
     Max angular momentum in pseudopotentials (lmaxx) =  3

     Subspace diagonalization in iterative solution of the eigenvalue problem:
     one sub-group per band group will be used
     scalapack distributed-memory algorithm (size of sub-group:  4*  4 procs)

     Message from routine setup:
     using ibrav=0 with symmetry is DISCOURAGED, use correct ibrav instead
 
     Parallelization info
     --------------------
     sticks:   dense  smooth     PW     G-vecs:    dense   smooth      PW
     Min         150      50     14                73488    14136    2204
     Max         151      51     15                73529    14159    2251
     Sum        3015    1011    293              1470165   282891   44571
 


     bravais-lattice index     =            0
     lattice parameter (alat)  =       7.3477  a.u.
     unit-cell volume          =    4506.0642 (a.u.)^3
     number of atoms/cell      =           28
     number of atomic types    =            4
     number of electrons       =       229.00
     number of Kohn-Sham states=          138
     kinetic-energy cutoff     =      60.0000  Ry
     charge density cutoff     =     720.0000  Ry
     convergence threshold     =      1.0E-06
     mixing beta               =       0.2000
     number of iterations used =           10  local-TF  mixing
     Exchange-correlation= SLA PW PBE PBE
                           (   1   4   3   4   0   0   0)

     celldm(1)=   7.347715  celldm(2)=   0.000000  celldm(3)=   0.000000
     celldm(4)=   0.000000  celldm(5)=   0.000000  celldm(6)=   0.000000

     crystal axes: (cart. coord. in units of alat)
               a(1) = (   1.000000   0.000000   0.000000 )  
               a(2) = (   0.000000   0.975577   0.000000 )  
               a(3) = (   0.000000   0.000000  11.643372 )  

     reciprocal axes: (cart. coord. in units 2 pi/alat)
               b(1) = (  1.000000  0.000000  0.000000 )  
               b(2) = (  0.000000  1.025034  0.000000 )  
               b(3) = (  0.000000  0.000000  0.085886 )  


     PseudoPot. # 1 for Ba read from file:
     /n/holyscratch01/hoffman_lab/ruizhe/YBCO_Project/pseudo/Ba.pbe-nsp-van.UPF
     MD5 check sum: 2b9c31dd849566dd297d80989662b7a0
     Pseudo is Ultrasoft + core correction, Zval = 10.0
     Generated by new atomic code, or converted to UPF format
     Using radial grid of  907 points,  6 beta functions with: 
                l(1) =   0
                l(2) =   0
                l(3) =   1
                l(4) =   1
                l(5) =   2
                l(6) =   2
     Q(r) pseudized with  6 coefficients,  rinner =    1.200   1.200   1.200
                                                       1.200   1.200

     PseudoPot. # 2 for Cu read from file:
     /n/holyscratch01/hoffman_lab/ruizhe/YBCO_Project/pseudo/Cu.pbe-n-van_ak.UPF
     MD5 check sum: 34e3282627ffb533726feb647e090d62
     Pseudo is Ultrasoft + core correction, Zval = 11.0
     Generated by new atomic code, or converted to UPF format
     Using radial grid of  867 points,  6 beta functions with: 
                l(1) =   0
                l(2) =   0
                l(3) =   1
                l(4) =   1
                l(5) =   2
                l(6) =   2
     Q(r) pseudized with  8 coefficients,  rinner =    1.400   1.400   1.400
                                                       1.400   1.400

     PseudoPot. # 3 for O  read from file:
     /n/holyscratch01/hoffman_lab/ruizhe/YBCO_Project/pseudo/O.pbe-van_ak.UPF
     MD5 check sum: 783ce7fe4c79b6a4916957118fed0856
     Pseudo is Ultrasoft, Zval =  6.0
     Generated by new atomic code, or converted to UPF format
     Using radial grid of  737 points,  4 beta functions with: 
                l(1) =   0
                l(2) =   0
                l(3) =   1
                l(4) =   1
     Q(r) pseudized with  8 coefficients,  rinner =    0.800   0.800   0.800


     PseudoPot. # 4 for Y  read from file:
     /n/holyscratch01/hoffman_lab/ruizhe/YBCO_Project/pseudo/Y.pbe-nsp-van.UPF
     MD5 check sum: 4412fed3ab108fed87a1b7d6a69a4a38
     Pseudo is Ultrasoft + core correction, Zval = 11.0
     Generated by new atomic code, or converted to UPF format
     Using radial grid of  885 points,  6 beta functions with: 
                l(1) =   0
                l(2) =   0
                l(3) =   1
                l(4) =   1
                l(5) =   2
                l(6) =   2
     Q(r) pseudized with  6 coefficients,  rinner =    1.200   1.200   1.200
                                                       1.200   1.200

     atomic species   valence    mass     pseudopotential
        Ba            10.00   137.32700     Ba( 1.00)
        Cu            11.00    63.54600     Cu( 1.00)
        O              6.00    15.99900     O ( 1.00)
        Y             11.00    88.90584     Y ( 1.00)

      4 Sym. Ops. (no inversion) found



   Cartesian axes

     site n.     atom                  positions (alat units)
         1           O   tau(   1) = (   0.0000000   0.4877884  -0.0257983  )
         2           Cu  tau(   2) = (   0.0000000   0.0000000   0.0215779  )
         3           O   tau(   3) = (   0.0000000   0.0000000   0.5073114  )
         4           Ba  tau(   4) = (   0.4999996   0.4877884   0.5319677  )
         5           Cu  tau(   5) = (   0.0000000   0.0000000   1.0495845  )
         6           O   tau(   6) = (   0.4999996   0.0000000   1.1181579  )
         7           O   tau(   7) = (   0.0000000   0.4877884   1.1273137  )
         8           Y   tau(   8) = (   0.4999996   0.4877884   1.4938777  )
         9           O   tau(   9) = (   0.0000000   0.4877884   1.8497402  )
        10           O   tau(  10) = (   0.4999996   0.0000000   1.8692709  )
        11           Cu  tau(  11) = (   0.0000000   0.0000000   1.9417560  )
        12           Ba  tau(  12) = (   0.4999996   0.4877884   2.4526063  )
        13           O   tau(  13) = (   0.0000000   0.0000000   2.5103470  )
        14           O   tau(  14) = (   0.0000000   0.4877884   2.9968469  )
        15           Cu  tau(  15) = (   0.0000000   0.0000000   2.9968521  )
        16           O   tau(  16) = (   0.0000000   0.0000000   3.8691071  )
        17           Ba  tau(  17) = (   0.4999996   0.4877884   3.9268401  )
        18           Cu  tau(  18) = (   0.0000000   0.0000000   4.4377135  )
        19           O   tau(  19) = (   0.4999996   0.0000000   4.5101858  )
        20           O   tau(  20) = (   0.0000000   0.4877884   4.5296985  )
        21           Y   tau(  21) = (   0.4999996   0.4877884   4.8855636  )
        22           O   tau(  22) = (   0.0000000   0.4877884   5.2521276  )
        23           O   tau(  23) = (   0.4999996   0.0000000   5.2612962  )
        24           Cu  tau(  24) = (   0.0000000   0.0000000   5.3298748  )
        25           Ba  tau(  25) = (   0.4999996   0.4877884   5.8474761  )
        26           O   tau(  26) = (   0.0000000   0.0000000   5.8721325  )
        27           Cu  tau(  27) = (   0.0000000   0.0000000   6.3578377  )
        28           O   tau(  28) = (   0.0000000   0.4877884   6.4052190  )

     number of k points=    25  Gaussian smearing, width (Ry)=  0.0100
                       cart. coord. in units 2pi/alat
        k(    1) = (   0.0000000   0.0000000   0.0000000), wk =   0.0312500
        k(    2) = (   0.0000000   0.1281293   0.0000000), wk =   0.0625000
        k(    3) = (   0.0000000   0.2562585   0.0000000), wk =   0.0625000
        k(    4) = (   0.0000000   0.3843878   0.0000000), wk =   0.0625000
        k(    5) = (   0.0000000  -0.5125170   0.0000000), wk =   0.0312500
        k(    6) = (   0.1250000   0.0000000   0.0000000), wk =   0.0625000
        k(    7) = (   0.1250000   0.1281293   0.0000000), wk =   0.1250000
        k(    8) = (   0.1250000   0.2562585   0.0000000), wk =   0.1250000
        k(    9) = (   0.1250000   0.3843878   0.0000000), wk =   0.1250000
        k(   10) = (   0.1250000  -0.5125170   0.0000000), wk =   0.0625000
        k(   11) = (   0.2500000   0.0000000   0.0000000), wk =   0.0625000
        k(   12) = (   0.2500000   0.1281293   0.0000000), wk =   0.1250000
        k(   13) = (   0.2500000   0.2562585   0.0000000), wk =   0.1250000
        k(   14) = (   0.2500000   0.3843878   0.0000000), wk =   0.1250000
        k(   15) = (   0.2500000  -0.5125170   0.0000000), wk =   0.0625000
        k(   16) = (   0.3750000   0.0000000   0.0000000), wk =   0.0625000
        k(   17) = (   0.3750000   0.1281293   0.0000000), wk =   0.1250000
        k(   18) = (   0.3750000   0.2562585   0.0000000), wk =   0.1250000
        k(   19) = (   0.3750000   0.3843878   0.0000000), wk =   0.1250000
        k(   20) = (   0.3750000  -0.5125170   0.0000000), wk =   0.0625000
        k(   21) = (  -0.5000000   0.0000000   0.0000000), wk =   0.0312500
        k(   22) = (  -0.5000000   0.1281293   0.0000000), wk =   0.0625000
        k(   23) = (  -0.5000000   0.2562585   0.0000000), wk =   0.0625000
        k(   24) = (  -0.5000000   0.3843878   0.0000000), wk =   0.0625000
        k(   25) = (  -0.5000000  -0.5125170   0.0000000), wk =   0.0312500

     Dense  grid:  1470165 G-vectors     FFT dimensions: (  64,  64, 750)

     Smooth grid:   282891 G-vectors     FFT dimensions: (  40,  36, 432)

     Estimated max dynamical RAM per process >     469.69 MB

     Estimated total dynamical RAM >       9.17 GB

     Initial potential from superposition of free atoms

     starting charge  228.84827, renormalised to  229.00000

     negative rho (up, down):  8.944E-02 0.000E+00
     Starting wfcs are  201 randomized atomic wfcs

     total cpu time spent up to now is       11.9 secs

     Self-consistent Calculation

     iteration #  1     ecut=    60.00 Ry     beta= 0.20
     Davidson diagonalization with overlap
     ethr =  1.00E-02,  avg # of iterations =  2.0

     negative rho (up, down):  8.726E-02 0.000E+00

     total cpu time spent up to now is       30.9 secs

     total energy              =   -1869.49498048 Ry
     Harris-Foulkes estimate   =   -1871.06438210 Ry
     estimated scf accuracy    <      13.12720727 Ry

     iteration #  2     ecut=    60.00 Ry     beta= 0.20
     Davidson diagonalization with overlap
     ethr =  5.73E-03,  avg # of iterations =  1.0

     negative rho (up, down):  8.598E-02 0.000E+00

     total cpu time spent up to now is       47.6 secs

     total energy              =   -1868.83812101 Ry
     Harris-Foulkes estimate   =   -1869.84151378 Ry
     estimated scf accuracy    <       5.70254953 Ry

     iteration #  3     ecut=    60.00 Ry     beta= 0.20
     Davidson diagonalization with overlap
     ethr =  2.49E-03,  avg # of iterations =  1.0

     negative rho (up, down):  8.559E-02 0.000E+00

     total cpu time spent up to now is       64.5 secs

     total energy              =   -1868.71706831 Ry
     Harris-Foulkes estimate   =   -1869.12325756 Ry
     estimated scf accuracy    <       4.45947601 Ry

     iteration #  4     ecut=    60.00 Ry     beta= 0.20
     Davidson diagonalization with overlap
     ethr =  1.95E-03,  avg # of iterations =  1.3

     negative rho (up, down):  8.582E-02 0.000E+00

     total cpu time spent up to now is       82.1 secs

     total energy              =   -1868.82838223 Ry
     Harris-Foulkes estimate   =   -1868.90584664 Ry
     estimated scf accuracy    <       2.39635716 Ry

     iteration #  5     ecut=    60.00 Ry     beta= 0.20
     Davidson diagonalization with overlap
     ethr =  1.05E-03,  avg # of iterations =  1.0

     negative rho (up, down):  8.658E-02 0.000E+00

     total cpu time spent up to now is       99.2 secs

     total energy              =   -1868.78111633 Ry
     Harris-Foulkes estimate   =   -1868.86631658 Ry
     estimated scf accuracy    <       1.17801621 Ry

     iteration #  6     ecut=    60.00 Ry     beta= 0.20
     Davidson diagonalization with overlap
     ethr =  5.14E-04,  avg # of iterations =  1.0

     negative rho (up, down):  8.711E-02 0.000E+00

     total cpu time spent up to now is      116.5 secs

     total energy              =   -1868.77199014 Ry
     Harris-Foulkes estimate   =   -1868.80703475 Ry
     estimated scf accuracy    <       0.34493058 Ry

     iteration #  7     ecut=    60.00 Ry     beta= 0.20
     Davidson diagonalization with overlap
     ethr =  1.51E-04,  avg # of iterations =  5.5

     negative rho (up, down):  8.862E-02 0.000E+00

     total cpu time spent up to now is      140.6 secs

     total energy              =   -1868.73871464 Ry
     Harris-Foulkes estimate   =   -1868.78193507 Ry
     estimated scf accuracy    <       0.19844592 Ry

     iteration #  8     ecut=    60.00 Ry     beta= 0.20
     Davidson diagonalization with overlap
     ethr =  8.67E-05,  avg # of iterations =  5.9

     negative rho (up, down):  8.897E-02 0.000E+00

     total cpu time spent up to now is      166.5 secs

     total energy              =   -1868.75991443 Ry
     Harris-Foulkes estimate   =   -1868.77050736 Ry
     estimated scf accuracy    <       0.55369682 Ry

     iteration #  9     ecut=    60.00 Ry     beta= 0.20
     Davidson diagonalization with overlap
     ethr =  8.67E-05,  avg # of iterations =  1.0

     negative rho (up, down):  8.916E-02 0.000E+00

     total cpu time spent up to now is      183.2 secs

     total energy              =   -1868.76000876 Ry
     Harris-Foulkes estimate   =   -1868.76291650 Ry
     estimated scf accuracy    <       0.34256996 Ry

     iteration # 10     ecut=    60.00 Ry     beta= 0.20
     Davidson diagonalization with overlap
     ethr =  8.67E-05,  avg # of iterations =  1.0

     negative rho (up, down):  8.995E-02 0.000E+00

     total cpu time spent up to now is      200.2 secs

     total energy              =   -1868.74925677 Ry
     Harris-Foulkes estimate   =   -1868.76058397 Ry
     estimated scf accuracy    <       0.26563773 Ry

     iteration # 11     ecut=    60.00 Ry     beta= 0.20
     Davidson diagonalization with overlap
     ethr =  8.67E-05,  avg # of iterations =  1.0

     negative rho (up, down):  8.999E-02 0.000E+00

     total cpu time spent up to now is      217.5 secs

     total energy              =   -1868.75343077 Ry
     Harris-Foulkes estimate   =   -1868.75390750 Ry
     estimated scf accuracy    <       0.12565386 Ry

     iteration # 12     ecut=    60.00 Ry     beta= 0.20
     Davidson diagonalization with overlap
     ethr =  5.49E-05,  avg # of iterations =  1.0

     negative rho (up, down):  9.018E-02 0.000E+00

     total cpu time spent up to now is      235.0 secs

     total energy              =   -1868.74982710 Ry
     Harris-Foulkes estimate   =   -1868.75392812 Ry
     estimated scf accuracy    <       0.10696969 Ry

     iteration # 13     ecut=    60.00 Ry     beta= 0.20
     Davidson diagonalization with overlap
     ethr =  4.67E-05,  avg # of iterations =  2.6

     negative rho (up, down):  9.009E-02 0.000E+00

     total cpu time spent up to now is      254.3 secs

     total energy              =   -1868.74980792 Ry
     Harris-Foulkes estimate   =   -1868.75088887 Ry
     estimated scf accuracy    <       0.04029427 Ry

     iteration # 14     ecut=    60.00 Ry     beta= 0.20
     Davidson diagonalization with overlap
     ethr =  1.76E-05,  avg # of iterations =  5.8

     negative rho (up, down):  8.976E-02 0.000E+00

     total cpu time spent up to now is      278.2 secs

     total energy              =   -1868.74620206 Ry
     Harris-Foulkes estimate   =   -1868.75000917 Ry
     estimated scf accuracy    <       0.03356177 Ry

     iteration # 15     ecut=    60.00 Ry     beta= 0.20
     Davidson diagonalization with overlap
     ethr =  1.47E-05,  avg # of iterations =  5.2

     negative rho (up, down):  9.127E-02 0.000E+00

     total cpu time spent up to now is      300.8 secs

     total energy              =   -1868.74532352 Ry
     Harris-Foulkes estimate   =   -1868.74688101 Ry
     estimated scf accuracy    <       0.02087232 Ry

     iteration # 16     ecut=    60.00 Ry     beta= 0.20
     Davidson diagonalization with overlap
     ethr =  9.11E-06,  avg # of iterations =  4.4

     negative rho (up, down):  9.773E-02 0.000E+00

     total cpu time spent up to now is      322.0 secs

     total energy              =   -1868.74461528 Ry
     Harris-Foulkes estimate   =   -1868.74560472 Ry
     estimated scf accuracy    <       0.01720652 Ry

     iteration # 17     ecut=    60.00 Ry     beta= 0.20
     Davidson diagonalization with overlap
     ethr =  7.51E-06,  avg # of iterations =  6.4

     negative rho (up, down):  9.387E-02 0.000E+00

     total cpu time spent up to now is      346.9 secs

     total energy              =   -1868.74446356 Ry
     Harris-Foulkes estimate   =   -1868.74506292 Ry
     estimated scf accuracy    <       0.00903036 Ry

     iteration # 18     ecut=    60.00 Ry     beta= 0.20
     Davidson diagonalization with overlap
     ethr =  3.94E-06,  avg # of iterations =  4.0

     negative rho (up, down):  1.074E-01 0.000E+00

     total cpu time spent up to now is      367.5 secs

     total energy              =   -1868.74346342 Ry
     Harris-Foulkes estimate   =   -1868.74456495 Ry
     estimated scf accuracy    <       0.00774603 Ry

     iteration # 19     ecut=    60.00 Ry     beta= 0.20
     Davidson diagonalization with overlap
     ethr =  3.38E-06,  avg # of iterations =  7.6

     negative rho (up, down):  1.141E-01 0.000E+00

     total cpu time spent up to now is      394.3 secs

     total energy              =   -1868.74327243 Ry
     Harris-Foulkes estimate   =   -1868.74365675 Ry
     estimated scf accuracy    <       0.00492113 Ry

     iteration # 20     ecut=    60.00 Ry     beta= 0.20
     Davidson diagonalization with overlap
     ethr =  2.15E-06,  avg # of iterations =  6.5

     negative rho (up, down):  1.063E-01 0.000E+00

     total cpu time spent up to now is      419.5 secs

     total energy              =   -1868.74250187 Ry
     Harris-Foulkes estimate   =   -1868.74332023 Ry
     estimated scf accuracy    <       0.00402713 Ry

     iteration # 21     ecut=    60.00 Ry     beta= 0.20
     Davidson diagonalization with overlap
     ethr =  1.76E-06,  avg # of iterations =  3.8

     negative rho (up, down):  1.154E-01 0.000E+00

     total cpu time spent up to now is      440.1 secs

     total energy              =   -1868.74172981 Ry
     Harris-Foulkes estimate   =   -1868.74257057 Ry
     estimated scf accuracy    <       0.00395069 Ry

     iteration # 22     ecut=    60.00 Ry     beta= 0.20
     Davidson diagonalization with overlap
     ethr =  1.73E-06,  avg # of iterations =  6.8

     negative rho (up, down):  1.116E-01 0.000E+00

     total cpu time spent up to now is      466.1 secs

     total energy              =   -1868.74156987 Ry
     Harris-Foulkes estimate   =   -1868.74180708 Ry
     estimated scf accuracy    <       0.00174519 Ry

     iteration # 23     ecut=    60.00 Ry     beta= 0.20
     Davidson diagonalization with overlap
     ethr =  7.62E-07,  avg # of iterations =  5.0

     negative rho (up, down):  1.070E-01 0.000E+00

     total cpu time spent up to now is      488.0 secs

     total energy              =   -1868.74140111 Ry
     Harris-Foulkes estimate   =   -1868.74160241 Ry
     estimated scf accuracy    <       0.00118715 Ry

     iteration # 24     ecut=    60.00 Ry     beta= 0.20
     Davidson diagonalization with overlap
     ethr =  5.18E-07,  avg # of iterations =  3.8

     negative rho (up, down):  9.759E-02 0.000E+00

     total cpu time spent up to now is      508.8 secs

     total energy              =   -1868.74115721 Ry
     Harris-Foulkes estimate   =   -1868.74141576 Ry
     estimated scf accuracy    <       0.00093558 Ry

     iteration # 25     ecut=    60.00 Ry     beta= 0.20
     Davidson diagonalization with overlap
     c_bands:  1 eigenvalues not converged
     ethr =  4.09E-07,  avg # of iterations =  6.5

     negative rho (up, down):  9.417E-02 0.000E+00

     total cpu time spent up to now is      533.5 secs

     total energy              =   -1868.74113172 Ry
     Harris-Foulkes estimate   =   -1868.74117252 Ry
     estimated scf accuracy    <       0.00036957 Ry

     iteration # 26     ecut=    60.00 Ry     beta= 0.20
     Davidson diagonalization with overlap
     ethr =  1.61E-07,  avg # of iterations =  4.5

     negative rho (up, down):  9.278E-02 0.000E+00

     total cpu time spent up to now is      555.2 secs

     total energy              =   -1868.74113125 Ry
     Harris-Foulkes estimate   =   -1868.74114318 Ry
     estimated scf accuracy    <       0.00009819 Ry

     iteration # 27     ecut=    60.00 Ry     beta= 0.20
     Davidson diagonalization with overlap
     ethr =  4.29E-08,  avg # of iterations =  5.2

     negative rho (up, down):  9.083E-02 0.000E+00

     total cpu time spent up to now is      578.4 secs

     total energy              =   -1868.74115108 Ry
     Harris-Foulkes estimate   =   -1868.74113350 Ry
     estimated scf accuracy    <       0.00005993 Ry

     iteration # 28     ecut=    60.00 Ry     beta= 0.20
     Davidson diagonalization with overlap
     c_bands:  1 eigenvalues not converged
     ethr =  2.62E-08,  avg # of iterations =  6.0

     negative rho (up, down):  9.049E-02 0.000E+00

     total cpu time spent up to now is      602.9 secs

     total energy              =   -1868.74116375 Ry
     Harris-Foulkes estimate   =   -1868.74115374 Ry
     estimated scf accuracy    <       0.00002763 Ry

     iteration # 29     ecut=    60.00 Ry     beta= 0.20
     Davidson diagonalization with overlap
     ethr =  1.21E-08,  avg # of iterations =  4.2

     negative rho (up, down):  9.027E-02 0.000E+00

     total cpu time spent up to now is      623.9 secs

     total energy              =   -1868.74116742 Ry
     Harris-Foulkes estimate   =   -1868.74116471 Ry
     estimated scf accuracy    <       0.00001073 Ry

     iteration # 30     ecut=    60.00 Ry     beta= 0.20
     Davidson diagonalization with overlap
     c_bands:  1 eigenvalues not converged
     ethr =  4.68E-09,  avg # of iterations =  4.6

     negative rho (up, down):  9.026E-02 0.000E+00

     total cpu time spent up to now is      646.7 secs

     total energy              =   -1868.74116911 Ry
     Harris-Foulkes estimate   =   -1868.74116837 Ry
     estimated scf accuracy    <       0.00000517 Ry

     iteration # 31     ecut=    60.00 Ry     beta= 0.20
     Davidson diagonalization with overlap
     ethr =  2.26E-09,  avg # of iterations =  1.4

     negative rho (up, down):  9.034E-02 0.000E+00

     total cpu time spent up to now is      664.0 secs

     total energy              =   -1868.74116870 Ry
     Harris-Foulkes estimate   =   -1868.74116928 Ry
     estimated scf accuracy    <       0.00000325 Ry

     iteration # 32     ecut=    60.00 Ry     beta= 0.20
     Davidson diagonalization with overlap
     ethr =  1.42E-09,  avg # of iterations =  2.0

     negative rho (up, down):  9.040E-02 0.000E+00

     total cpu time spent up to now is      682.6 secs

     total energy              =   -1868.74116863 Ry
     Harris-Foulkes estimate   =   -1868.74116891 Ry
     estimated scf accuracy    <       0.00000101 Ry

     iteration # 33     ecut=    60.00 Ry     beta= 0.20
     Davidson diagonalization with overlap
     ethr =  4.40E-10,  avg # of iterations =  2.1

     negative rho (up, down):  9.043E-02 0.000E+00

     total cpu time spent up to now is      700.2 secs

     End of self-consistent calculation

          k = 0.0000 0.0000 0.0000 ( 35281 PWs)   bands (ev):

   -38.1825 -38.1166 -22.8174 -22.8077 -22.6410 -22.5906 -18.7159 -18.6569
   -18.1879 -18.1788 -18.1228 -18.1102 -15.5081 -15.4631 -14.5503 -14.5018
   -14.3004 -14.2945 -14.2935 -14.2497 -14.1884 -14.0326 -13.9846 -13.7984
   -13.7886 -13.5238 -12.3057  -8.0377  -8.0277  -7.9306  -7.8593  -7.8096
    -7.8004  -7.7828  -7.7737  -7.6124  -7.5902  -7.4741  -7.3994  -2.1393
    -2.1082  -2.0936  -2.0653  -1.9676  -1.9196  -1.8997  -1.8915  -1.8524
    -1.8181  -1.7759  -1.7289  -1.5736  -0.9439  -0.8896  -0.4968  -0.4837
    -0.4277  -0.1603  -0.1134  -0.1082  -0.1013  -0.0710  -0.0661   0.0909
     0.0928   0.1406   0.1502   0.1583   0.1745   0.2265   0.2320   0.2515
     0.2601   0.3099   0.3563   0.3576   0.3674   0.3708   0.4610   0.4780
     0.5074   0.5078   0.5183   0.5265   0.5728   0.6221   0.6224   0.6392
     0.9251   1.0701   1.1069   1.1744   1.1801   1.2149   1.2487   1.2835
     1.3079   1.3244   1.3441   1.4335   1.4354   1.4507   1.4583   1.4606
     1.5011   1.8878   1.9234   1.9454   1.9513   2.0577   2.1447   2.1502
     2.2570   2.4550   2.5864   2.6365   2.6550   2.7035   2.7474   5.1600
     5.2537   5.3414   5.8451   5.9589   6.6272   6.6454   6.8028   6.9505
     7.3453   7.4393   8.1117   8.1276   8.1743   8.3075   8.5490   8.6347
     8.6718   8.7109

          k = 0.0000 0.1281 0.0000 ( 35279 PWs)   bands (ev):

   -38.1802 -38.1143 -22.7958 -22.7861 -22.6199 -22.5718 -18.6799 -18.6209
   -18.2831 -18.2149 -18.1847 -18.1196 -15.3993 -15.3550 -14.5583 -14.5085
   -14.3104 -14.3015 -14.2634 -14.2189 -14.1679 -14.0782 -14.0320 -13.8039
   -13.7928 -13.5596 -12.3749  -8.0208  -8.0105  -7.9214  -7.8483  -7.8021
    -7.7933  -7.7684  -7.7591  -7.6122  -7.5729  -7.4406  -7.4018  -2.2304
    -2.2197  -2.2094  -2.1539  -2.0897  -2.0451  -1.9015  -1.8960  -1.7811
    -1.7606  -1.7294  -1.7138  -1.5841  -1.0174  -1.0032  -0.9449  -0.8792
    -0.8334  -0.4940  -0.4633  -0.2756  -0.2027  -0.1594  -0.1581  -0.1549
    -0.1434  -0.1373  -0.1018  -0.0723   0.0734   0.1878   0.2287   0.2566
     0.2674   0.2753   0.3268   0.3905   0.4081   0.4861   0.4879   0.5025
     0.5169   0.5298   0.5914   0.6013   0.6057   0.6333   0.8059   0.8299
     0.8738   0.9058   0.9891   1.0448   1.1331   1.1501   1.1669   1.3657
     1.4111   1.4412   1.4563   1.4806   1.6010   1.6439   1.6623   1.6630
     1.6806   1.8728   1.9219   1.9288   1.9853   2.0132   2.1077   2.2317
     2.2928   2.5015   2.5209   2.7779   2.8287   2.9640   2.9773   5.5440
     5.6217   5.6518   6.0845   6.1749   6.9488   6.9659   7.1026   7.2611
     7.6116   7.7082   8.0511   8.1135   8.2902   8.4655   8.7776   8.8039
     8.8203   8.9316

          k = 0.0000 0.2563 0.0000 ( 35304 PWs)   bands (ev):

   -38.1746 -38.1087 -22.7428 -22.7330 -22.5680 -22.5257 -18.5889 -18.5296
   -18.5082 -18.4406 -18.1770 -18.1118 -15.1510 -15.1094 -14.6331 -14.5809
   -14.3728 -14.3516 -14.2116 -14.1499 -14.1461 -14.1158 -14.1023 -13.7816
   -13.7681 -13.6180 -12.5383  -7.9802  -7.9696  -7.8970  -7.8433  -7.8345
    -7.8194  -7.6652  -7.6600  -7.6558  -7.4742  -7.4048  -7.3576  -2.6590
    -2.6294  -2.5222  -2.4642  -2.0489  -2.0438  -1.9475  -1.9377  -1.9063
    -1.7776  -1.7678  -1.7084  -1.6994  -1.6618  -1.6417  -1.5290  -0.9466
    -0.9013  -0.8759  -0.7940  -0.6639  -0.5286  -0.5173  -0.4945  -0.4508
    -0.3877  -0.3838  -0.3265  -0.3023  -0.1165  -0.0876  -0.0768  -0.0374
     0.0644   0.0942   0.1389   0.2601   0.3015   0.3103   0.4700   0.5404
     0.5548   0.5590   0.5615   0.6244   0.6397   0.6678   0.7145   0.7556
     1.1379   1.1531   1.2199   1.2718   1.2944   1.3552   1.4065   1.4708
     1.4752   1.5472   1.5753   1.6539   1.7105   1.7160   1.7281   1.8027
     1.8339   1.8722   2.0348   2.1238   2.1563   2.2236   2.2311   2.2361
     2.2840   2.4024   2.4709   2.8768   3.1997   3.2689   3.3359   6.3479
     6.5074   6.5186   6.7264   6.7957   7.8059   7.8190   7.8931   7.9207
     7.9831   8.1041   8.1904   8.2975   8.7101   8.7639   8.9326   8.9860
     9.0879   9.2011

          k = 0.0000 0.3844 0.0000 ( 35218 PWs)   bands (ev):

   -38.1690 -38.1031 -22.6883 -22.6785 -22.5147 -22.4786 -18.7062 -18.6390
   -18.4906 -18.4312 -18.1692 -18.1041 -14.8997 -14.8663 -14.7770 -14.7201
   -14.4844 -14.4444 -14.2239 -14.1440 -14.1099 -14.0976 -14.0640 -13.7229
   -13.7083 -13.6255 -12.6956  -7.9401  -7.9298  -7.8762  -7.8707  -7.8669
    -7.7862  -7.7047  -7.5562  -7.5467  -7.4041  -7.3702  -7.2712  -3.0268
    -3.0002  -2.8346  -2.7693  -2.6060  -2.5940  -2.5931  -1.9559  -1.9531
    -1.7527  -1.7390  -1.7043  -1.6952  -1.6153  -1.6073  -1.5676  -1.2547
    -1.1038  -0.9262  -0.8909  -0.8676  -0.8545  -0.8107  -0.7932  -0.7464
    -0.6292  -0.6260  -0.4715  -0.4167  -0.3370  -0.3314  -0.3203  -0.2810
    -0.1529  -0.1447  -0.1142  -0.0370   0.1825   0.3632   0.4228   0.5313
     0.5499   0.5544   0.5832   0.5870   0.6385   0.6939   0.9347   0.9949
     1.2067   1.2474   1.3258   1.3520   1.3803   1.4024   1.4170   1.4479
     1.5338   1.5447   1.6293   1.7025   1.8314   1.8730   1.9092   1.9250
     2.0073   2.0592   2.0667   2.1871   2.2004   2.3053   2.4623   2.5027
     2.6312   2.6434   2.6968   2.8269   3.1885   3.2427   3.4427   7.1652
     7.3676   7.4047   7.5876   7.6246   7.8079   7.8705   8.4395   8.5580
     8.6359   8.7349   8.7675   8.8713   8.9791   9.0330   9.1612   9.2279
     9.6375   9.6813

          k = 0.0000-0.5125 0.0000 ( 35346 PWs)   bands (ev):

   -38.1667 -38.1008 -22.6652 -22.6554 -22.4922 -22.4588 -18.7822 -18.7151
   -18.4475 -18.3879 -18.1660 -18.1008 -14.8543 -14.8081 -14.7692 -14.7346
   -14.5567 -14.5009 -14.2498 -14.1322 -14.0951 -14.0910 -14.0419 -13.6917
   -13.6768 -13.6135 -12.7584  -7.9236  -7.9139  -7.8878  -7.8793  -7.8578
    -7.7658  -7.7280  -7.5091  -7.4996  -7.4029  -7.3254  -7.2343  -3.1705
    -3.1456  -2.9787  -2.9018  -2.8458  -2.8264  -2.8243  -1.9907  -1.9884
    -1.8126  -1.7578  -1.6296  -1.5902  -1.5608  -1.5456  -1.4991  -1.3761
    -1.1740  -1.0913  -1.0428  -1.0224  -0.9960  -0.9891  -0.7335  -0.7306
    -0.6720  -0.6141  -0.5667  -0.5035  -0.4335  -0.4185  -0.4072  -0.3732
    -0.3672  -0.3196  -0.1506  -0.1021   0.1419   0.4495   0.5002   0.5088
     0.5089   0.5207   0.5892   0.5934   0.6229   0.6999   1.0248   1.0505
     1.2466   1.2678   1.3286   1.3384   1.4121   1.4207   1.4741   1.4862
     1.4984   1.5022   1.5877   1.6229   1.8926   1.9790   1.9914   1.9948
     2.0047   2.0706   2.1065   2.2821   2.3750   2.4949   2.5102   2.6628
     2.7409   2.7936   2.8059   2.8621   3.0527   3.1108   3.4191   7.7134
     7.7266   7.7652   7.7989   7.8280   7.8867   7.8978   8.5376   8.5855
     8.8393   8.8933   9.1341   9.1495   9.1729   9.1964   9.4274   9.5879
     9.6264   9.7630

          k = 0.1250 0.0000 0.0000 ( 35280 PWs)   bands (ev):

   -38.1807 -38.1148 -22.7990 -22.7893 -22.6230 -22.5753 -18.6834 -18.6242
   -18.2879 -18.2238 -18.1763 -18.1077 -15.3929 -15.3467 -14.5749 -14.5297
   -14.3491 -14.3405 -14.2755 -14.2288 -14.2232 -14.0618 -14.0117 -13.7990
   -13.7886 -13.5366 -12.3797  -8.0478  -8.0371  -7.9220  -7.8839  -7.7745
    -7.7653  -7.7485  -7.7395  -7.5744  -7.5575  -7.4403  -7.3717  -2.2245
    -2.1884  -2.1349  -2.0654  -2.0590  -2.0162  -1.8876  -1.8756  -1.8417
    -1.8081  -1.7990  -1.7500  -1.5751  -0.9296  -0.8748  -0.4913  -0.4782
    -0.4661  -0.3785  -0.3193  -0.2026  -0.1898  -0.1853  -0.1762  -0.1199
    -0.0996  -0.0952  -0.0646   0.0864   0.1302   0.1596   0.1789   0.2513
     0.3682   0.3809   0.4356   0.4418   0.4658   0.4740   0.5051   0.5162
     0.5212   0.5624   0.5936   0.6065   0.6180   0.6231   0.6417   0.6485
     0.8717   0.9193   0.9588   0.9942   1.0071   1.2002   1.2035   1.2172
     1.2350   1.2405   1.2809   1.4123   1.4357   1.4865   1.5420   1.6710
     1.6848   1.8378   1.9562   2.0074   2.0913   2.0974   2.1900   2.2394
     2.2690   2.4896   2.5043   2.5885   2.6430   2.6789   2.7921   5.3823
     5.4426   5.4881   6.0495   6.1380   6.8675   6.8881   7.0253   7.2178
     7.5731   7.6662   8.0923   8.1545   8.2823   8.4520   8.7913   8.8066
     8.8698   8.9618

          k = 0.1250 0.1281 0.0000 ( 35302 PWs)   bands (ev):

   -38.1784 -38.1125 -22.7782 -22.7684 -22.6026 -22.5570 -18.6480 -18.5887
   -18.2920 -18.2711 -18.2265 -18.2041 -15.2850 -15.2395 -14.5729 -14.5260
   -14.3453 -14.3369 -14.2453 -14.2010 -14.2006 -14.1155 -14.0655 -13.7985
   -13.7871 -13.5621 -12.4282  -8.0352  -8.0245  -7.9226  -7.9159  -7.9094
    -7.8692  -7.7267  -7.6246  -7.6156  -7.5668  -7.4391  -7.2668  -2.3271
    -2.2971  -2.2780  -2.2021  -2.0887  -2.0515  -1.9359  -1.9058  -1.8766
    -1.8589  -1.7211  -1.6612  -1.5755  -1.0111  -0.9976  -0.9643  -0.8357
    -0.7845  -0.6957  -0.6565  -0.4894  -0.4759  -0.3897  -0.3647  -0.2632
    -0.1535  -0.1469  -0.0279   0.0499   0.0731   0.1424   0.1458   0.2369
     0.2434   0.2527   0.3092   0.4080   0.4162   0.4600   0.4615   0.5120
     0.5441   0.5571   0.5681   0.5729   0.6594   0.6809   0.8070   0.8301
     0.9320   0.9783   1.0726   1.1100   1.1340   1.1513   1.1875   1.2378
     1.2547   1.3788   1.4301   1.4589   1.5080   1.5281   1.5652   1.8022
     1.8114   1.8576   1.8656   1.8799   1.9958   2.1689   2.3055   2.4164
     2.5387   2.6086   2.7403   2.8045   2.8442   2.9750   2.9892   5.6980
     5.7629   5.7775   6.2505   6.3305   7.1797   7.1977   7.3111   7.5191
     7.7980   7.8824   8.0008   8.0675   8.4411   8.5936   8.8330   8.8977
     8.9861   9.1177

          k = 0.1250 0.2563 0.0000 ( 35346 PWs)   bands (ev):

   -38.1728 -38.1069 -22.7270 -22.7172 -22.5524 -22.5122 -18.5581 -18.5037
   -18.4987 -18.4361 -18.2723 -18.2080 -15.0390 -14.9967 -14.6181 -14.5661
   -14.3722 -14.3551 -14.2082 -14.1877 -14.1660 -14.1352 -14.1238 -13.7729
   -13.7595 -13.6071 -12.5467  -8.0461  -8.0369  -7.9805  -7.9698  -7.8889
    -7.8474  -7.8249  -7.6480  -7.5806  -7.5715  -7.4031  -7.2307  -2.7640
    -2.7256  -2.5540  -2.4939  -2.0711  -2.0618  -1.9961  -1.9515  -1.9311
    -1.8898  -1.8663  -1.7720  -1.7624  -1.6424  -1.5770  -1.5206  -1.0452
    -0.9904  -0.8852  -0.8467  -0.8369  -0.8255  -0.7766  -0.7214  -0.6755
    -0.3264  -0.3189  -0.2557  -0.2199  -0.1150  -0.0734  -0.0691  -0.0234
     0.1349   0.1726   0.2049   0.3339   0.3614   0.3686   0.4463   0.4683
     0.4916   0.5642   0.5915   0.6026   0.6322   0.6982   0.9236   0.9603
     1.1583   1.1758   1.2106   1.2778   1.2980   1.3829   1.3913   1.4064
     1.4358   1.5345   1.5848   1.6049   1.6790   1.6828   1.8017   1.8211
     1.8529   1.8717   1.9555   2.1937   2.2046   2.2557   2.3864   2.6494
     2.6897   2.7523   2.8789   2.9801   3.1972   3.2758   3.3393   6.4015
     6.5606   6.5722   6.8314   6.8931   7.7698   7.8421   8.0105   8.0174
     8.0542   8.3247   8.3536   8.4702   8.6506   8.7289   8.9199   9.0054
     9.1020   9.1448

          k = 0.1250 0.3844 0.0000 ( 35341 PWs)   bands (ev):

   -38.1672 -38.1013 -22.6745 -22.6647 -22.5010 -22.4665 -18.7002 -18.6330
   -18.4613 -18.4016 -18.2624 -18.1981 -14.7947 -14.7677 -14.7362 -14.6693
   -14.4527 -14.4206 -14.2092 -14.1978 -14.1704 -14.0785 -14.0546 -13.7189
   -13.7044 -13.6187 -12.6656  -8.0506  -8.0419  -7.9501  -7.9393  -7.8711
    -7.8633  -7.7938  -7.6287  -7.6193  -7.6140  -7.4473  -7.3029  -3.1467
    -3.1115  -2.8807  -2.8169  -2.5957  -2.5836  -2.5813  -1.9903  -1.9832
    -1.8700  -1.8131  -1.8019  -1.7877  -1.6434  -1.5853  -1.5782  -1.3093
    -1.2904  -1.2857  -1.2103  -1.1040  -1.0154  -0.8825  -0.7112  -0.6608
    -0.5126  -0.5061  -0.4846  -0.4645  -0.3439  -0.3211  -0.2794  -0.2437
     0.0499   0.0551   0.1254   0.1898   0.2844   0.4423   0.4470   0.5081
     0.5410   0.5701   0.5722   0.6145   0.6402   0.7011   1.0290   1.0776
     1.2088   1.2467   1.3505   1.3963   1.4144   1.4670   1.4762   1.5252
     1.5415   1.5529   1.6768   1.7574   1.8331   1.8509   1.8650   1.8757
     2.1094   2.1994   2.2080   2.3981   2.6048   2.6176   2.6581   2.6916
     2.7010   2.7373   2.9128   2.9698   3.1937   3.2714   3.4446   7.1069
     7.2637   7.2962   7.4621   7.5185   7.7314   7.7800   8.3826   8.5663
     8.5759   8.7013   8.8889   9.0130   9.1057   9.1467   9.2168   9.4474
     9.7015   9.7901

          k = 0.1250-0.5125 0.0000 ( 35328 PWs)   bands (ev):

   -38.1649 -38.0990 -22.6523 -22.6425 -22.4793 -22.4472 -18.7757 -18.7087
   -18.4188 -18.3590 -18.2582 -18.1939 -14.8139 -14.7668 -14.6518 -14.6166
   -14.5198 -14.4712 -14.2199 -14.1927 -14.1561 -14.0680 -14.0225 -13.6904
   -13.6756 -13.6123 -12.7144  -8.0253  -8.0168  -7.9361  -7.9257  -7.8568
    -7.8549  -7.7800  -7.6767  -7.6672  -7.5382  -7.4865  -7.3934  -3.2950
    -3.2613  -3.0270  -2.9561  -2.8369  -2.8224  -2.8192  -2.0070  -2.0024
    -1.8159  -1.7539  -1.6957  -1.6710  -1.6450  -1.6279  -1.5770  -1.4891
    -1.4452  -1.4409  -1.4409  -1.1862  -1.0613  -0.9399  -0.6654  -0.6403
    -0.5939  -0.5807  -0.5457  -0.5023  -0.4315  -0.4119  -0.3678  -0.3096
     0.0045   0.0294   0.0702   0.1105   0.1528   0.4482   0.4580   0.5153
     0.5574   0.5762   0.5844   0.6507   0.6879   0.6989   1.1240   1.1509
     1.2559   1.3169   1.3498   1.3800   1.3913   1.5014   1.5159   1.5181
     1.5192   1.5232   1.6224   1.8025   1.9002   1.9347   1.9535   2.0582
     2.0901   2.4881   2.5033   2.5433   2.6516   2.6855   2.7203   2.7726
     2.7850   2.8458   2.8555   2.8713   3.0828   3.1708   3.4181   7.4243
     7.4409   7.5307   7.5549   7.5904   7.8188   7.8883   8.4591   8.6218
     9.0647   9.0832   9.2421   9.2742   9.3123   9.3925   9.4001   9.5121
     9.6603   9.8213

          k = 0.2500 0.0000 0.0000 ( 35382 PWs)   bands (ev):

   -38.1764 -38.1104 -22.7538 -22.7441 -22.5789 -22.5378 -18.6019 -18.5419
   -18.5027 -18.4402 -18.1702 -18.1016 -15.1290 -15.0810 -14.6830 -14.6435
   -14.4667 -14.4486 -14.3322 -14.2199 -14.1917 -14.0971 -14.0416 -13.7935
   -13.7821 -13.5558 -12.5522  -8.0586  -8.0476  -7.9107  -7.8969  -7.7045
    -7.6954  -7.6632  -7.6541  -7.5165  -7.4761  -7.3640  -7.3034  -2.5289
    -2.4995  -2.4508  -2.3667  -1.9298  -1.9276  -1.9163  -1.8729  -1.8055
    -1.7750  -1.7172  -1.6492  -1.6160  -1.0116  -0.9676  -0.6803  -0.6082
    -0.5749  -0.5705  -0.5650  -0.4820  -0.4676  -0.4672  -0.4530  -0.3943
    -0.3882  -0.1969  -0.1448  -0.0769   0.0585   0.1363   0.1471   0.1698
     0.2194   0.2504   0.2514   0.3795   0.4151   0.4282   0.4840   0.4944
     0.5955   0.6308   0.6342   0.6528   0.6620   0.6711   0.7356   0.7532
     0.7897   0.8173   0.8826   1.0521   1.0634   1.1785   1.2570   1.2826
     1.2946   1.3544   1.3706   1.5111   1.5419   1.5570   1.5615   1.6239
     1.6649   1.6660   1.9820   1.9904   2.0276   2.0522   2.1603   2.1889
     2.3407   2.4854   2.5198   2.6167   2.7192   2.8145   2.9173   5.8561
     5.8890   5.8989   6.5938   6.6700   7.5022   7.5227   7.6324   7.9628
     8.0467   8.0546   8.1080   8.1296   8.7286   8.7848   8.9668   9.0486
     9.1368   9.3193

          k = 0.2500 0.1281 0.0000 ( 35364 PWs)   bands (ev):

   -38.1741 -38.1081 -22.7348 -22.7251 -22.5602 -22.5208 -18.5678 -18.5077
   -18.4969 -18.4344 -18.2703 -18.2020 -15.0236 -14.9770 -14.6565 -14.6143
   -14.4397 -14.4247 -14.2915 -14.1951 -14.1661 -14.1634 -14.1032 -13.7832
   -13.7714 -13.5626 -12.5563  -8.0659  -8.0554  -7.9501  -7.9405  -7.9148
    -7.8890  -7.7505  -7.6135  -7.5505  -7.5414  -7.3782  -7.1994  -2.6721
    -2.6265  -2.4917  -2.4164  -2.0203  -2.0089  -2.0023  -1.9628  -1.9048
    -1.8996  -1.6293  -1.6017  -1.5602  -1.0535  -1.0096  -1.0020  -0.9951
    -0.9908  -0.8928  -0.8522  -0.8474  -0.8138  -0.7076  -0.6711  -0.3965
    -0.2923  -0.2313  -0.0940  -0.0244   0.0824   0.1201   0.1350   0.1891
     0.2067   0.2302   0.2647   0.3319   0.3519   0.3875   0.4445   0.4554
     0.4661   0.5536   0.6405   0.6837   0.6937   0.7863   0.8167   0.8292
     0.9837   1.0111   1.1471   1.2037   1.2153   1.2784   1.2949   1.3406
     1.3761   1.3994   1.4737   1.4790   1.4947   1.5220   1.5641   1.7076
     1.7143   1.7660   1.8952   1.9183   1.9313   2.0217   2.4330   2.7183
     2.7505   2.8073   2.8869   2.9478   2.9849   3.0547   3.0770   6.0554
     6.1281   6.1385   6.7261   6.7973   7.7503   7.7836   7.8314   7.8873
     7.8990   8.2433   8.2851   8.3683   8.7517   8.7811   8.8798   8.9890
     9.0188   9.2381

          k = 0.2500 0.2563 0.0000 ( 35361 PWs)   bands (ev):

   -38.1685 -38.1026 -22.6884 -22.6786 -22.5145 -22.4793 -18.5042 -18.4818
   -18.4667 -18.4383 -18.4215 -18.4024 -14.7890 -14.7512 -14.6095 -14.5517
   -14.3868 -14.3763 -14.3061 -14.2603 -14.1903 -14.1394 -14.0876 -13.7510
   -13.7379 -13.5804 -12.5707  -8.2523  -8.2432  -8.0536  -7.9992  -7.9882
    -7.8747  -7.8587  -7.8414  -7.6477  -7.6386  -7.4764  -7.2912  -3.0951
    -3.0433  -2.7149  -2.6435  -2.1579  -2.1448  -2.1190  -2.0703  -2.0017
    -1.9960  -1.8775  -1.7801  -1.7707  -1.5702  -1.5305  -1.4925  -1.4210
    -1.4066  -1.3683  -1.2912  -0.8814  -0.8460  -0.8101  -0.7403  -0.6384
    -0.3889  -0.3612  -0.2293  -0.1915  -0.1533  -0.1216  -0.0894  -0.0627
    -0.0489   0.0744   0.1448   0.3763   0.4818   0.5145   0.5407   0.6331
     0.6783   0.6925   0.7304   0.7452   0.8350   0.8451   1.1949   1.2226
     1.2638   1.2793   1.3196   1.3470   1.3593   1.3732   1.3760   1.4346
     1.4571   1.4743   1.4929   1.5675   1.7658   1.7769   1.8292   1.8969
     1.9357   2.0029   2.0504   2.1189   2.1271   2.1952   2.6610   2.7678
     3.1852   3.2418   3.3123   3.3295   3.3566   3.5163   3.5433   6.5091
     6.6399   6.6517   7.0816   7.1335   7.5686   7.6594   8.2325   8.3030
     8.3137   8.7161   8.7612   8.7649   8.8044   8.9097   9.0440   9.1013
     9.1335   9.2427

          k = 0.2500 0.3844 0.0000 ( 35403 PWs)   bands (ev):

   -38.1630 -38.0970 -22.6408 -22.6310 -22.4677 -22.4369 -18.6857 -18.6184
   -18.4673 -18.4044 -18.3862 -18.3259 -14.6632 -14.6289 -14.5449 -14.4769
   -14.3704 -14.3536 -14.3534 -14.3200 -14.1401 -14.0389 -14.0310 -13.7077
   -13.6933 -13.5998 -12.5913  -8.3589  -8.3500  -8.1611  -7.9777  -7.9669
    -7.9424  -7.8846  -7.8754  -7.8522  -7.8264  -7.6967  -7.5360  -3.5085
    -3.4590  -3.0642  -2.9954  -2.5688  -2.5568  -2.5503  -2.1876  -2.1703
    -2.1021  -2.0489  -1.8903  -1.8871  -1.8834  -1.8545  -1.6565  -1.6117
    -1.5699  -1.3703  -1.3155  -0.9233  -0.8949  -0.8471  -0.7510  -0.7297
    -0.6069  -0.5455  -0.3881  -0.3790  -0.3626  -0.3214  -0.3180  -0.1423
    -0.1112   0.0186   0.1105   0.3941   0.5476   0.6103   0.6428   0.6938
     0.7528   0.7965   0.8689   0.9381   1.0090   1.0535   1.2470   1.2641
     1.2703   1.3038   1.4194   1.5012   1.5288   1.5740   1.5764   1.6382
     1.7077   1.7309   1.7778   1.7805   1.8414   1.8726   1.9684   1.9929
     2.1984   2.2166   2.3829   2.5391   2.5511   2.5690   2.6183   2.7103
     3.1296   3.1727   3.3897   3.6036   3.6303   3.7918   3.8106   6.7753
     6.8092   6.8491   7.0690   7.1516   7.8785   7.8913   8.2588   8.6366
     8.6707   8.6801   9.1171   9.1949   9.2619   9.3599   9.5410   9.6461
     9.6607   9.7970

          k = 0.2500-0.5125 0.0000 ( 35406 PWs)   bands (ev):

   -38.1607 -38.0947 -22.6208 -22.6109 -22.4479 -22.4191 -18.7602 -18.6931
   -18.4615 -18.3986 -18.3455 -18.2851 -14.7114 -14.6616 -14.4274 -14.3978
   -14.3883 -14.3573 -14.3424 -14.3015 -14.1428 -14.0125 -13.9789 -13.6869
   -13.6721 -13.6093 -12.6015  -8.3434  -8.3348  -8.1573  -8.0441  -8.0346
    -7.9635  -7.9527  -7.8601  -7.8561  -7.8434  -7.8021  -7.7426  -3.6709
    -3.6225  -3.2214  -3.1516  -2.8093  -2.8015  -2.7953  -2.1820  -2.1634
    -2.0620  -2.0515  -2.0144  -2.0088  -1.8802  -1.8724  -1.7698  -1.7256
    -1.5710  -1.3705  -1.3208  -0.9307  -0.9079  -0.8731  -0.7521  -0.7070
    -0.7018  -0.6316  -0.4623  -0.4379  -0.4277  -0.4036  -0.3578  -0.1473
    -0.1289   0.0110   0.1035   0.4043   0.5730   0.6273   0.6667   0.7014
     0.7373   0.8006   0.8769   0.9569   1.1386   1.1839   1.3215   1.3288
     1.3486   1.3898   1.4916   1.5395   1.5615   1.6179   1.6302   1.6773
     1.6843   1.7773   1.7919   1.8326   1.8511   2.0275   2.0420   2.2657
     2.2868   2.4829   2.4977   2.4981   2.6920   2.7178   2.7301   2.8214
     2.9703   3.0212   3.3556   3.6616   3.6889   3.8472   3.8653   6.7543
     6.7660   6.8472   6.9936   7.0851   8.0011   8.0740   8.2782   8.7857
     9.1509   9.2705   9.2916   9.3011   9.3717   9.4977   9.5947   9.6647
     9.7640   9.7910

          k = 0.3750 0.0000 0.0000 ( 35398 PWs)   bands (ev):

   -38.1720 -38.1060 -22.7075 -22.6977 -22.5338 -22.4996 -18.6920 -18.6304
   -18.5131 -18.4526 -18.1642 -18.0955 -14.8804 -14.8545 -14.8172 -14.7527
   -14.5961 -14.5630 -14.4330 -14.2048 -14.1896 -14.0903 -14.0317 -13.7820
   -13.7701 -13.5625 -12.7160  -8.0601  -8.0491  -7.9124  -7.8682  -7.6451
    -7.6362  -7.5739  -7.5647  -7.4850  -7.3911  -7.2934  -7.2328  -2.8548
    -2.8209  -2.7160  -2.6400  -1.9981  -1.9968  -1.7604  -1.7231  -1.6945
    -1.6801  -1.6546  -1.6467  -1.6079  -1.0228  -0.9871  -0.9835  -0.9586
    -0.9447  -0.7847  -0.7748  -0.7485  -0.6955  -0.6172  -0.6120  -0.4625
    -0.4494  -0.2875  -0.2332  -0.2269  -0.1782  -0.1577  -0.0954   0.0353
     0.1624   0.1683   0.3001   0.3549   0.4401   0.4559   0.4706   0.4810
     0.5805   0.6908   0.6949   0.7087   0.7233   0.7403   0.7493   0.7812
     0.8321   0.8754   0.8889   1.0611   1.0842   1.1234   1.3373   1.3559
     1.3794   1.4475   1.4501   1.5056   1.5255   1.5498   1.7151   1.7682
     1.8017   1.8045   1.8648   1.8898   1.9066   1.9381   2.1262   2.2220
     2.2347   2.5075   2.5335   2.6594   2.7306   2.9195   2.9985   6.4463
     6.5239   6.5342   7.1997   7.2637   8.0027   8.0168   8.0302   8.0633
     8.0880   8.3920   8.4519   8.6236   8.8714   8.9285   9.0063   9.2894
     9.4075   9.4906

          k = 0.3750 0.1281 0.0000 ( 35342 PWs)   bands (ev):

   -38.1697 -38.1038 -22.6905 -22.6807 -22.5169 -22.4840 -18.6847 -18.6231
   -18.4802 -18.4196 -18.2625 -18.1942 -14.8165 -14.7956 -14.7364 -14.6639
   -14.5447 -14.5204 -14.3828 -14.1749 -14.1591 -14.1581 -14.0969 -13.7656
   -13.7536 -13.5566 -12.6827  -8.0610  -8.0502  -7.9159  -7.8918  -7.8835
    -7.8636  -7.7018  -7.6065  -7.5974  -7.5421  -7.4411  -7.2546  -3.0064
    -2.9601  -2.7681  -2.6953  -2.0370  -2.0263  -1.9606  -1.9300  -1.8309
    -1.7974  -1.6372  -1.5783  -1.5112  -1.3339  -1.3084  -1.2712  -1.2119
    -1.0378  -1.0052  -0.9960  -0.8788  -0.8299  -0.8172  -0.7435  -0.5664
    -0.5184  -0.2618  -0.1676  -0.1130   0.0114   0.0319   0.0616   0.1200
     0.1264   0.1624   0.1778   0.2600   0.3023   0.4012   0.4046   0.5070
     0.5740   0.5917   0.5954   0.7596   0.7716   0.8719   0.8849   0.8905
     1.0591   1.1005   1.1630   1.2341   1.2545   1.2903   1.3450   1.3633
     1.4152   1.4267   1.5251   1.5889   1.5982   1.6485   1.7428   1.7673
     1.7702   1.7946   1.8158   1.8559   1.9236   1.9982   2.2052   2.7639
     2.8303   2.8673   2.9096   2.9793   3.0024   3.2018   3.2228   6.5369
     6.6461   6.6569   7.2845   7.3445   7.6534   7.7253   8.0926   8.1065
     8.1280   8.6021   8.7754   8.8461   8.8863   8.9401   9.0820   9.1788
     9.3877   9.5598

          k = 0.3750 0.2563 0.0000 ( 35387 PWs)   bands (ev):

   -38.1642 -38.0983 -22.6489 -22.6392 -22.4757 -22.4458 -18.6672 -18.6055
   -18.4778 -18.4101 -18.3970 -18.3362 -14.6985 -14.6738 -14.5452 -14.4887
   -14.4015 -14.3733 -14.3226 -14.2675 -14.2397 -14.1074 -14.0747 -13.7281
   -13.7153 -13.5532 -12.6001  -8.3013  -8.2922  -8.1071  -8.0175  -8.0066
    -7.9180  -7.8752  -7.8661  -7.8601  -7.8440  -7.6999  -7.5119  -3.4493
    -3.3935  -2.9976  -2.9233  -2.2263  -2.2096  -2.1438  -2.1093  -2.0063
    -2.0012  -1.8982  -1.8603  -1.8377  -1.7865  -1.7761  -1.6450  -1.5979
    -1.5963  -1.2958  -1.2325  -0.8682  -0.8220  -0.7719  -0.7167  -0.6005
    -0.5184  -0.5038  -0.2957  -0.2415  -0.2090  -0.1848  -0.1606  -0.0665
    -0.0478   0.0681   0.1115   0.3498   0.5142   0.6599   0.6891   0.7118
     0.8397   0.8868   0.9473   0.9754   1.0337   1.0705   1.2422   1.2686
     1.2758   1.3043   1.3918   1.4128   1.4205   1.4543   1.4754   1.5585
     1.6146   1.6429   1.6551   1.6764   1.8030   1.8200   1.9289   1.9679
     1.9994   2.0173   2.0241   2.0325   2.0922   2.1315   2.6073   2.7188
     3.1819   3.2463   3.3206   3.7212   3.7404   3.8660   3.8859   6.5656
     6.6246   6.6412   7.0648   7.1326   7.7470   7.8113   8.1533   8.3431
     8.3541   8.6815   9.1123   9.1290   9.1480   9.1935   9.3024   9.3929
     9.5382   9.5899

          k = 0.3750 0.3844 0.0000 ( 35453 PWs)   bands (ev):

   -38.1587 -38.0927 -22.6066 -22.5967 -22.4337 -22.4069 -18.6724 -18.6469
   -18.6056 -18.5845 -18.3076 -18.2466 -14.5922 -14.5568 -14.4857 -14.4399
   -14.3917 -14.3652 -14.2261 -14.1785 -14.0614 -14.0451 -13.9962 -13.6948
   -13.6807 -13.5774 -12.5140  -8.5678  -8.5588  -8.3645  -8.2040  -8.1948
    -8.1509  -8.0092  -8.0042  -7.9948  -7.8687  -7.8534  -7.8309  -3.9017
    -3.8465  -3.3585  -3.2861  -2.5407  -2.5289  -2.5191  -2.3205  -2.3064
    -2.2930  -2.2540  -2.2339  -2.1949  -1.8955  -1.8941  -1.7854  -1.7396
    -1.5757  -1.1457  -1.0977  -0.9600  -0.9150  -0.7751  -0.7532  -0.7255
    -0.6618  -0.5827  -0.5517  -0.4987  -0.4317  -0.4147  -0.3880  -0.0022
    -0.0007   0.0877   0.1370   0.4043   0.6532   0.8108   0.9611   0.9639
     0.9916   1.0020   1.1815   1.3080   1.3773   1.4033   1.4109   1.4221
     1.4732   1.5340   1.5541   1.6087   1.6142   1.6300   1.6808   1.6956
     1.7036   1.7902   1.8322   1.9205   1.9399   1.9415   2.1513   2.2046
     2.2461   2.3811   2.4000   2.4605   2.4726   2.5405   2.6271   2.8347
     3.1151   3.1725   3.3898   4.2630   4.2845   4.3746   4.3887   6.2497
     6.2631   6.3508   6.7607   6.8474   8.0106   8.1106   8.3934   8.4781
     8.8948   8.9149   8.9539   9.0262   9.2913   9.4387   9.5237   9.5562
     9.6448   9.7459

          k = 0.3750-0.5125 0.0000 ( 35450 PWs)   bands (ev):

   -38.1564 -38.0905 -22.5887 -22.5789 -22.4161 -22.3906 -18.7446 -18.6774
   -18.6415 -18.5796 -18.2685 -18.2074 -14.6007 -14.5467 -14.4976 -14.4642
   -14.3308 -14.3226 -14.1458 -14.1066 -14.0508 -13.9579 -13.9470 -13.6832
   -13.6684 -13.6064 -12.4772  -8.6467  -8.6379  -8.4467  -8.3593  -8.3499
    -8.1793  -8.1483  -8.0654  -8.0008  -7.9896  -7.8492  -7.8356  -4.0826
    -4.0281  -3.5236  -3.4518  -2.7794  -2.7743  -2.7667  -2.4332  -2.3920
    -2.3361  -2.3243  -2.2452  -2.2046  -1.8910  -1.8900  -1.8331  -1.7881
    -1.5578  -1.1676  -1.1244  -0.9161  -0.8729  -0.8355  -0.8107  -0.8060
    -0.6742  -0.6436  -0.6299  -0.5626  -0.5131  -0.4979  -0.4723   0.0282
     0.0342   0.0879   0.1724   0.4299   0.6888   0.8274   1.0161   1.0224
     1.0726   1.1127   1.2577   1.4281   1.4346   1.4366   1.4556   1.4950
     1.6124   1.6156   1.6487   1.6551   1.6869   1.7126   1.7534   1.8504
     1.8605   1.9032   1.9051   1.9677   1.9957   2.0396   2.1295   2.3589
     2.5017   2.5166   2.6458   2.6569   2.6693   2.7213   2.7332   2.7899
     2.9437   3.0116   3.3460   4.4251   4.4482   4.5422   4.5551   6.0565
     6.0664   6.1856   6.6584   6.7557   8.1580   8.1670   8.2599   8.5589
     8.9589   9.0659   9.2229   9.2269   9.3523   9.4350   9.4609   9.4790
     9.6002   9.6896

          k =-0.5000 0.0000 0.0000 ( 35346 PWs)   bands (ev):

   -38.1702 -38.1042 -22.6880 -22.6782 -22.5147 -22.4836 -18.7641 -18.7029
   -18.4748 -18.4139 -18.1616 -18.0930 -14.9183 -14.8909 -14.7017 -14.6777
   -14.6459 -14.6253 -14.4798 -14.2139 -14.2118 -14.0789 -14.0198 -13.7762
   -13.7643 -13.5627 -12.7811  -8.0594  -8.0483  -7.9080  -7.8557  -7.6224
    -7.6135  -7.5356  -7.5263  -7.4775  -7.3547  -7.2654  -7.2028  -2.9783
    -2.9454  -2.8312  -2.7564  -2.0247  -2.0236  -1.7243  -1.7100  -1.6910
    -1.6813  -1.6344  -1.4619  -1.4240  -1.2633  -1.2357  -1.0745  -0.9158
    -0.8985  -0.8865  -0.8718  -0.8671  -0.7641  -0.7130  -0.7081  -0.4696
    -0.4566  -0.4435  -0.4201  -0.3049  -0.2076  -0.1773  -0.1720  -0.0218
     0.1280   0.1697   0.3344   0.3990   0.4520   0.4650   0.4668   0.4755
     0.5743   0.7053   0.7059   0.7156   0.7463   0.7872   0.7899   0.7936
     0.8057   0.8339   0.8513   0.9926   1.2249   1.2448   1.3754   1.3779
     1.3961   1.4166   1.4334   1.4759   1.5322   1.5759   1.6314   1.8401
     1.8457   1.8653   1.8721   1.9006   1.9725   2.0299   2.0347   2.2074
     2.2167   2.4961   2.5137   2.6611   2.7202   2.9335   3.0040   7.0448
     7.2549   7.2871   7.3759   7.3860   7.3980   7.5087   7.5987   7.9849
     8.0452   8.6234   8.6633   8.8339   9.2045   9.2271   9.2681   9.3773
     9.4239   9.5970

          k =-0.5000 0.1281 0.0000 ( 35340 PWs)   bands (ev):

   -38.1679 -38.1019 -22.6719 -22.6621 -22.4987 -22.4685 -18.7563 -18.6951
   -18.4425 -18.3815 -18.2592 -18.1909 -14.8696 -14.8414 -14.6290 -14.5857
   -14.5854 -14.5299 -14.4277 -14.1829 -14.1810 -14.1456 -14.0861 -13.7579
   -13.7458 -13.5527 -12.7341  -8.0553  -8.0443  -7.9053  -7.8531  -7.7575
    -7.7486  -7.7469  -7.7377  -7.6015  -7.5600  -7.4017  -7.3900  -3.1355
    -3.0899  -2.8917  -2.8193  -2.0485  -2.0416  -1.9500  -1.9174  -1.7065
    -1.6104  -1.5883  -1.5815  -1.5673  -1.5507  -1.5074  -1.4286  -1.3616
    -1.0172  -1.0129  -1.0001  -0.8991  -0.8015  -0.7600  -0.7537  -0.6315
    -0.6241  -0.2416  -0.2291  -0.1620  -0.0132   0.0000   0.0421   0.0496
     0.0759   0.1165   0.1577   0.1696   0.2138   0.4048   0.4142   0.5125
     0.5782   0.6598   0.6879   0.7526   0.7663   0.9185   0.9572   0.9683
     1.0773   1.0933   1.1975   1.2404   1.3256   1.3335   1.3772   1.3910
     1.4062   1.4308   1.5041   1.5526   1.5607   1.6073   1.7968   1.8142
     1.8294   1.8642   1.8744   1.9545   1.9598   2.0109   2.0272   2.7454
     2.8557   2.8774   2.9036   2.9724   2.9946   3.2234   3.2425   6.9531
     7.0937   7.1071   7.4390   7.5134   7.6092   7.6550   7.6991   7.7260
     7.7668   8.9304   9.0224   9.0475   9.1128   9.2483   9.2906   9.3499
     9.3953   9.5243

          k =-0.5000 0.2563 0.0000 ( 35398 PWs)   bands (ev):

   -38.1624 -38.0965 -22.6324 -22.6226 -22.4595 -22.4317 -18.7376 -18.6762
   -18.4733 -18.4056 -18.3608 -18.2997 -14.7469 -14.7164 -14.5044 -14.4809
   -14.3280 -14.3087 -14.2888 -14.2850 -14.2315 -14.1068 -14.1062 -13.7183
   -13.7056 -13.5417 -12.6137  -8.2235  -8.2144  -8.0688  -8.0597  -8.0350
    -8.0235  -8.0128  -7.8876  -7.8699  -7.8577  -7.7862  -7.7271  -3.5914
    -3.5353  -3.1341  -3.0605  -2.2431  -2.2254  -2.1304  -2.0988  -2.0524
    -2.0112  -2.0004  -1.9949  -1.8211  -1.7880  -1.7776  -1.7259  -1.6751
    -1.6145  -1.2666  -1.2041  -0.8501  -0.8049  -0.7285  -0.6383  -0.6253
    -0.6154  -0.5016  -0.2943  -0.2405  -0.2405  -0.2294  -0.1947  -0.0619
    -0.0485   0.0775   0.0945   0.3362   0.5320   0.7008   0.7277   0.7287
     0.8490   0.9318   0.9798   1.0222   1.1932   1.2310   1.2746   1.3201
     1.3349   1.3589   1.4440   1.4886   1.5095   1.5169   1.5196   1.5277
     1.5525   1.6481   1.7028   1.7488   1.8500   1.9407   1.9416   1.9582
     1.9724   1.9864   1.9982   2.0452   2.1066   2.2976   2.3576   2.6794
     3.1791   3.2432   3.3188   3.8325   3.8503   3.9607   3.9789   6.5597
     6.5857   6.6150   6.9790   7.0540   7.8750   7.9723   8.1099   8.4362
     8.4500   8.7741   8.9703   9.1800   9.2046   9.3356   9.3870   9.3981
     9.5754   9.6398

          k =-0.5000 0.3844 0.0000 ( 35518 PWs)   bands (ev):

   -38.1569 -38.0910 -22.5922 -22.5824 -22.4195 -22.3943 -18.7188 -18.6643
   -18.6574 -18.5970 -18.2733 -18.2119 -14.6179 -14.5849 -14.4798 -14.4239
   -14.3610 -14.3553 -14.1125 -14.0898 -14.0360 -14.0285 -14.0193 -13.6890
   -13.6751 -13.5669 -12.4810  -8.6171  -8.6081  -8.4152  -8.3627  -8.3534
    -8.1724  -8.1577  -8.0517  -8.0192  -8.0081  -7.8683  -7.8349  -4.0628
    -4.0066  -3.5007  -3.4284  -2.5289  -2.5171  -2.5064  -2.4366  -2.3933
    -2.3530  -2.3415  -2.2630  -2.2276  -1.8946  -1.8933  -1.8232  -1.7756
    -1.5755  -1.0591  -1.0255  -1.0100  -0.9838  -0.7478  -0.7227  -0.7154
    -0.6995  -0.6397  -0.5436  -0.5212  -0.4614  -0.4498  -0.4286   0.0552
     0.0634   0.0716   0.1847   0.4099   0.6862   0.8526   1.0723   1.0857
     1.1393   1.1782   1.3214   1.3891   1.4070   1.4411   1.4520   1.5482
     1.5608   1.5776   1.6015   1.6449   1.6789   1.7153   1.7678   1.7915
     1.8189   1.8743   1.8783   1.9204   1.9491   2.0447   2.1219   2.2012
     2.2633   2.3819   2.4225   2.4343   2.5081   2.5829   2.7391   2.7459
     3.1126   3.1713   3.3907   4.4876   4.5074   4.5808   4.5931   6.0131
     6.0249   6.1290   6.6523   6.7431   8.0946   8.2527   8.2659   8.4899
     8.7594   8.8802   9.1135   9.2057   9.3131   9.3685   9.4139   9.5252
     9.6229   9.6271

          k =-0.5000-0.5125 0.0000 ( 35476 PWs)   bands (ev):

   -38.1546 -38.0887 -22.5753 -22.5655 -22.4028 -22.3787 -18.7382 -18.7110
   -18.6710 -18.6495 -18.2350 -18.1735 -14.5632 -14.5519 -14.5297 -14.4954
   -14.2911 -14.2898 -14.0510 -14.0113 -13.9970 -13.9483 -13.9358 -13.6814
   -13.6666 -13.6050 -12.4216  -8.7691  -8.7602  -8.5642  -8.4802  -8.4708
    -8.3122  -8.2655  -8.1871  -8.0166  -8.0055  -7.8652  -7.8340  -4.2521
    -4.1964  -3.6681  -3.5963  -2.7669  -2.7625  -2.7545  -2.5670  -2.5240
    -2.3803  -2.3696  -2.2859  -2.2493  -1.8827  -1.8819  -1.8568  -1.8102
    -1.5477  -1.1058  -1.0658  -0.9844  -0.9425  -0.8482  -0.7714  -0.7556
    -0.7391  -0.6527  -0.6250  -0.6104  -0.5446  -0.5330  -0.5144   0.0713
     0.0986   0.1066   0.2240   0.4417   0.7250   0.8733   1.1444   1.1980
     1.3520   1.3903   1.4470   1.4619   1.4772   1.4833   1.4923   1.5087
     1.5252   1.6109   1.6938   1.7366   1.7751   1.7947   1.8185   1.9795
     1.9991   2.0042   2.0119   2.0181   2.0220   2.1605   2.2383   2.2522
     2.5218   2.5364   2.6296   2.6418   2.6835   2.7154   2.9074   2.9240
     2.9377   3.0077   3.3457   4.7013   4.7219   4.8106   4.8220   5.7662
     5.7757   5.9039   6.5409   6.6431   8.1359   8.2371   8.3647   8.3696
     8.6899   8.8890   9.0919   9.1884   9.2254   9.2591   9.3857   9.4835
     9.4959   9.7417

     the Fermi energy is     2.9261 ev

!    total energy              =   -1868.74116813 Ry
     Harris-Foulkes estimate   =   -1868.74116868 Ry
     estimated scf accuracy    <       0.00000064 Ry

     The total energy is the sum of the following terms:

     one-electron contribution =  -29385.62142146 Ry
     hartree contribution      =   14847.11269791 Ry
     xc contribution           =    -642.19929825 Ry
     ewald contribution        =   13311.97741787 Ry
     smearing contrib. (-TS)   =      -0.01056420 Ry

     convergence has been achieved in  33 iterations

     negative rho (up, down):  9.043E-02 0.000E+00

     Forces acting on atoms (cartesian axes, Ry/au):

     atom    1 type  3   force =     0.00000000    0.00000000   -0.00023464
     atom    2 type  2   force =     0.00000000    0.00000000    0.00061984
     atom    3 type  3   force =     0.00000000    0.00000000    0.00025861
     atom    4 type  1   force =     0.00000000    0.00000000   -0.00012385
     atom    5 type  2   force =     0.00000000    0.00000000   -0.00065450
     atom    6 type  3   force =     0.00000000    0.00000000    0.00125435
     atom    7 type  3   force =     0.00000000    0.00000000    0.00087065
     atom    8 type  4   force =     0.00000000    0.00000000   -0.00231428
     atom    9 type  3   force =     0.00000000    0.00000000    0.00407557
     atom   10 type  3   force =     0.00000000    0.00000000    0.00298026
     atom   11 type  2   force =     0.00000000    0.00000000   -0.00117981
     atom   12 type  1   force =     0.00000000    0.00000000    0.01573801
     atom   13 type  3   force =     0.00000000    0.00000000   -0.01695706
     atom   14 type  3   force =     0.00000000    0.00000000    0.02283773
     atom   15 type  2   force =     0.00000000    0.00000000   -0.01055594
     atom   16 type  3   force =     0.00000000    0.00000000    0.01463693
     atom   17 type  1   force =     0.00000000    0.00000000   -0.01556367
     atom   18 type  2   force =     0.00000000    0.00000000   -0.02303978
     atom   19 type  3   force =     0.00000000    0.00000000    0.00476141
     atom   20 type  3   force =     0.00000000    0.00000000    0.00306034
     atom   21 type  4   force =     0.00000000    0.00000000   -0.00080539
     atom   22 type  3   force =     0.00000000    0.00000000   -0.00026642
     atom   23 type  3   force =     0.00000000    0.00000000    0.00071570
     atom   24 type  2   force =     0.00000000    0.00000000    0.00044288
     atom   25 type  1   force =     0.00000000    0.00000000    0.00006662
     atom   26 type  3   force =     0.00000000    0.00000000   -0.00156743
     atom   27 type  2   force =     0.00000000    0.00000000    0.00071396
     atom   28 type  3   force =     0.00000000    0.00000000    0.00022991

     Total force =     0.047197     Total SCF correction =     0.003901


     Computing stress (Cartesian axis) and pressure


     negative rho (up, down):  9.043E-02 0.000E+00
          total   stress  (Ry/bohr**3)                   (kbar)     P=       -6.65
   0.00000110   0.00000000   0.00000000            0.16        0.00        0.00
   0.00000000  -0.00009263   0.00000000            0.00      -13.63        0.00
   0.00000000   0.00000000  -0.00004399            0.00        0.00       -6.47

 
     init_run     :     10.27s CPU     10.84s WALL (       1 calls)
     electrons    :    654.26s CPU    688.35s WALL (       1 calls)
     forces       :      4.28s CPU      4.50s WALL (       1 calls)
     stress       :     43.64s CPU     44.53s WALL (       1 calls)

     Called by init_run:
     wfcinit      :      7.35s CPU      7.52s WALL (       1 calls)
     potinit      :      0.69s CPU      0.71s WALL (       1 calls)
     hinit0       :      1.16s CPU      1.19s WALL (       1 calls)

     Called by electrons:
     c_bands      :    517.58s CPU    530.74s WALL (      33 calls)
     sum_band     :     92.65s CPU    104.42s WALL (      33 calls)
     v_of_rho     :      3.62s CPU      3.67s WALL (      34 calls)
     newd         :     17.88s CPU     27.03s WALL (      34 calls)
     mix_rho      :     22.71s CPU     22.94s WALL (      33 calls)

     Called by c_bands:
     init_us_2    :      3.44s CPU      3.49s WALL (    1725 calls)
     cegterg      :    491.11s CPU    503.71s WALL (     825 calls)

     Called by sum_band:
     sum_band:bec :      0.25s CPU      0.25s WALL (     825 calls)
     addusdens    :     18.71s CPU     29.65s WALL (      33 calls)

     Called by *egterg:
     h_psi        :    224.86s CPU    232.70s WALL (    3876 calls)
     s_psi        :     21.44s CPU     21.74s WALL (    3876 calls)
     g_psi        :      0.64s CPU      0.64s WALL (    3026 calls)
     cdiaghg      :    121.82s CPU    122.35s WALL (    3851 calls)

     Called by h_psi:
     h_psi:calbec :     29.27s CPU     30.46s WALL (    3876 calls)
     vloc_psi     :    172.28s CPU    174.99s WALL (    3876 calls)
     add_vuspsi   :     22.30s CPU     24.48s WALL (    3876 calls)

     General routines
     calbec       :     69.39s CPU     70.72s WALL (    4826 calls)
     fft          :      3.75s CPU      3.79s WALL (     465 calls)
     ffts         :     10.58s CPU     10.70s WALL (   14793 calls)
     fftw         :    201.09s CPU    204.17s WALL (  595012 calls)
     interpolate  :      0.25s CPU      0.25s WALL (      34 calls)
 
     Parallel routines
     fft_scatt_xy :     22.02s CPU     22.31s WALL (  610270 calls)
     fft_scatt_yz :    138.25s CPU    140.32s WALL (  610270 calls)
 
     PWSCF        :  11m53.52s CPU  12m29.32s WALL

 
   This run was terminated on:  17:27:37   5May2021            

=------------------------------------------------------------------------------=
   JOB DONE.
=------------------------------------------------------------------------------=
[1620250057.767859] [holy7c10611:253241:0]          mpool.c:43   UCX  WARN  object 0x37b9880 was not returned to mpool ucp_requests
[1620250057.768206] [holy7c12209:157409:0]          mpool.c:43   UCX  WARN  object 0x31ef100 was not returned to mpool ucp_requests
[1620250057.768224] [holy7c12209:157409:0]          mpool.c:43   UCX  WARN  object 0x31ef480 was not returned to mpool ucp_requests
[1620250057.769032] [holy7c12209:157408:0]          mpool.c:43   UCX  WARN  object 0x2aa8400 was not returned to mpool ucp_requests
[1620250057.767421] [holy7c12107:61151:0]          mpool.c:43   UCX  WARN  object 0x3e38540 was not returned to mpool ucp_requests
[1620250057.767439] [holy7c12107:61151:0]          mpool.c:43   UCX  WARN  object 0x3e38700 was not returned to mpool ucp_requests
[1620250057.772357] [holy7c12111:15583:0]          mpool.c:43   UCX  WARN  object 0x3176040 was not returned to mpool ucp_requests
[1620250057.772383] [holy7c12111:15583:0]          mpool.c:43   UCX  WARN  object 0x31763c0 was not returned to mpool ucp_requests
[1620250057.772950] [holy7c12110:178420:0]          mpool.c:43   UCX  WARN  object 0x44a8d80 was not returned to mpool ucp_requests
[1620250057.774297] [holy7c10608:79485:0]          mpool.c:43   UCX  WARN  object 0x33d69c0 was not returned to mpool ucp_requests
[1620250057.774310] [holy7c10608:79485:0]          mpool.c:43   UCX  WARN  object 0x33d6f00 was not returned to mpool ucp_requests
