
     Program PWSCF v.6.5 starts on  5May2021 at 17:10:42 

     This program is part of the open-source Quantum ESPRESSO suite
     for quantum simulation of materials; please cite
         "P. Giannozzi et al., J. Phys.:Condens. Matter 21 395502 (2009);
         "P. Giannozzi et al., J. Phys.:Condens. Matter 29 465901 (2017);
          URL http://www.quantum-espresso.org", 
     in publications or presentations arising from this work. More details at
     http://www.quantum-espresso.org/quote

     Parallel version (MPI), running on    20 processors

     MPI processes distributed on    14 nodes
     R & G space division:  proc/nbgrp/npool/nimage =      20
     Reading input from YBCO_BaO_cleave_2.5_sep_scf.pwi
Warning: card &IONS ignored
Warning: card     ION_DYNAMICS = 'BFGS' ignored
Warning: card / ignored
Warning: card &CELL ignored
Warning: card     CELL_DYNAMICS = 'BFGS' ignored
Warning: card / ignored

     Current dimensions of program PWSCF are:
     Max number of different atomic species (ntypx) = 10
     Max number of k-points (npk) =  40000
     Max angular momentum in pseudopotentials (lmaxx) =  3

     Subspace diagonalization in iterative solution of the eigenvalue problem:
     one sub-group per band group will be used
     scalapack distributed-memory algorithm (size of sub-group:  4*  4 procs)

     Message from routine setup:
     using ibrav=0 with symmetry is DISCOURAGED, use correct ibrav instead
 
     Parallelization info
     --------------------
     sticks:   dense  smooth     PW     G-vecs:    dense   smooth      PW
     Min         150      50     14                75116    14450    2252
     Max         151      51     15                75157    14473    2301
     Sum        3015    1011    293              1502717   289173   45577
 


     bravais-lattice index     =            0
     lattice parameter (alat)  =       7.3477  a.u.
     unit-cell volume          =    4605.5967 (a.u.)^3
     number of atoms/cell      =           28
     number of atomic types    =            4
     number of electrons       =       229.00
     number of Kohn-Sham states=          138
     kinetic-energy cutoff     =      60.0000  Ry
     charge density cutoff     =     720.0000  Ry
     convergence threshold     =      1.0E-06
     mixing beta               =       0.2000
     number of iterations used =           10  local-TF  mixing
     Exchange-correlation= SLA PW PBE PBE
                           (   1   4   3   4   0   0   0)

     celldm(1)=   7.347715  celldm(2)=   0.000000  celldm(3)=   0.000000
     celldm(4)=   0.000000  celldm(5)=   0.000000  celldm(6)=   0.000000

     crystal axes: (cart. coord. in units of alat)
               a(1) = (   1.000000   0.000000   0.000000 )  
               a(2) = (   0.000000   0.975577   0.000000 )  
               a(3) = (   0.000000   0.000000  11.900557 )  

     reciprocal axes: (cart. coord. in units 2 pi/alat)
               b(1) = (  1.000000  0.000000  0.000000 )  
               b(2) = (  0.000000  1.025034  0.000000 )  
               b(3) = (  0.000000  0.000000  0.084030 )  


     PseudoPot. # 1 for Ba read from file:
     /n/holyscratch01/hoffman_lab/ruizhe/YBCO_Project/pseudo/Ba.pbe-nsp-van.UPF
     MD5 check sum: 2b9c31dd849566dd297d80989662b7a0
     Pseudo is Ultrasoft + core correction, Zval = 10.0
     Generated by new atomic code, or converted to UPF format
     Using radial grid of  907 points,  6 beta functions with: 
                l(1) =   0
                l(2) =   0
                l(3) =   1
                l(4) =   1
                l(5) =   2
                l(6) =   2
     Q(r) pseudized with  6 coefficients,  rinner =    1.200   1.200   1.200
                                                       1.200   1.200

     PseudoPot. # 2 for Cu read from file:
     /n/holyscratch01/hoffman_lab/ruizhe/YBCO_Project/pseudo/Cu.pbe-n-van_ak.UPF
     MD5 check sum: 34e3282627ffb533726feb647e090d62
     Pseudo is Ultrasoft + core correction, Zval = 11.0
     Generated by new atomic code, or converted to UPF format
     Using radial grid of  867 points,  6 beta functions with: 
                l(1) =   0
                l(2) =   0
                l(3) =   1
                l(4) =   1
                l(5) =   2
                l(6) =   2
     Q(r) pseudized with  8 coefficients,  rinner =    1.400   1.400   1.400
                                                       1.400   1.400

     PseudoPot. # 3 for O  read from file:
     /n/holyscratch01/hoffman_lab/ruizhe/YBCO_Project/pseudo/O.pbe-van_ak.UPF
     MD5 check sum: 783ce7fe4c79b6a4916957118fed0856
     Pseudo is Ultrasoft, Zval =  6.0
     Generated by new atomic code, or converted to UPF format
     Using radial grid of  737 points,  4 beta functions with: 
                l(1) =   0
                l(2) =   0
                l(3) =   1
                l(4) =   1
     Q(r) pseudized with  8 coefficients,  rinner =    0.800   0.800   0.800


     PseudoPot. # 4 for Y  read from file:
     /n/holyscratch01/hoffman_lab/ruizhe/YBCO_Project/pseudo/Y.pbe-nsp-van.UPF
     MD5 check sum: 4412fed3ab108fed87a1b7d6a69a4a38
     Pseudo is Ultrasoft + core correction, Zval = 11.0
     Generated by new atomic code, or converted to UPF format
     Using radial grid of  885 points,  6 beta functions with: 
                l(1) =   0
                l(2) =   0
                l(3) =   1
                l(4) =   1
                l(5) =   2
                l(6) =   2
     Q(r) pseudized with  6 coefficients,  rinner =    1.200   1.200   1.200
                                                       1.200   1.200

     atomic species   valence    mass     pseudopotential
        Ba            10.00   137.32700     Ba( 1.00)
        Cu            11.00    63.54600     Cu( 1.00)
        O              6.00    15.99900     O ( 1.00)
        Y             11.00    88.90584     Y ( 1.00)

      4 Sym. Ops. (no inversion) found



   Cartesian axes

     site n.     atom                  positions (alat units)
         1           O   tau(   1) = (   0.0000000   0.4877884  -0.0257983  )
         2           Cu  tau(   2) = (   0.0000000   0.0000000   0.0215779  )
         3           O   tau(   3) = (   0.0000000   0.0000000   0.5073114  )
         4           Ba  tau(   4) = (   0.4999996   0.4877884   0.5319677  )
         5           Cu  tau(   5) = (   0.0000000   0.0000000   1.0495845  )
         6           O   tau(   6) = (   0.4999996   0.0000000   1.1181579  )
         7           O   tau(   7) = (   0.0000000   0.4877884   1.1273137  )
         8           Y   tau(   8) = (   0.4999996   0.4877884   1.4938777  )
         9           O   tau(   9) = (   0.0000000   0.4877884   1.8497402  )
        10           O   tau(  10) = (   0.4999996   0.0000000   1.8692709  )
        11           Cu  tau(  11) = (   0.0000000   0.0000000   1.9417560  )
        12           Ba  tau(  12) = (   0.4999996   0.4877884   2.4526063  )
        13           O   tau(  13) = (   0.0000000   0.0000000   2.5103470  )
        14           O   tau(  14) = (   0.0000000   0.4877884   2.9968469  )
        15           Cu  tau(  15) = (   0.0000000   0.0000000   2.9968521  )
        16           O   tau(  16) = (   0.0000000   0.0000000   3.4833288  )
        17           Ba  tau(  17) = (   0.4999996   0.4877884   3.5410618  )
        18           Cu  tau(  18) = (   0.0000000   0.0000000   4.6948991  )
        19           O   tau(  19) = (   0.4999996   0.0000000   4.7673714  )
        20           O   tau(  20) = (   0.0000000   0.4877884   4.7868841  )
        21           Y   tau(  21) = (   0.4999996   0.4877884   5.1427491  )
        22           O   tau(  22) = (   0.0000000   0.4877884   5.5093131  )
        23           O   tau(  23) = (   0.4999996   0.0000000   5.5184818  )
        24           Cu  tau(  24) = (   0.0000000   0.0000000   5.5870603  )
        25           Ba  tau(  25) = (   0.4999996   0.4877884   6.1046617  )
        26           O   tau(  26) = (   0.0000000   0.0000000   6.1293180  )
        27           Cu  tau(  27) = (   0.0000000   0.0000000   6.6150232  )
        28           O   tau(  28) = (   0.0000000   0.4877884   6.6624045  )

     number of k points=    25  Gaussian smearing, width (Ry)=  0.0100
                       cart. coord. in units 2pi/alat
        k(    1) = (   0.0000000   0.0000000   0.0000000), wk =   0.0312500
        k(    2) = (   0.0000000   0.1281293   0.0000000), wk =   0.0625000
        k(    3) = (   0.0000000   0.2562585   0.0000000), wk =   0.0625000
        k(    4) = (   0.0000000   0.3843878   0.0000000), wk =   0.0625000
        k(    5) = (   0.0000000  -0.5125170   0.0000000), wk =   0.0312500
        k(    6) = (   0.1250000   0.0000000   0.0000000), wk =   0.0625000
        k(    7) = (   0.1250000   0.1281293   0.0000000), wk =   0.1250000
        k(    8) = (   0.1250000   0.2562585   0.0000000), wk =   0.1250000
        k(    9) = (   0.1250000   0.3843878   0.0000000), wk =   0.1250000
        k(   10) = (   0.1250000  -0.5125170   0.0000000), wk =   0.0625000
        k(   11) = (   0.2500000   0.0000000   0.0000000), wk =   0.0625000
        k(   12) = (   0.2500000   0.1281293   0.0000000), wk =   0.1250000
        k(   13) = (   0.2500000   0.2562585   0.0000000), wk =   0.1250000
        k(   14) = (   0.2500000   0.3843878   0.0000000), wk =   0.1250000
        k(   15) = (   0.2500000  -0.5125170   0.0000000), wk =   0.0625000
        k(   16) = (   0.3750000   0.0000000   0.0000000), wk =   0.0625000
        k(   17) = (   0.3750000   0.1281293   0.0000000), wk =   0.1250000
        k(   18) = (   0.3750000   0.2562585   0.0000000), wk =   0.1250000
        k(   19) = (   0.3750000   0.3843878   0.0000000), wk =   0.1250000
        k(   20) = (   0.3750000  -0.5125170   0.0000000), wk =   0.0625000
        k(   21) = (  -0.5000000   0.0000000   0.0000000), wk =   0.0312500
        k(   22) = (  -0.5000000   0.1281293   0.0000000), wk =   0.0625000
        k(   23) = (  -0.5000000   0.2562585   0.0000000), wk =   0.0625000
        k(   24) = (  -0.5000000   0.3843878   0.0000000), wk =   0.0625000
        k(   25) = (  -0.5000000  -0.5125170   0.0000000), wk =   0.0312500

     Dense  grid:  1502717 G-vectors     FFT dimensions: (  64,  64, 750)

     Smooth grid:   289173 G-vectors     FFT dimensions: (  40,  36, 432)

     Estimated max dynamical RAM per process >     479.64 MB

     Estimated total dynamical RAM >       9.37 GB

     Initial potential from superposition of free atoms

     starting charge  228.84827, renormalised to  229.00000

     negative rho (up, down):  8.953E-02 0.000E+00
     Starting wfcs are  201 randomized atomic wfcs

     total cpu time spent up to now is       12.5 secs

     Self-consistent Calculation

     iteration #  1     ecut=    60.00 Ry     beta= 0.20
     Davidson diagonalization with overlap
     ethr =  1.00E-02,  avg # of iterations =  2.0

     negative rho (up, down):  8.741E-02 0.000E+00

     total cpu time spent up to now is       31.7 secs

     total energy              =   -1869.57458043 Ry
     Harris-Foulkes estimate   =   -1871.17969710 Ry
     estimated scf accuracy    <      14.58091351 Ry

     iteration #  2     ecut=    60.00 Ry     beta= 0.20
     Davidson diagonalization with overlap
     ethr =  6.37E-03,  avg # of iterations =  1.0

     negative rho (up, down):  8.624E-02 0.000E+00

     total cpu time spent up to now is       49.9 secs

     total energy              =   -1869.06123218 Ry
     Harris-Foulkes estimate   =   -1869.93601376 Ry
     estimated scf accuracy    <       5.77260644 Ry

     iteration #  3     ecut=    60.00 Ry     beta= 0.20
     Davidson diagonalization with overlap
     ethr =  2.52E-03,  avg # of iterations =  1.0

     negative rho (up, down):  8.585E-02 0.000E+00

     total cpu time spent up to now is       67.3 secs

     total energy              =   -1868.74934674 Ry
     Harris-Foulkes estimate   =   -1869.27769214 Ry
     estimated scf accuracy    <       3.87267079 Ry

     iteration #  4     ecut=    60.00 Ry     beta= 0.20
     Davidson diagonalization with overlap
     ethr =  1.69E-03,  avg # of iterations =  1.5

     negative rho (up, down):  8.617E-02 0.000E+00

     total cpu time spent up to now is       85.7 secs

     total energy              =   -1868.89567722 Ry
     Harris-Foulkes estimate   =   -1868.97467363 Ry
     estimated scf accuracy    <       2.41865007 Ry

     iteration #  5     ecut=    60.00 Ry     beta= 0.20
     Davidson diagonalization with overlap
     ethr =  1.06E-03,  avg # of iterations =  1.0

     negative rho (up, down):  8.669E-02 0.000E+00

     total cpu time spent up to now is      102.9 secs

     total energy              =   -1868.85496810 Ry
     Harris-Foulkes estimate   =   -1868.94501388 Ry
     estimated scf accuracy    <       1.28014012 Ry

     iteration #  6     ecut=    60.00 Ry     beta= 0.20
     Davidson diagonalization with overlap
     ethr =  5.59E-04,  avg # of iterations =  1.2

     negative rho (up, down):  8.798E-02 0.000E+00

     total cpu time spent up to now is      120.4 secs

     total energy              =   -1868.80737061 Ry
     Harris-Foulkes estimate   =   -1868.87482660 Ry
     estimated scf accuracy    <       0.76831170 Ry

     iteration #  7     ecut=    60.00 Ry     beta= 0.20
     Davidson diagonalization with overlap
     ethr =  3.36E-04,  avg # of iterations =  3.9

     negative rho (up, down):  8.958E-02 0.000E+00

     total cpu time spent up to now is      141.8 secs

     total energy              =   -1868.78534926 Ry
     Harris-Foulkes estimate   =   -1868.82447775 Ry
     estimated scf accuracy    <       0.36585477 Ry

     iteration #  8     ecut=    60.00 Ry     beta= 0.20
     Davidson diagonalization with overlap
     ethr =  1.60E-04,  avg # of iterations =  5.7

     negative rho (up, down):  9.023E-02 0.000E+00

     total cpu time spent up to now is      167.5 secs

     total energy              =   -1868.79191255 Ry
     Harris-Foulkes estimate   =   -1868.81454248 Ry
     estimated scf accuracy    <       0.26954854 Ry

     iteration #  9     ecut=    60.00 Ry     beta= 0.20
     Davidson diagonalization with overlap
     ethr =  1.18E-04,  avg # of iterations =  1.3

     negative rho (up, down):  9.069E-02 0.000E+00

     total cpu time spent up to now is      185.0 secs

     total energy              =   -1868.79875455 Ry
     Harris-Foulkes estimate   =   -1868.80348283 Ry
     estimated scf accuracy    <       0.46986668 Ry

     iteration # 10     ecut=    60.00 Ry     beta= 0.20
     Davidson diagonalization with overlap
     ethr =  1.18E-04,  avg # of iterations =  1.0

     negative rho (up, down):  9.081E-02 0.000E+00

     total cpu time spent up to now is      202.4 secs

     total energy              =   -1868.78852042 Ry
     Harris-Foulkes estimate   =   -1868.80305171 Ry
     estimated scf accuracy    <       0.33401750 Ry

     iteration # 11     ecut=    60.00 Ry     beta= 0.20
     Davidson diagonalization with overlap
     ethr =  1.18E-04,  avg # of iterations =  1.9

     negative rho (up, down):  9.047E-02 0.000E+00

     total cpu time spent up to now is      220.7 secs

     total energy              =   -1868.79148420 Ry
     Harris-Foulkes estimate   =   -1868.79435344 Ry
     estimated scf accuracy    <       0.04249941 Ry

     iteration # 12     ecut=    60.00 Ry     beta= 0.20
     Davidson diagonalization with overlap
     c_bands:  1 eigenvalues not converged
     ethr =  1.86E-05,  avg # of iterations =  9.3

     negative rho (up, down):  9.008E-02 0.000E+00

     total cpu time spent up to now is      252.2 secs

     total energy              =   -1868.78998666 Ry
     Harris-Foulkes estimate   =   -1868.79342541 Ry
     estimated scf accuracy    <       0.03343414 Ry

     iteration # 13     ecut=    60.00 Ry     beta= 0.20
     Davidson diagonalization with overlap
     ethr =  1.46E-05,  avg # of iterations =  3.0

     negative rho (up, down):  8.950E-02 0.000E+00

     total cpu time spent up to now is      272.0 secs

     total energy              =   -1868.78750072 Ry
     Harris-Foulkes estimate   =   -1868.79068423 Ry
     estimated scf accuracy    <       0.02146155 Ry

     iteration # 14     ecut=    60.00 Ry     beta= 0.20
     Davidson diagonalization with overlap
     ethr =  9.37E-06,  avg # of iterations =  5.3

     negative rho (up, down):  8.946E-02 0.000E+00

     total cpu time spent up to now is      296.2 secs

     total energy              =   -1868.78799772 Ry
     Harris-Foulkes estimate   =   -1868.78962281 Ry
     estimated scf accuracy    <       0.01359251 Ry

     iteration # 15     ecut=    60.00 Ry     beta= 0.20
     Davidson diagonalization with overlap
     ethr =  5.94E-06,  avg # of iterations =  2.4

     negative rho (up, down):  8.918E-02 0.000E+00

     total cpu time spent up to now is      315.3 secs

     total energy              =   -1868.78832738 Ry
     Harris-Foulkes estimate   =   -1868.78889997 Ry
     estimated scf accuracy    <       0.01348900 Ry

     iteration # 16     ecut=    60.00 Ry     beta= 0.20
     Davidson diagonalization with overlap
     ethr =  5.89E-06,  avg # of iterations =  1.0

     negative rho (up, down):  9.126E-02 0.000E+00

     total cpu time spent up to now is      332.1 secs

     total energy              =   -1868.78678947 Ry
     Harris-Foulkes estimate   =   -1868.78844396 Ry
     estimated scf accuracy    <       0.01575997 Ry

     iteration # 17     ecut=    60.00 Ry     beta= 0.20
     Davidson diagonalization with overlap
     ethr =  5.89E-06,  avg # of iterations =  6.3

     negative rho (up, down):  9.393E-02 0.000E+00

     total cpu time spent up to now is      356.2 secs

     total energy              =   -1868.78667512 Ry
     Harris-Foulkes estimate   =   -1868.78712961 Ry
     estimated scf accuracy    <       0.01686398 Ry

     iteration # 18     ecut=    60.00 Ry     beta= 0.20
     Davidson diagonalization with overlap
     ethr =  5.89E-06,  avg # of iterations =  3.5

     negative rho (up, down):  9.445E-02 0.000E+00

     total cpu time spent up to now is      377.0 secs

     total energy              =   -1868.78598111 Ry
     Harris-Foulkes estimate   =   -1868.78672142 Ry
     estimated scf accuracy    <       0.01419225 Ry

     iteration # 19     ecut=    60.00 Ry     beta= 0.20
     Davidson diagonalization with overlap
     ethr =  5.89E-06,  avg # of iterations =  3.3

     negative rho (up, down):  9.191E-02 0.000E+00

     total cpu time spent up to now is      397.5 secs

     total energy              =   -1868.78555718 Ry
     Harris-Foulkes estimate   =   -1868.78604047 Ry
     estimated scf accuracy    <       0.01226580 Ry

     iteration # 20     ecut=    60.00 Ry     beta= 0.20
     Davidson diagonalization with overlap
     c_bands:  1 eigenvalues not converged
     ethr =  5.36E-06,  avg # of iterations =  2.7

     negative rho (up, down):  9.068E-02 0.000E+00

     total cpu time spent up to now is      417.2 secs

     total energy              =   -1868.78543276 Ry
     Harris-Foulkes estimate   =   -1868.78560800 Ry
     estimated scf accuracy    <       0.00997692 Ry

     iteration # 21     ecut=    60.00 Ry     beta= 0.20
     Davidson diagonalization with overlap
     ethr =  4.36E-06,  avg # of iterations =  2.9

     negative rho (up, down):  9.428E-02 0.000E+00

     total cpu time spent up to now is      436.8 secs

     total energy              =   -1868.78409119 Ry
     Harris-Foulkes estimate   =   -1868.78544963 Ry
     estimated scf accuracy    <       0.00904171 Ry

     iteration # 22     ecut=    60.00 Ry     beta= 0.20
     Davidson diagonalization with overlap
     c_bands:  1 eigenvalues not converged
     ethr =  3.95E-06,  avg # of iterations =  7.2

     negative rho (up, down):  9.678E-02 0.000E+00

     total cpu time spent up to now is      463.1 secs

     total energy              =   -1868.78411733 Ry
     Harris-Foulkes estimate   =   -1868.78424827 Ry
     estimated scf accuracy    <       0.00290753 Ry

     iteration # 23     ecut=    60.00 Ry     beta= 0.20
     Davidson diagonalization with overlap
     ethr =  1.27E-06,  avg # of iterations =  6.7

     negative rho (up, down):  9.488E-02 0.000E+00

     total cpu time spent up to now is      488.2 secs

     total energy              =   -1868.78399430 Ry
     Harris-Foulkes estimate   =   -1868.78414210 Ry
     estimated scf accuracy    <       0.00199114 Ry

     iteration # 24     ecut=    60.00 Ry     beta= 0.20
     Davidson diagonalization with overlap
     ethr =  8.69E-07,  avg # of iterations =  5.1

     negative rho (up, down):  9.367E-02 0.000E+00

     total cpu time spent up to now is      511.4 secs

     total energy              =   -1868.78404492 Ry
     Harris-Foulkes estimate   =   -1868.78402492 Ry
     estimated scf accuracy    <       0.00124305 Ry

     iteration # 25     ecut=    60.00 Ry     beta= 0.20
     Davidson diagonalization with overlap
     ethr =  5.43E-07,  avg # of iterations =  4.6

     negative rho (up, down):  9.166E-02 0.000E+00

     total cpu time spent up to now is      533.7 secs

     total energy              =   -1868.78402482 Ry
     Harris-Foulkes estimate   =   -1868.78407901 Ry
     estimated scf accuracy    <       0.00067212 Ry

     iteration # 26     ecut=    60.00 Ry     beta= 0.20
     Davidson diagonalization with overlap
     ethr =  2.94E-07,  avg # of iterations =  4.9

     negative rho (up, down):  9.207E-02 0.000E+00

     total cpu time spent up to now is      556.7 secs

     total energy              =   -1868.78402400 Ry
     Harris-Foulkes estimate   =   -1868.78404841 Ry
     estimated scf accuracy    <       0.00042652 Ry

     iteration # 27     ecut=    60.00 Ry     beta= 0.20
     Davidson diagonalization with overlap
     ethr =  1.86E-07,  avg # of iterations =  3.1

     negative rho (up, down):  9.133E-02 0.000E+00

     total cpu time spent up to now is      576.8 secs

     total energy              =   -1868.78402334 Ry
     Harris-Foulkes estimate   =   -1868.78403690 Ry
     estimated scf accuracy    <       0.00027199 Ry

     iteration # 28     ecut=    60.00 Ry     beta= 0.20
     Davidson diagonalization with overlap
     ethr =  1.19E-07,  avg # of iterations =  2.4

     negative rho (up, down):  9.084E-02 0.000E+00

     total cpu time spent up to now is      595.6 secs

     total energy              =   -1868.78403619 Ry
     Harris-Foulkes estimate   =   -1868.78403030 Ry
     estimated scf accuracy    <       0.00011642 Ry

     iteration # 29     ecut=    60.00 Ry     beta= 0.20
     Davidson diagonalization with overlap
     ethr =  5.08E-08,  avg # of iterations =  4.4

     negative rho (up, down):  9.076E-02 0.000E+00

     total cpu time spent up to now is      617.8 secs

     total energy              =   -1868.78403812 Ry
     Harris-Foulkes estimate   =   -1868.78404078 Ry
     estimated scf accuracy    <       0.00004062 Ry

     iteration # 30     ecut=    60.00 Ry     beta= 0.20
     Davidson diagonalization with overlap
     ethr =  1.77E-08,  avg # of iterations =  2.8

     negative rho (up, down):  9.078E-02 0.000E+00

     total cpu time spent up to now is      637.5 secs

     total energy              =   -1868.78404156 Ry
     Harris-Foulkes estimate   =   -1868.78403965 Ry
     estimated scf accuracy    <       0.00002445 Ry

     iteration # 31     ecut=    60.00 Ry     beta= 0.20
     Davidson diagonalization with overlap
     ethr =  1.07E-08,  avg # of iterations =  2.6

     negative rho (up, down):  9.096E-02 0.000E+00

     total cpu time spent up to now is      657.4 secs

     total energy              =   -1868.78404286 Ry
     Harris-Foulkes estimate   =   -1868.78404239 Ry
     estimated scf accuracy    <       0.00001334 Ry

     iteration # 32     ecut=    60.00 Ry     beta= 0.20
     Davidson diagonalization with overlap
     ethr =  5.83E-09,  avg # of iterations =  2.2

     negative rho (up, down):  9.092E-02 0.000E+00

     total cpu time spent up to now is      676.8 secs

     total energy              =   -1868.78404288 Ry
     Harris-Foulkes estimate   =   -1868.78404370 Ry
     estimated scf accuracy    <       0.00000744 Ry

     iteration # 33     ecut=    60.00 Ry     beta= 0.20
     Davidson diagonalization with overlap
     ethr =  3.25E-09,  avg # of iterations =  1.0

     negative rho (up, down):  9.056E-02 0.000E+00

     total cpu time spent up to now is      693.9 secs

     total energy              =   -1868.78404100 Ry
     Harris-Foulkes estimate   =   -1868.78404308 Ry
     estimated scf accuracy    <       0.00000417 Ry

     iteration # 34     ecut=    60.00 Ry     beta= 0.20
     Davidson diagonalization with overlap
     ethr =  1.82E-09,  avg # of iterations =  2.7

     negative rho (up, down):  9.053E-02 0.000E+00

     total cpu time spent up to now is      714.0 secs

     total energy              =   -1868.78404120 Ry
     Harris-Foulkes estimate   =   -1868.78404130 Ry
     estimated scf accuracy    <       0.00000159 Ry

     iteration # 35     ecut=    60.00 Ry     beta= 0.20
     Davidson diagonalization with overlap
     ethr =  6.93E-10,  avg # of iterations =  1.2

     negative rho (up, down):  9.047E-02 0.000E+00

     total cpu time spent up to now is      730.2 secs

     End of self-consistent calculation

          k = 0.0000 0.0000 0.0000 ( 36065 PWs)   bands (ev):

   -38.2061 -37.9096 -23.8363 -22.8614 -22.8368 -22.7440 -18.7413 -18.4143
   -18.2107 -18.2010 -17.9317 -17.9154 -15.5372 -15.2875 -14.7647 -14.5773
   -14.3625 -14.3461 -14.3225 -14.2095 -14.1637 -14.0611 -13.8442 -13.8414
   -13.6545 -13.6208 -13.5432  -9.1256  -8.6734  -8.6547  -8.0839  -8.0526
    -8.0198  -7.8539  -7.8311  -7.8271  -7.8033  -7.6975  -7.6757  -2.1658
    -2.1320  -1.9957  -1.9751  -1.9615  -1.9474  -1.9452  -1.8770  -1.8586
    -1.8176  -1.8006  -1.6071  -1.4788  -0.9805  -0.9675  -0.7113  -0.6205
    -0.5521  -0.5441  -0.4787  -0.4631  -0.1889  -0.1551  -0.1533  -0.1185
    -0.1162  -0.0387   0.0024   0.0467   0.0491   0.0608   0.1442   0.1944
     0.1989   0.2051   0.2781   0.2947   0.3086   0.3109   0.3406   0.3509
     0.3864   0.4488   0.4510   0.4591   0.4844   0.5719   0.5762   0.6805
     0.7262   0.8534   0.9145   1.0060   1.1392   1.1459   1.1931   1.2603
     1.2708   1.3027   1.3030   1.3403   1.3996   1.4179   1.4681   1.5146
     1.7463   1.7883   1.8698   1.8830   1.9001   1.9202   1.9324   2.0985
     2.1175   2.1683   2.1927   2.2815   2.3111   2.5787   2.5845   4.6881
     5.1860   5.2222   5.5144   5.7691   6.1244   6.4744   6.6028   6.6449
     7.1118   7.5126   7.7980   7.8746   8.0712   8.0922   8.2743   8.3447
     8.5397   8.6017

          k = 0.0000 0.1281 0.0000 ( 36067 PWs)   bands (ev):

   -38.2038 -37.9073 -23.8182 -22.8398 -22.8152 -22.7232 -18.7053 -18.3782
   -18.3054 -18.2075 -18.0200 -17.9284 -15.4285 -15.1868 -14.7177 -14.5855
   -14.3788 -14.3553 -14.2919 -14.2057 -14.1403 -14.1073 -13.8496 -13.8477
   -13.6833 -13.6818 -13.6160  -9.1118  -8.6861  -8.6217  -8.0663  -8.0362
    -8.0088  -7.8466  -7.8230  -7.8126  -7.7898  -7.6956  -7.6588  -2.2689
    -2.2383  -2.2059  -2.1164  -1.9465  -1.9333  -1.9298  -1.9023  -1.8708
    -1.8054  -1.7851  -1.6141  -1.5130  -1.4636  -1.0695  -1.0638  -0.9297
    -0.9118  -0.6467  -0.5183  -0.5152  -0.4751  -0.3848  -0.3397  -0.2648
    -0.2067  -0.2036  -0.1875  -0.1599  -0.1360  -0.0974   0.0260   0.0276
     0.1651   0.2020   0.2087   0.3331   0.3560   0.4407   0.4442   0.4551
     0.4581   0.4592   0.5205   0.5398   0.5890   0.7293   0.7563   0.7627
     0.7684   0.8343   0.9563   0.9614   1.0026   1.0802   1.0930   1.2360
     1.3122   1.3844   1.4243   1.4570   1.4961   1.5198   1.5381   1.5915
     1.6509   1.6955   1.8166   1.8248   1.8762   1.9212   1.9370   2.0664
     2.0767   2.1315   2.3839   2.4549   2.8149   2.9007   2.9191   4.9186
     5.5623   5.5783   5.7861   6.0433   6.3567   6.6912   6.9157   6.9543
     7.3530   7.7186   8.0037   8.0318   8.1011   8.2367   8.2828   8.4183
     8.5924   8.7375

          k = 0.0000 0.2563 0.0000 ( 36090 PWs)   bands (ev):

   -38.1982 -37.9017 -23.7739 -22.7868 -22.7621 -22.6721 -18.6142 -18.5304
   -18.2913 -18.2408 -18.1998 -17.9206 -15.1806 -14.9661 -14.6614 -14.5923
   -14.4697 -14.4123 -14.2521 -14.2259 -14.1734 -14.0435 -13.8403 -13.8314
   -13.8268 -13.7830 -13.7203  -9.0727  -8.7161  -8.5398  -8.0249  -7.9962
    -7.9796  -7.8876  -7.8641  -7.7390  -7.7094  -7.6864  -7.5621  -2.6967
    -2.6219  -2.5688  -2.4397  -2.2384  -2.0956  -2.0889  -1.9750  -1.8591
    -1.8285  -1.8249  -1.8136  -1.7418  -1.7323  -1.5516  -1.4136  -1.3652
    -0.9611  -0.8886  -0.8607  -0.7395  -0.6543  -0.6301  -0.5702  -0.5235
    -0.4821  -0.4350  -0.4301  -0.3842  -0.3550  -0.2833  -0.2326  -0.1405
    -0.1351   0.0073   0.0537   0.1548   0.2382   0.3055   0.3685   0.3902
     0.4840   0.4947   0.5130   0.5224   0.5623   0.6839   0.8899   0.9097
     0.9619   1.0298   1.0662   1.1041   1.1605   1.2569   1.2824   1.3562
     1.4215   1.4234   1.4413   1.5289   1.5445   1.5843   1.6268   1.6484
     1.7033   1.7444   1.7559   1.9009   1.9918   2.0181   2.1485   2.1732
     2.1774   2.2087   2.5445   2.6092   3.1989   3.2064   3.6825   5.4389
     6.4591   6.4595   6.4733   6.7113   6.9980   7.0816   7.7673   7.7948
     7.9017   7.9543   8.0315   8.1498   8.3619   8.5202   8.6083   8.6969
     8.7765   8.9271

          k = 0.0000 0.3844 0.0000 ( 36012 PWs)   bands (ev):

   -38.1926 -37.8961 -23.7286 -22.7322 -22.7075 -22.6197 -18.7283 -18.5160
   -18.4459 -18.1920 -18.1855 -17.9128 -14.9313 -14.8036 -14.7832 -14.5856
   -14.5207 -14.4253 -14.3406 -14.1976 -14.1733 -14.0430 -13.9220 -13.9183
   -13.7818 -13.7678 -13.7373  -9.0217  -8.7501  -8.4546  -7.9851  -7.9560
    -7.9455  -7.9206  -7.8973  -7.7788  -7.6004  -7.5771  -7.4604  -3.1788
    -3.0523  -2.9958  -2.8282  -2.6564  -2.6519  -2.5644  -2.0035  -1.9993
    -1.9056  -1.8671  -1.7686  -1.6524  -1.6489  -1.6375  -1.6329  -1.3489
    -1.1356  -1.0453  -0.9983  -0.9259  -0.8646  -0.8291  -0.8273  -0.7901
    -0.6763  -0.6697  -0.6091  -0.6000  -0.5147  -0.3840  -0.3788  -0.3778
    -0.3668  -0.1710  -0.1277  -0.0236   0.0256   0.1450   0.1840   0.3467
     0.4683   0.4892   0.5369   0.5452   0.6785   0.7520   0.8781   0.9616
     0.9629   0.9744   1.1027   1.1863   1.2604   1.3034   1.3412   1.3757
     1.4365   1.4935   1.4970   1.5701   1.6387   1.7015   1.8219   1.8968
     1.9536   2.0004   2.0345   2.0751   2.1032   2.1453   2.1744   2.2881
     2.5194   2.5598   2.5797   2.5850   3.1707   3.1751   4.2474   6.0373
     6.7482   7.3186   7.3977   7.5222   7.6072   7.7892   7.8360   8.0324
     8.0349   8.4997   8.5472   8.6066   8.7383   8.8304   8.9439   8.9978
     9.1239   9.4019

          k = 0.0000-0.5125 0.0000 ( 36138 PWs)   bands (ev):

   -38.1903 -37.8937 -23.7095 -22.7092 -22.6844 -22.5976 -18.8043 -18.5218
   -18.4728 -18.1888 -18.1423 -17.9095 -14.8844 -14.7997 -14.7599 -14.5891
   -14.5856 -14.3879 -14.2743 -14.2571 -14.1661 -14.1565 -13.9605 -13.8431
   -13.7814 -13.7402 -13.7366  -8.9946  -8.7682  -8.4183  -7.9694  -7.9393
    -7.9323  -7.9281  -7.9090  -7.7960  -7.5533  -7.5300  -7.4167  -3.4215
    -3.2009  -3.1465  -2.9623  -2.8925  -2.8837  -2.6972  -2.0382  -2.0335
    -1.9653  -1.9241  -1.7470  -1.7316  -1.6224  -1.5672  -1.4422  -1.4162
    -1.2001  -1.1141  -1.1083  -1.0906  -1.0054  -0.8816  -0.8763  -0.8096
    -0.7805  -0.7708  -0.6916  -0.6084  -0.5243  -0.4712  -0.4658  -0.4603
    -0.4029  -0.3799  -0.1658  -0.1071   0.0301   0.0362   0.1104   0.4180
     0.4583   0.4618   0.5429   0.5508   0.5576   0.8357   0.8596   0.9856
     1.0122   1.0199   1.0429   1.2704   1.2893   1.3387   1.3924   1.4482
     1.4516   1.4590   1.4664   1.5537   1.6583   1.6765   1.9485   1.9696
     2.0261   2.0536   2.1112   2.1506   2.2478   2.3746   2.3846   2.4260
     2.4428   2.4491   2.7419   2.7474   3.0344   3.0377   4.4337   6.3658
     6.7628   7.5307   7.7180   7.7466   7.8405   7.8482   7.9914   8.1861
     8.2205   8.5582   8.8243   8.9237   9.0647   9.1123   9.1349   9.1604
     9.2949   9.5090

          k = 0.1250 0.0000 0.0000 ( 36058 PWs)   bands (ev):

   -38.2043 -37.9078 -23.8213 -22.8430 -22.8183 -22.7263 -18.7088 -18.3811
   -18.3108 -18.1985 -18.0332 -17.9129 -15.4217 -15.1772 -14.7876 -14.6041
   -14.4183 -14.3940 -14.3006 -14.2346 -14.1408 -14.0904 -13.8448 -13.8441
   -13.6850 -13.6645 -13.5713  -9.1476  -8.6465  -8.6150  -8.0937  -8.0631
    -8.0380  -7.8188  -7.7960  -7.7928  -7.7690  -7.6600  -7.6435  -2.2557
    -2.1654  -2.1637  -2.0826  -1.9316  -1.9209  -1.9164  -1.8663  -1.8528
    -1.8204  -1.8075  -1.6035  -1.5948  -1.0043  -0.9555  -0.6957  -0.6575
    -0.5794  -0.5466  -0.5386  -0.5022  -0.3766  -0.2758  -0.2397  -0.2341
    -0.2280  -0.1904  -0.1347  -0.1346  -0.0513   0.0161   0.0193   0.0395
     0.0974   0.2881   0.3151   0.3207   0.3348   0.3895   0.4206   0.4263
     0.4358   0.4593   0.4650   0.4691   0.5549   0.5706   0.5742   0.5932
     0.8346   0.8847   0.9248   0.9666   0.9913   1.0248   1.1597   1.1636
     1.1648   1.2514   1.2991   1.3585   1.3952   1.4445   1.4459   1.6356
     1.6679   1.7739   1.7938   1.8947   1.9321   2.0017   2.0423   2.0453
     2.0718   2.2039   2.2546   2.3604   2.4764   2.6231   2.6278   4.8858
     5.3831   5.4003   5.7134   5.9944   6.3255   6.6324   6.8403   6.8754
     7.3185   7.7265   7.9898   8.0728   8.1730   8.2331   8.3233   8.4327
     8.7298   8.8184

          k = 0.1250 0.1281 0.0000 ( 36060 PWs)   bands (ev):

   -38.2020 -37.9055 -23.8037 -22.8222 -22.7975 -22.7061 -18.6733 -18.3455
   -18.3146 -18.2935 -18.0345 -18.0106 -15.3139 -15.0796 -14.7381 -14.6018
   -14.4182 -14.3905 -14.2728 -14.2029 -14.1492 -14.1439 -13.8441 -13.8436
   -13.7279 -13.6923 -13.6312  -9.1269  -8.7979  -8.4978  -8.0800  -8.0514
    -8.0244  -7.9665  -7.9430  -7.8135  -7.6690  -7.6457  -7.5228  -2.3623
    -2.3030  -2.2936  -2.1150  -2.0001  -1.9647  -1.9203  -1.9115  -1.9061
    -1.8558  -1.7443  -1.6590  -1.5412  -1.5260  -1.0649  -1.0580  -0.9800
    -0.8660  -0.7139  -0.6489  -0.5796  -0.5756  -0.5305  -0.4891  -0.4176
    -0.3783  -0.3591  -0.2524  -0.2009  -0.1816  -0.0091   0.0717   0.0898
     0.1146   0.1938   0.2079   0.2936   0.3660   0.3968   0.4260   0.4436
     0.4454   0.5099   0.5101   0.5332   0.5635   0.6241   0.7119   0.7582
     0.7623   0.9048   1.0452   1.0755   1.0926   1.1182   1.1256   1.1594
     1.1772   1.2925   1.3771   1.4019   1.4551   1.4758   1.5580   1.6005
     1.6136   1.7543   1.7618   1.7737   1.8178   1.8351   2.0583   2.1242
     2.3992   2.4306   2.6088   2.7683   2.8329   2.9160   2.9307   5.0748
     5.7093   5.7166   5.9541   6.2241   6.5367   6.7964   7.1438   7.1768
     7.5438   7.8619   7.9879   8.1522   8.1703   8.2434   8.3913   8.5310
     8.6269   8.8366

          k = 0.1250 0.2563 0.0000 ( 36120 PWs)   bands (ev):

   -38.1964 -37.8999 -23.7605 -22.7710 -22.7463 -22.6567 -18.5834 -18.5259
   -18.2952 -18.2650 -18.2310 -18.0174 -15.0685 -14.8707 -14.6462 -14.6053
   -14.4554 -14.4136 -14.2325 -14.2300 -14.2088 -14.0827 -13.8404 -13.8220
   -13.8181 -13.7792 -13.7231  -9.0781  -8.9047  -8.4644  -8.0904  -8.0667
    -8.0248  -7.9971  -7.9878  -7.9240  -7.6249  -7.6017  -7.4860  -2.7974
    -2.6997  -2.5927  -2.4401  -2.2619  -2.1152  -2.0961  -2.0209  -1.9440
    -1.9264  -1.8413  -1.8187  -1.8180  -1.6796  -1.6220  -1.4880  -1.3713
    -1.0399  -0.9597  -0.8997  -0.8831  -0.8396  -0.8086  -0.7401  -0.6347
    -0.6308  -0.5686  -0.3752  -0.3568  -0.3525  -0.2740  -0.1935  -0.1287
    -0.0266   0.0799   0.1136   0.2954   0.2977   0.3056   0.3600   0.3824
     0.4518   0.4720   0.5389   0.5451   0.5775   0.6569   0.7721   0.9009
     1.1199   1.1207   1.1289   1.2137   1.2418   1.2863   1.3099   1.3199
     1.3525   1.4268   1.5027   1.5385   1.5623   1.5941   1.6051   1.6326
     1.6435   1.7750   1.8049   1.8217   2.0165   2.1449   2.1486   2.2079
     2.6378   2.6888   2.8795   3.0037   3.2038   3.2198   3.6852   5.5541
     6.4784   6.5128   6.5151   6.8118   7.0654   7.1486   7.7507   7.8673
     7.9685   7.9898   8.0779   8.1931   8.4744   8.5556   8.6375   8.7110
     8.8019   8.9416

          k = 0.1250 0.3844 0.0000 ( 36125 PWs)   bands (ev):

   -38.1909 -37.8943 -23.7165 -22.7184 -22.6937 -22.6061 -18.7223 -18.4866
   -18.4398 -18.2853 -18.1555 -18.0075 -14.8294 -14.7587 -14.7217 -14.5069
   -14.4921 -14.4240 -14.3227 -14.2359 -14.1751 -14.0113 -13.9581 -13.8987
   -13.7747 -13.7638 -13.7308  -9.0284  -8.9150  -8.5191  -8.0950  -8.0717
    -7.9945  -7.9662  -7.9538  -7.9417  -7.6729  -7.6497  -7.5327  -3.2026
    -3.1292  -3.0873  -2.8802  -2.6529  -2.6417  -2.6026  -2.0355  -2.0202
    -1.9481  -1.8562  -1.8305  -1.7953  -1.7425  -1.5766  -1.5686  -1.5126
    -1.3488  -1.2535  -1.2412  -1.0975  -0.9891  -0.9771  -0.9606  -0.7454
    -0.7361  -0.5990  -0.5586  -0.5185  -0.4925  -0.4238  -0.3793  -0.3405
    -0.2948  -0.0210   0.0904   0.1699   0.2179   0.2604   0.3088   0.4044
     0.4663   0.5084   0.5358   0.5704   0.5856   0.7220   0.9160   0.9661
     1.0751   1.1240   1.1542   1.1840   1.3087   1.3671   1.4174   1.4316
     1.4820   1.4949   1.5416   1.5483   1.6473   1.7654   1.8070   1.8798
     1.9668   2.0200   2.0464   2.1620   2.1626   2.2945   2.5545   2.5590
     2.6650   2.7266   2.8985   2.9840   3.1953   3.2190   4.2427   6.1083
     6.5391   7.2187   7.2622   7.4264   7.5454   7.5921   7.7043   7.8765
     8.1253   8.5173   8.5465   8.6166   8.8635   9.0121   9.0594   9.0885
     9.2760   9.3275

          k = 0.1250-0.5125 0.0000 ( 36108 PWs)   bands (ev):

   -38.1885 -37.8919 -23.6980 -22.6963 -22.6715 -22.5847 -18.7979 -18.5153
   -18.4441 -18.2812 -18.1129 -18.0033 -14.8436 -14.7150 -14.6822 -14.5509
   -14.4870 -14.3671 -14.2749 -14.2229 -14.2161 -14.1300 -13.9318 -13.8856
   -13.7553 -13.7404 -13.7353  -9.0028  -8.8967  -8.5667  -8.0698  -8.0465
    -7.9811  -7.9520  -7.9378  -7.9262  -7.7209  -7.6978  -7.5751  -3.4158
    -3.3116  -3.2413  -3.0209  -2.8887  -2.8780  -2.7472  -2.0533  -2.0430
    -1.9458  -1.8397  -1.7968  -1.7307  -1.6897  -1.6339  -1.5962  -1.5203
    -1.4970  -1.4671  -1.2753  -1.1656  -1.1626  -1.0429  -1.0267  -0.8012
    -0.6994  -0.6603  -0.6306  -0.5748  -0.5271  -0.4686  -0.4245  -0.4113
    -0.3386  -0.0584   0.0386   0.0908   0.2124   0.2553   0.2601   0.4219
     0.4640   0.5246   0.5270   0.5890   0.6178   0.7547   0.7769   1.0251
     1.1172   1.1452   1.1501   1.2530   1.3073   1.3516   1.4405   1.4462
     1.4844   1.5064   1.5737   1.5889   1.6269   1.7926   1.9055   2.0345
     2.1010   2.1187   2.2348   2.3491   2.4355   2.4422   2.6296   2.6920
     2.7212   2.7264   2.8151   2.8755   3.0918   3.1280   4.4272   6.2283
     6.8958   7.1339   7.4120   7.4910   7.5140   7.6605   7.7823   8.1235
     8.2775   8.5800   9.0259   9.0600   9.1378   9.2778   9.3211   9.4191
     9.4550   9.4745

          k = 0.2500 0.0000 0.0000 ( 36166 PWs)   bands (ev):

   -38.2000 -37.9034 -23.7844 -22.7978 -22.7731 -22.6828 -18.6270 -18.5258
   -18.2979 -18.2504 -18.1925 -17.9068 -15.1575 -14.9422 -14.8568 -14.7114
   -14.5541 -14.5047 -14.3321 -14.2630 -14.1251 -14.0641 -13.8437 -13.8393
   -13.8350 -13.6744 -13.6268  -9.1773  -8.5802  -8.5423  -8.1036  -8.0744
    -8.0587  -7.7488  -7.7262  -7.7075  -7.6835  -7.5969  -7.5637  -2.5641
    -2.5000  -2.4712  -2.0883  -1.9767  -1.9645  -1.9381  -1.8737  -1.8311
    -1.8088  -1.7369  -1.5494  -1.5493  -1.0729  -1.0446  -0.8414  -0.7908
    -0.7573  -0.6948  -0.6243  -0.5610  -0.5410  -0.5287  -0.5253  -0.5008
    -0.4442  -0.4411  -0.4403  -0.2818  -0.2324  -0.1106  -0.0103   0.0184
     0.0668   0.1766   0.1823   0.1938   0.2597   0.3226   0.3676   0.3692
     0.4276   0.4354   0.4722   0.5859   0.6002   0.6057   0.6089   0.7057
     0.7506   0.8880   0.9282   1.0062   1.0063   1.0232   1.0702   1.1057
     1.2168   1.3160   1.3794   1.4558   1.4635   1.5070   1.5074   1.5289
     1.6162   1.6599   1.7063   1.9115   1.9227   1.9366   2.0405   2.0450
     2.1332   2.1866   2.4021   2.5403   2.6483   2.7652   2.7814   5.3472
     5.8372   5.8395   6.2157   6.5730   6.8606   7.0435   7.4705   7.4970
     7.8565   8.0272   8.1684   8.2734   8.2784   8.4220   8.6873   8.8586
     8.9652   9.0010

          k = 0.2500 0.1281 0.0000 ( 36140 PWs)   bands (ev):

   -38.1977 -37.9011 -23.7680 -22.7788 -22.7541 -22.6644 -18.5929 -18.5200
   -18.2925 -18.2650 -18.2433 -18.0070 -15.0525 -14.8594 -14.7998 -14.6837
   -14.5146 -14.4800 -14.2934 -14.2337 -14.1905 -14.0773 -13.8397 -13.8327
   -13.8285 -13.6994 -13.6596  -9.1583  -8.8347  -8.4362  -8.1100  -8.0834
    -8.0563  -7.9938  -7.9696  -7.8445  -7.5948  -7.5715  -7.4590  -2.7021
    -2.6016  -2.5172  -2.1414  -2.0593  -2.0213  -2.0050  -1.9506  -1.9243
    -1.8627  -1.7384  -1.6611  -1.5520  -1.4618  -1.1068  -1.0607  -1.0576
    -1.0437  -0.9545  -0.9092  -0.8834  -0.7712  -0.7465  -0.6875  -0.6469
    -0.5685  -0.4351  -0.4113  -0.3168  -0.2492  -0.0802   0.0184   0.0923
     0.1450   0.1610   0.1992   0.2755   0.2793   0.3121   0.3502   0.3977
     0.4289   0.4322   0.5993   0.6345   0.6355   0.6656   0.6855   0.7699
     0.7708   0.9533   0.9621   1.1200   1.1521   1.1847   1.2311   1.2468
     1.2532   1.3142   1.3489   1.4451   1.4467   1.4582   1.5321   1.6278
     1.6535   1.6611   1.6765   1.8413   1.8742   1.9080   2.0389   2.1541
     2.6912   2.7479   2.8751   2.9207   2.9577   3.0192   3.1201   5.4825
     6.0795   6.0803   6.3372   6.7086   6.9799   7.0938   7.7207   7.7582
     7.8075   7.9907   8.0945   8.1124   8.3440   8.5127   8.7303   8.7950
     8.9161   8.9870

          k = 0.2500 0.2563 0.0000 ( 36157 PWs)   bands (ev):

   -38.1921 -37.8955 -23.7280 -22.7323 -22.7076 -22.6191 -18.5264 -18.5069
   -18.4899 -18.2484 -18.2139 -18.1705 -14.8205 -14.7018 -14.6530 -14.6221
   -14.4302 -14.4259 -14.3345 -14.2011 -14.1670 -14.1367 -13.8543 -13.7996
   -13.7962 -13.7577 -13.7136  -9.1351  -9.0670  -8.5271  -8.2966  -8.2732
    -8.1378  -8.0429  -8.0155  -7.9913  -7.6921  -7.6689  -7.5553  -3.1227
    -2.9804  -2.7435  -2.4252  -2.3936  -2.1996  -2.1561  -2.1284  -2.0480
    -2.0386  -1.8780  -1.8587  -1.8298  -1.8275  -1.5643  -1.4684  -1.4595
    -1.4163  -1.3575  -1.2857  -1.0573  -0.9288  -0.8384  -0.8126  -0.7656
    -0.6326  -0.6280  -0.4125  -0.3374  -0.3185  -0.2516  -0.2300  -0.1527
    -0.0935   0.0071   0.0703   0.2444   0.2773   0.3359   0.4854   0.5242
     0.5762   0.6035   0.6313   0.6837   0.7086   0.7925   0.9418   1.1595
     1.1608   1.2256   1.2991   1.3045   1.3112   1.3114   1.3403   1.4011
     1.4069   1.4588   1.4885   1.5280   1.5985   1.6665   1.6685   1.7381
     1.7730   1.8276   1.8854   1.9320   2.0657   2.0710   2.1312   2.2613
     3.1727   3.1746   3.3026   3.3690   3.4919   3.6335   3.6946   5.8665
     6.2300   6.5926   6.6013   7.0612   7.2162   7.2896   7.5478   7.7945
     8.2287   8.2643   8.2736   8.5029   8.6688   8.7329   8.8344   8.8630
     8.9721   9.0439

          k = 0.2500 0.3844 0.0000 ( 36181 PWs)   bands (ev):

   -38.1866 -37.8900 -23.6872 -22.6848 -22.6600 -22.5729 -18.7078 -18.4902
   -18.4251 -18.4115 -18.2142 -18.0795 -14.6967 -14.6076 -14.5681 -14.4290
   -14.4081 -14.3862 -14.3558 -14.2802 -14.1217 -14.0113 -13.9303 -13.8504
   -13.7600 -13.7526 -13.6928  -9.2148  -9.0479  -8.7460  -8.4033  -8.3799
    -8.2370  -8.0217  -7.9938  -7.9793  -7.9288  -7.9059  -7.7771  -3.5371
    -3.3939  -3.1419  -3.0429  -2.7743  -2.6170  -2.6153  -2.2253  -2.1782
    -2.1245  -1.9344  -1.9309  -1.9287  -1.8707  -1.8536  -1.7776  -1.7041
    -1.4939  -1.4006  -1.3884  -1.2426  -1.0446  -0.9346  -0.9164  -0.8005
    -0.6658  -0.6405  -0.5750  -0.4819  -0.4270  -0.3925  -0.3662  -0.3061
    -0.2163  -0.1442   0.0006   0.2590   0.3159   0.3620   0.5783   0.6196
     0.6324   0.7061   0.7372   0.7956   0.9041   0.9847   1.2213   1.2380
     1.2386   1.2502   1.4093   1.4233   1.4818   1.5047   1.5228   1.5791
     1.6139   1.6338   1.6809   1.7013   1.7372   1.7396   1.8614   1.9190
     1.9783   2.0128   2.0410   2.1860   2.1881   2.3012   2.4884   2.4929
     3.1008   3.1022   3.5806   3.6603   3.7597   3.8826   4.2276   5.8172
     6.3823   6.7591   6.7758   7.0529   7.1450   7.4748   7.8535   7.9844
     8.2400   8.6129   8.6385   8.7296   9.0932   9.1453   9.3571   9.3830
     9.4586   9.6240

          k = 0.2500-0.5125 0.0000 ( 36190 PWs)   bands (ev):

   -38.1843 -37.8877 -23.6701 -22.6647 -22.6399 -22.5535 -18.7823 -18.4996
   -18.4844 -18.3707 -18.2086 -18.0385 -14.7402 -14.5965 -14.4648 -14.4208
   -14.3704 -14.3256 -14.3219 -14.2684 -14.1408 -14.0390 -13.9298 -13.8560
   -13.7374 -13.7318 -13.6908  -9.2033  -9.0299  -8.8842  -8.3879  -8.3644
    -8.2310  -8.0883  -8.0652  -8.0083  -7.9796  -7.9737  -7.9115  -3.7006
    -3.5601  -3.3721  -3.2154  -2.9399  -2.8542  -2.8521  -2.2184  -2.1696
    -2.0920  -2.0915  -1.9354  -1.9342  -1.9314  -1.8615  -1.8233  -1.8074
    -1.5179  -1.4955  -1.4094  -1.2600  -1.1118  -0.9596  -0.9507  -0.7770
    -0.6759  -0.6649  -0.6429  -0.5575  -0.4947  -0.4499  -0.4229  -0.2844
    -0.2512  -0.1586  -0.0178   0.2616   0.3211   0.4041   0.5997   0.6449
     0.6549   0.7587   0.7863   0.7993   1.0175   1.1020   1.2041   1.3237
     1.3310   1.3472   1.3504   1.4869   1.5034   1.5184   1.5894   1.5904
     1.5989   1.6664   1.6870   1.7653   1.7998   1.8549   1.9317   2.0085
     2.0643   2.0700   2.1890   2.3015   2.4310   2.4369   2.6666   2.6714
     2.9420   2.9446   3.6383   3.7221   3.8139   3.9303   4.4025   5.6352
     6.6676   6.7107   6.7535   6.9912   7.1807   7.3094   7.7905   8.1270
     8.4721   8.4851   9.2325   9.2343   9.2693   9.3903   9.4864   9.5900
     9.6007   9.7732

          k = 0.3750 0.0000 0.0000 ( 36186 PWs)   bands (ev):

   -38.1956 -37.8990 -23.7468 -22.7515 -22.7267 -22.6384 -18.7150 -18.5383
   -18.4419 -18.2065 -18.1864 -17.9006 -14.9502 -14.9151 -14.8342 -14.8252
   -14.6197 -14.5856 -14.4491 -14.2670 -14.1176 -13.9854 -13.9739 -13.8324
   -13.8275 -13.6830 -13.6655  -9.1854  -8.5117  -8.4925  -8.1048  -8.0760
    -8.0582  -7.6895  -7.6673  -7.6181  -7.5939  -7.5576  -7.4803  -2.8876
    -2.8145  -2.7365  -2.4002  -2.0452  -2.0364  -1.8871  -1.7766  -1.7104
    -1.7094  -1.6705  -1.5288  -1.4432  -1.1581  -1.0717  -1.0120  -1.0112
    -0.9029  -0.8704  -0.8702  -0.8316  -0.7988  -0.7116  -0.6640  -0.6618
    -0.5995  -0.5476  -0.5179  -0.5099  -0.2890  -0.2781  -0.1806  -0.1338
    -0.0807   0.0014   0.0239   0.0379   0.2989   0.3476   0.3863   0.3943
     0.4140   0.4219   0.5857   0.6307   0.6452   0.6572   0.6678   0.6888
     0.7082   0.8287   0.8411   1.0160   1.0251   1.1368   1.1891   1.2103
     1.3005   1.3764   1.3967   1.4048   1.4404   1.4730   1.5192   1.5328
     1.7357   1.7848   1.8335   1.8463   1.9154   1.9701   2.0289   2.0973
     2.1946   2.2457   2.4306   2.5780   2.6304   2.8676   2.8715   5.9086
     6.4740   6.4758   6.5997   7.1770   7.3723   7.6130   7.9550   7.9760
     7.9832   7.9994   8.2260   8.4246   8.6196   8.7006   8.8692   9.0115
     9.0531   9.0896

          k = 0.3750 0.1281 0.0000 ( 36132 PWs)   bands (ev):

   -38.1933 -37.8967 -23.7317 -22.7345 -22.7097 -22.6217 -18.7077 -18.5054
   -18.4346 -18.2847 -18.1738 -17.9989 -14.8864 -14.8471 -14.7827 -14.7419
   -14.5765 -14.5108 -14.3978 -14.2332 -14.1850 -13.9763 -13.9456 -13.8175
   -13.8111 -13.7123 -13.6768  -9.1682  -8.7746  -8.4946  -8.1050  -8.0777
    -8.0580  -7.9363  -7.9128  -7.7877  -7.6508  -7.6275  -7.5204  -3.0352
    -2.9273  -2.7918  -2.4567  -2.0773  -2.0520  -1.9898  -1.8907  -1.8875
    -1.8334  -1.6441  -1.6193  -1.5666  -1.4267  -1.3707  -1.3066  -1.2829
    -1.1442  -1.0587  -1.0567  -0.9401  -0.9322  -0.8440  -0.7526  -0.7426
    -0.6668  -0.5980  -0.4931  -0.4391  -0.3973  -0.1663  -0.1096  -0.0006
     0.0672   0.0943   0.1794   0.2111   0.2834   0.3178   0.3350   0.3613
     0.4078   0.5232   0.6100   0.7090   0.7132   0.7222   0.8183   0.8253
     0.8547   0.8856   1.0459   1.0891   1.1341   1.1467   1.2329   1.3118
     1.3142   1.3548   1.3853   1.4099   1.4473   1.5439   1.5565   1.5877
     1.7121   1.7572   1.8471   1.8705   1.9113   2.0196   2.0582   2.1536
     2.8021   2.8457   2.9054   2.9484   2.9896   3.1721   3.2431   5.9941
     6.4869   6.5983   6.6023   7.1921   7.2748   7.5794   7.6359   7.9024
     8.0497   8.0656   8.1185   8.6426   8.7506   8.8419   8.8632   8.9987
     9.1265   9.1624

          k = 0.3750 0.2563 0.0000 ( 36161 PWs)   bands (ev):

   -38.1878 -37.8912 -23.6949 -22.6929 -22.6681 -22.5808 -18.6902 -18.5000
   -18.4221 -18.4168 -18.2174 -18.0875 -14.7408 -14.6856 -14.6559 -14.5554
   -14.4386 -14.3979 -14.3511 -14.2742 -14.1517 -13.9750 -13.8756 -13.7780
   -13.7735 -13.7269 -13.7190  -9.1836  -9.0873  -8.7329  -8.3457  -8.3222
    -8.1908  -8.0613  -8.0337  -8.0056  -7.9195  -7.8966  -7.7759  -3.4748
    -3.3185  -3.0226  -2.6824  -2.3984  -2.2633  -2.2141  -2.1589  -2.0527
    -2.0493  -1.9554  -1.9329  -1.8673  -1.8393  -1.8338  -1.7768  -1.6802
    -1.3708  -1.3587  -1.3040  -1.1594  -0.8956  -0.8428  -0.7515  -0.7477
    -0.7167  -0.6348  -0.5243  -0.3952  -0.3321  -0.2988  -0.2686  -0.2432
    -0.1031  -0.0956  -0.0212   0.3271   0.3388   0.4475   0.5935   0.6468
     0.6688   0.7742   0.7894   0.8562   0.8761   1.0000   1.1975   1.2128
     1.2354   1.2807   1.3101   1.3360   1.3698   1.4124   1.4162   1.4465
     1.4891   1.5571   1.5690   1.5968   1.6318   1.6405   1.7331   1.8177
     1.9400   1.9413   1.9507   1.9727   1.9971   2.0674   2.1425   2.1886
     3.1728   3.1745   3.6784   3.7138   3.7576   3.8487   3.9713   5.7878
     6.3214   6.5725   6.5835   7.0294   7.1103   7.3328   7.7379   8.1370
     8.2882   8.3095   8.4166   8.7774   8.9244   9.0779   9.1399   9.1738
     9.2453   9.4445

          k = 0.3750 0.3844 0.0000 ( 36239 PWs)   bands (ev):

   -38.1823 -37.8857 -23.6575 -22.6505 -22.6257 -22.5392 -18.6946 -18.6698
   -18.4129 -18.3949 -18.3328 -17.9985 -14.6247 -14.5144 -14.5140 -14.4481
   -14.4166 -14.3359 -14.2900 -14.2496 -14.0783 -13.8775 -13.8453 -13.7972
   -13.7458 -13.7398 -13.6585  -9.4284  -9.0799  -9.0217  -8.6121  -8.5885
    -8.4429  -8.2484  -8.2257  -8.0813  -8.0501  -8.0213  -8.0019  -3.9270
    -3.7624  -3.3852  -3.0617  -3.0483  -2.5923  -2.5876  -2.3610  -2.3311
    -2.3201  -2.2466  -2.1447  -2.0486  -1.9431  -1.9384  -1.8700  -1.8280
    -1.5482  -1.4217  -1.1953  -1.0450  -1.0133  -0.9777  -0.8930  -0.8140
    -0.7873  -0.6513  -0.5749  -0.4987  -0.4976  -0.4712  -0.3829  -0.2988
    -0.2748  -0.0449  -0.0439   0.2973   0.4535   0.4973   0.7435   0.8307
     0.9316   1.0108   1.0463   1.1116   1.2044   1.3556   1.3736   1.3824
     1.4478   1.4513   1.5462   1.5735   1.5976   1.6452   1.6559   1.6583
     1.7206   1.7397   1.8427   1.8569   1.8748   1.8927   1.9208   2.0010
     2.0110   2.0508   2.0918   2.2097   2.2176   2.3629   2.4101   2.4141
     3.0896   3.0959   4.1913   4.2570   4.3175   4.3434   4.4678   5.2005
     6.2077   6.2160   6.4437   6.7527   7.0465   7.3377   8.0901   8.1013
     8.4520   8.6475   8.8697   8.9261   8.9598   9.2300   9.3126   9.3949
     9.5068   9.5988

          k = 0.3750-0.5125 0.0000 ( 36266 PWs)   bands (ev):

   -38.1800 -37.8834 -23.6418 -22.6327 -22.6079 -22.5217 -18.7668 -18.6645
   -18.4839 -18.3907 -18.2937 -17.9592 -14.6282 -14.5286 -14.4501 -14.3755
   -14.3516 -14.2964 -14.2710 -14.1741 -14.0582 -13.9469 -13.8136 -13.7657
   -13.7336 -13.7281 -13.6241  -9.5087  -9.1896  -9.0385  -8.6911  -8.6673
    -8.5255  -8.4036  -8.3812  -8.2196  -8.0465  -8.0157  -7.9963  -4.1081
    -3.9440  -3.5533  -3.3071  -3.2166  -2.8309  -2.8258  -2.4715  -2.3774
    -2.3393  -2.2799  -2.2590  -2.0593  -1.9387  -1.9336  -1.8776  -1.8689
    -1.6079  -1.4500  -1.2107  -1.0878  -1.0826  -0.9415  -0.8695  -0.8688
    -0.8395  -0.6797  -0.6584  -0.5736  -0.5555  -0.4914  -0.4462  -0.3346
    -0.2586  -0.0144  -0.0118   0.3045   0.4876   0.5164   0.7576   0.8757
     1.0481   1.1141   1.1698   1.2267   1.3339   1.4092   1.4537   1.4755
     1.4949   1.5743   1.6135   1.6568   1.7082   1.7304   1.7392   1.8075
     1.8125   1.8149   1.8554   1.8686   1.8929   1.9438   2.0418   2.0939
     2.0982   2.1789   2.2251   2.3626   2.4513   2.4558   2.6057   2.6106
     2.9170   2.9263   4.3333   4.4267   4.4895   4.5069   4.6259   4.9663
     6.0103   6.0188   6.4118   6.6661   7.2274   7.2566   7.9702   8.2776
     8.3922   8.6597   8.9258   9.1079   9.2127   9.2568   9.3775   9.4149
     9.4884   9.6253

          k =-0.5000 0.0000 0.0000 ( 36146 PWs)   bands (ev):

   -38.1938 -37.8972 -23.7310 -22.7320 -22.7071 -22.6196 -18.7871 -18.5147
   -18.4999 -18.1839 -18.1671 -17.8981 -15.0003 -14.9306 -14.8710 -14.7284
   -14.6822 -14.5308 -14.4879 -14.2955 -14.1061 -14.0249 -13.9561 -13.8216
   -13.8194 -13.6941 -13.6769  -9.1841  -8.4826  -8.4774  -8.1042  -8.0751
    -8.0530  -7.6668  -7.6447  -7.5798  -7.5555  -7.5462  -7.4447  -3.0112
    -2.9391  -2.8513  -2.5280  -2.0719  -2.0639  -1.8847  -1.7430  -1.7395
    -1.6056  -1.5698  -1.4905  -1.2981  -1.2861  -1.1972  -1.1381  -1.1311
    -0.9793  -0.9254  -0.9176  -0.8266  -0.8252  -0.7599  -0.7599  -0.7556
    -0.6925  -0.6617  -0.5169  -0.5122  -0.5040  -0.3024  -0.2410  -0.2133
    -0.1560  -0.0323  -0.0302  -0.0041   0.3423   0.3667   0.4007   0.4057
     0.4084   0.4163   0.5702   0.6052   0.6599   0.6721   0.6941   0.7399
     0.7410   0.7471   0.8192   1.0436   1.1335   1.1854   1.2107   1.2713
     1.3054   1.3512   1.3796   1.4300   1.4617   1.4821   1.4941   1.5288
     1.7934   1.7993   1.8337   1.8459   1.9620   1.9928   2.1282   2.1784
     2.2096   2.2268   2.4341   2.5674   2.5896   2.8659   2.8846   6.3834
     6.5099   7.1980   7.2466   7.3152   7.3252   7.3285   7.5267   7.9426
     7.9655   8.1459   8.2069   8.6023   8.7160   8.9155   9.1115   9.1532
     9.2777   9.3819

          k =-0.5000 0.1281 0.0000 ( 36112 PWs)   bands (ev):

   -38.1915 -37.8949 -23.7165 -22.7158 -22.6910 -22.6037 -18.7793 -18.5069
   -18.4676 -18.2815 -18.1351 -17.9955 -14.9362 -14.8739 -14.8162 -14.6411
   -14.6124 -14.4973 -14.3947 -14.2620 -14.1727 -13.9852 -13.9248 -13.8033
   -13.8021 -13.7363 -13.6808  -9.1658  -8.6755  -8.6009  -8.0995  -8.0714
    -8.0503  -7.8019  -7.7912  -7.7799  -7.7668  -7.6712  -7.6486  -3.1642
    -3.0580  -2.9148  -2.5910  -2.0915  -2.0728  -1.9816  -1.8769  -1.8573
    -1.6496  -1.6172  -1.5982  -1.5846  -1.5009  -1.4999  -1.4657  -1.4223
    -1.1672  -1.0746  -1.0652  -1.0595  -0.9582  -0.8152  -0.7421  -0.6884
    -0.6783  -0.6327  -0.5878  -0.5425  -0.4230  -0.2169  -0.1634  -0.0162
     0.0199   0.0429   0.1072   0.1758   0.2843   0.2970   0.3495   0.3764
     0.3977   0.5728   0.6191   0.7033   0.7069   0.7330   0.8731   0.9019
     0.9089   0.9410   1.0413   1.0705   1.0899   1.1540   1.2942   1.2971
     1.3710   1.3743   1.3771   1.3847   1.4766   1.5077   1.5396   1.5960
     1.7710   1.8017   1.8537   1.8692   1.9488   2.0920   2.1396   2.1997
     2.8248   2.8592   2.9075   2.9422   2.9823   3.1955   3.2468   6.2725
     6.5511   7.0186   7.0485   7.0651   7.4551   7.5605   7.6038   7.6768
     7.7447   8.0667   8.2872   8.8445   8.9772   9.0385   9.2289   9.2339
     9.3162   9.3482

          k =-0.5000 0.2563 0.0000 ( 36182 PWs)   bands (ev):

   -38.1860 -37.8894 -23.6811 -22.6764 -22.6515 -22.5647 -18.7606 -18.4955
   -18.4879 -18.3859 -18.2125 -18.0507 -14.7885 -14.7002 -14.6714 -14.5330
   -14.4170 -14.3550 -14.3353 -14.2605 -14.1812 -13.8835 -13.8473 -13.7714
   -13.7655 -13.7637 -13.7124  -9.1406  -9.0811  -8.8934  -8.2678  -8.2437
    -8.1290  -8.1132  -8.0911  -8.0674  -8.0397  -8.0025  -7.9594  -3.6165
    -3.4597  -3.1584  -2.8258  -2.3865  -2.2782  -2.2255  -2.1494  -2.0877
    -2.0509  -2.0464  -1.9506  -1.9192  -1.8653  -1.8398  -1.8351  -1.7634
    -1.4411  -1.3316  -1.3005  -1.1375  -0.8629  -0.8504  -0.7342  -0.7048
    -0.6743  -0.6723  -0.5459  -0.4651  -0.3440  -0.2922  -0.2878  -0.2845
    -0.1041  -0.0921  -0.0659   0.3277   0.3630   0.5443   0.6442   0.6894
     0.7596   0.7923   0.8483   0.8965   0.9099   1.1575   1.2000   1.2506
     1.2920   1.3195   1.3552   1.3780   1.4540   1.4625   1.4743   1.4862
     1.4912   1.5118   1.5479   1.5632   1.5747   1.6975   1.8698   1.9066
     1.9109   1.9236   1.9597   1.9856   2.0205   2.0466   2.1479   2.1649
     3.1687   3.1713   3.6996   3.8082   3.8665   3.9432   4.0599   5.6042
     6.5308   6.5406   6.5644   6.9626   7.0583   7.2233   7.8874   8.3551
     8.3873   8.3891   8.4732   8.6758   9.0835   9.1267   9.3446   9.3602
     9.4292   9.4757

          k =-0.5000 0.3844 0.0000 ( 36306 PWs)   bands (ev):

   -38.1805 -37.8839 -23.6451 -22.6362 -22.6113 -22.5250 -18.7418 -18.6865
   -18.4689 -18.4034 -18.2983 -17.9631 -14.6506 -14.5066 -14.4961 -14.4440
   -14.4022 -14.3445 -14.2943 -14.1165 -14.1051 -13.8098 -13.7710 -13.7684
   -13.7393 -13.7342 -13.6654  -9.4883  -9.1811  -9.0692  -8.6614  -8.6375
    -8.4976  -8.4070  -8.3848  -8.2300  -8.0642  -8.0343  -8.0116  -4.0875
    -3.9189  -3.5256  -3.1894  -3.0498  -2.5813  -2.5759  -2.4741  -2.3946
    -2.3572  -2.2793  -2.2754  -2.0901  -1.9422  -1.9382  -1.8654  -1.8650
    -1.5934  -1.4150  -1.1107  -1.0339  -1.0098  -0.9675  -0.9517  -0.7735
    -0.7658  -0.7197  -0.5793  -0.5150  -0.5083  -0.4609  -0.4353  -0.3381
    -0.2715   0.0056   0.0071   0.2959   0.4836   0.6132   0.7816   0.9261
     1.0778   1.1675   1.2445   1.2933   1.3001   1.3880   1.4169   1.4472
     1.4912   1.5239   1.5821   1.5994   1.6100   1.7090   1.7601   1.7773
     1.7860   1.8328   1.8633   1.8634   1.8691   1.8736   1.9108   2.0609
     2.0853   2.1685   2.2172   2.2221   2.2433   2.3014   2.3733   2.3762
     3.0858   3.0940   4.1956   4.4714   4.5417   4.5479   4.6679   4.9493
     5.9691   5.9789   6.3914   6.6474   7.1819   7.2199   8.1684   8.2367
     8.4497   8.6525   8.7385   8.8888   9.1512   9.2734   9.3527   9.3838
     9.5420   9.5750

          k =-0.5000-0.5125 0.0000 ( 36252 PWs)   bands (ev):

   -38.1783 -37.8816 -23.6300 -22.6193 -22.5945 -22.5084 -18.7603 -18.7340
   -18.4774 -18.4610 -18.2600 -17.9247 -14.5942 -14.5786 -14.3970 -14.3407
   -14.3378 -14.3319 -14.2726 -14.0785 -14.0236 -13.9099 -13.7452 -13.7263
   -13.7240 -13.7220 -13.5958  -9.6361  -9.2998  -9.0501  -8.8135  -8.7895
    -8.6455  -8.5245  -8.5022  -8.3371  -8.0632  -8.0308  -8.0069  -4.2769
    -4.1077  -3.6940  -3.3579  -3.2976  -2.8193  -2.8136  -2.6053  -2.4224
    -2.4107  -2.3867  -2.2986  -2.1123  -1.9304  -1.9263  -1.9002  -1.8613
    -1.6418  -1.4416  -1.1125  -1.1080  -1.0456  -1.0103  -0.9141  -0.8281
    -0.8109  -0.7487  -0.6691  -0.5963  -0.5916  -0.4450  -0.4309  -0.4202
    -0.2735   0.0470   0.0502   0.3044   0.5288   0.6319   0.7995   0.9968
     1.2863   1.3212   1.3230   1.4288   1.4682   1.4803   1.4843   1.4978
     1.5245   1.5312   1.6461   1.6900   1.7246   1.7589   1.8753   1.8975
     1.9374   1.9468   1.9567   1.9661   1.9728   2.0060   2.0069   2.0375
     2.1020   2.3370   2.3691   2.4620   2.4703   2.4758   2.5785   2.5833
     2.9090   2.9212   4.3288   4.6880   4.6928   4.7687   4.7744   4.8830
     5.7196   5.7293   6.2965   6.5519   7.2145   7.2293   8.1916   8.3504
     8.3507   8.6500   8.7788   8.8840   9.1033   9.1563   9.1664   9.1820
     9.4192   9.5394

     the Fermi energy is     2.8815 ev

!    total energy              =   -1868.78404091 Ry
     Harris-Foulkes estimate   =   -1868.78404126 Ry
     estimated scf accuracy    <       0.00000061 Ry

     The total energy is the sum of the following terms:

     one-electron contribution =  -28001.72019022 Ry
     hartree contribution      =   14154.16693203 Ry
     xc contribution           =    -642.20579364 Ry
     ewald contribution        =   12620.98356634 Ry
     smearing contrib. (-TS)   =      -0.00855542 Ry

     convergence has been achieved in  35 iterations

     negative rho (up, down):  9.047E-02 0.000E+00

     Forces acting on atoms (cartesian axes, Ry/au):

     atom    1 type  3   force =     0.00000000    0.00000000    0.00002501
     atom    2 type  2   force =     0.00000000    0.00000000    0.00132064
     atom    3 type  3   force =     0.00000000    0.00000000   -0.00011064
     atom    4 type  1   force =     0.00000000    0.00000000   -0.00015697
     atom    5 type  2   force =     0.00000000    0.00000000   -0.00117243
     atom    6 type  3   force =     0.00000000    0.00000000    0.00027108
     atom    7 type  3   force =     0.00000000    0.00000000   -0.00003835
     atom    8 type  4   force =     0.00000000    0.00000000   -0.00057784
     atom    9 type  3   force =     0.00000000    0.00000000    0.00078779
     atom   10 type  3   force =     0.00000000    0.00000000    0.00112915
     atom   11 type  2   force =     0.00000000    0.00000000   -0.00113303
     atom   12 type  1   force =     0.00000000    0.00000000   -0.00400596
     atom   13 type  3   force =     0.00000000    0.00000000    0.00251297
     atom   14 type  3   force =     0.00000000    0.00000000    0.01347958
     atom   15 type  2   force =     0.00000000    0.00000000   -0.00960789
     atom   16 type  3   force =     0.00000000    0.00000000    0.02558964
     atom   17 type  1   force =     0.00000000    0.00000000   -0.02198913
     atom   18 type  2   force =     0.00000000    0.00000000    0.00581142
     atom   19 type  3   force =     0.00000000    0.00000000    0.01200370
     atom   20 type  3   force =     0.00000000    0.00000000    0.00505222
     atom   21 type  4   force =     0.00000000    0.00000000   -0.03797508
     atom   22 type  3   force =     0.00000000    0.00000000    0.00325841
     atom   23 type  3   force =     0.00000000    0.00000000    0.00524826
     atom   24 type  2   force =     0.00000000    0.00000000    0.00287727
     atom   25 type  1   force =     0.00000000    0.00000000   -0.00151890
     atom   26 type  3   force =     0.00000000    0.00000000    0.00130168
     atom   27 type  2   force =     0.00000000    0.00000000   -0.00281544
     atom   28 type  3   force =     0.00000000    0.00000000    0.00043288

     Total force =     0.056085     Total SCF correction =     0.004064


     Computing stress (Cartesian axis) and pressure


     negative rho (up, down):  9.047E-02 0.000E+00
          total   stress  (Ry/bohr**3)                   (kbar)     P=       -6.72
  -0.00007327   0.00000000   0.00000000          -10.78        0.00        0.00
   0.00000000  -0.00003716   0.00000000            0.00       -5.47        0.00
   0.00000000   0.00000000  -0.00002661            0.00        0.00       -3.91

 
     init_run     :     11.10s CPU     11.42s WALL (       1 calls)
     electrons    :    696.42s CPU    717.74s WALL (       1 calls)
     forces       :      4.72s CPU      4.89s WALL (       1 calls)
     stress       :     52.64s CPU     53.19s WALL (       1 calls)

     Called by init_run:
     wfcinit      :      7.85s CPU      7.97s WALL (       1 calls)
     potinit      :      0.73s CPU      0.74s WALL (       1 calls)
     hinit0       :      1.20s CPU      1.23s WALL (       1 calls)

     Called by electrons:
     c_bands      :    529.37s CPU    540.36s WALL (      35 calls)
     sum_band     :    108.06s CPU    113.69s WALL (      35 calls)
     v_of_rho     :      5.39s CPU      5.43s WALL (      36 calls)
     newd         :     26.40s CPU     30.94s WALL (      36 calls)
     mix_rho      :     27.37s CPU     27.57s WALL (      35 calls)

     Called by c_bands:
     init_us_2    :      3.62s CPU      3.65s WALL (    1825 calls)
     cegterg      :    496.57s CPU    506.97s WALL (     875 calls)

     Called by sum_band:
     sum_band:bec :      0.24s CPU      0.24s WALL (     875 calls)
     addusdens    :     23.28s CPU     28.06s WALL (      35 calls)

     Called by *egterg:
     h_psi        :    228.87s CPU    236.01s WALL (    3702 calls)
     s_psi        :     21.37s CPU     21.50s WALL (    3702 calls)
     g_psi        :      0.66s CPU      0.66s WALL (    2802 calls)
     cdiaghg      :    118.35s CPU    118.81s WALL (    3677 calls)

     Called by h_psi:
     h_psi:calbec :     30.63s CPU     31.63s WALL (    3702 calls)
     vloc_psi     :    175.15s CPU    177.93s WALL (    3702 calls)
     add_vuspsi   :     22.18s CPU     23.90s WALL (    3702 calls)

     General routines
     calbec       :     79.68s CPU     80.86s WALL (    4702 calls)
     fft          :      5.87s CPU      5.91s WALL (     491 calls)
     ffts         :     13.19s CPU     13.31s WALL (   16019 calls)
     fftw         :    207.84s CPU    211.05s WALL (  627164 calls)
     interpolate  :      0.41s CPU      0.42s WALL (      36 calls)
 
     Parallel routines
     fft_scatt_xy :     23.47s CPU     23.80s WALL (  643674 calls)
     fft_scatt_yz :    147.87s CPU    149.98s WALL (  643674 calls)
 
     PWSCF        :  12m45.88s CPU  13m 8.31s WALL

 
   This run was terminated on:  17:23:51   5May2021            

=------------------------------------------------------------------------------=
   JOB DONE.
=------------------------------------------------------------------------------=
[1620249831.210766] [holy7c08308:174304:0]          mpool.c:43   UCX  WARN  object 0x37bf680 was not returned to mpool ucp_requests
[1620249831.210795] [holy7c08308:174304:0]          mpool.c:43   UCX  WARN  object 0x37bfa00 was not returned to mpool ucp_requests
[1620249831.212708] [holy7c08207:230388:0]          mpool.c:43   UCX  WARN  object 0x46bf040 was not returned to mpool ucp_requests
[1620249831.212726] [holy7c08207:230388:0]          mpool.c:43   UCX  WARN  object 0x46bf740 was not returned to mpool ucp_requests
[1620249831.219708] [holy7c08309:94084:0]          mpool.c:43   UCX  WARN  object 0x3c4c940 was not returned to mpool ucp_requests
[1620249831.216976] [holy7c08303:37780:0]          mpool.c:43   UCX  WARN  object 0x42a7340 was not returned to mpool ucp_requests
[1620249831.217005] [holy7c08303:37780:0]          mpool.c:43   UCX  WARN  object 0x42a7a40 was not returned to mpool ucp_requests
[1620249831.220124] [holy7c08208:215983:0]          mpool.c:43   UCX  WARN  object 0x3715cc0 was not returned to mpool ucp_requests
[1620249831.219380] [holy7c08309:94085:0]          mpool.c:43   UCX  WARN  object 0x34a8140 was not returned to mpool ucp_requests
