
     Program PWSCF v.6.5 starts on  5May2021 at 17:59:38 

     This program is part of the open-source Quantum ESPRESSO suite
     for quantum simulation of materials; please cite
         "P. Giannozzi et al., J. Phys.:Condens. Matter 21 395502 (2009);
         "P. Giannozzi et al., J. Phys.:Condens. Matter 29 465901 (2017);
          URL http://www.quantum-espresso.org", 
     in publications or presentations arising from this work. More details at
     http://www.quantum-espresso.org/quote

     Parallel version (MPI), running on    20 processors

     MPI processes distributed on    14 nodes
     R & G space division:  proc/nbgrp/npool/nimage =      20
     Reading input from YBCO_CuO_cleave_4.0_sep_scf.pwi
Warning: card &IONS ignored
Warning: card     ION_DYNAMICS = 'BFGS' ignored
Warning: card / ignored
Warning: card &CELL ignored
Warning: card     CELL_DYNAMICS = 'BFGS' ignored
Warning: card / ignored

     Current dimensions of program PWSCF are:
     Max number of different atomic species (ntypx) = 10
     Max number of k-points (npk) =  40000
     Max angular momentum in pseudopotentials (lmaxx) =  3

     Subspace diagonalization in iterative solution of the eigenvalue problem:
     one sub-group per band group will be used
     scalapack distributed-memory algorithm (size of sub-group:  4*  4 procs)

     Message from routine setup:
     using ibrav=0 with symmetry is DISCOURAGED, use correct ibrav instead
 
     Parallelization info
     --------------------
     sticks:   dense  smooth     PW     G-vecs:    dense   smooth      PW
     Min         150      50     14                77556    14916    2324
     Max         151      51     15                77597    14941    2375
     Sum        3015    1011    293              1551541   298495   47017
 


     bravais-lattice index     =            0
     lattice parameter (alat)  =       7.3477  a.u.
     unit-cell volume          =    4754.8956 (a.u.)^3
     number of atoms/cell      =           28
     number of atomic types    =            4
     number of electrons       =       229.00
     number of Kohn-Sham states=          138
     kinetic-energy cutoff     =      60.0000  Ry
     charge density cutoff     =     720.0000  Ry
     convergence threshold     =      1.0E-06
     mixing beta               =       0.2000
     number of iterations used =           10  local-TF  mixing
     Exchange-correlation= SLA PW PBE PBE
                           (   1   4   3   4   0   0   0)

     celldm(1)=   7.347715  celldm(2)=   0.000000  celldm(3)=   0.000000
     celldm(4)=   0.000000  celldm(5)=   0.000000  celldm(6)=   0.000000

     crystal axes: (cart. coord. in units of alat)
               a(1) = (   1.000000   0.000000   0.000000 )  
               a(2) = (   0.000000   0.975577   0.000000 )  
               a(3) = (   0.000000   0.000000  12.286335 )  

     reciprocal axes: (cart. coord. in units 2 pi/alat)
               b(1) = (  1.000000  0.000000  0.000000 )  
               b(2) = (  0.000000  1.025034  0.000000 )  
               b(3) = (  0.000000  0.000000  0.081391 )  


     PseudoPot. # 1 for Ba read from file:
     /n/holyscratch01/hoffman_lab/ruizhe/YBCO_Project/pseudo/Ba.pbe-nsp-van.UPF
     MD5 check sum: 2b9c31dd849566dd297d80989662b7a0
     Pseudo is Ultrasoft + core correction, Zval = 10.0
     Generated by new atomic code, or converted to UPF format
     Using radial grid of  907 points,  6 beta functions with: 
                l(1) =   0
                l(2) =   0
                l(3) =   1
                l(4) =   1
                l(5) =   2
                l(6) =   2
     Q(r) pseudized with  6 coefficients,  rinner =    1.200   1.200   1.200
                                                       1.200   1.200

     PseudoPot. # 2 for Cu read from file:
     /n/holyscratch01/hoffman_lab/ruizhe/YBCO_Project/pseudo/Cu.pbe-n-van_ak.UPF
     MD5 check sum: 34e3282627ffb533726feb647e090d62
     Pseudo is Ultrasoft + core correction, Zval = 11.0
     Generated by new atomic code, or converted to UPF format
     Using radial grid of  867 points,  6 beta functions with: 
                l(1) =   0
                l(2) =   0
                l(3) =   1
                l(4) =   1
                l(5) =   2
                l(6) =   2
     Q(r) pseudized with  8 coefficients,  rinner =    1.400   1.400   1.400
                                                       1.400   1.400

     PseudoPot. # 3 for O  read from file:
     /n/holyscratch01/hoffman_lab/ruizhe/YBCO_Project/pseudo/O.pbe-van_ak.UPF
     MD5 check sum: 783ce7fe4c79b6a4916957118fed0856
     Pseudo is Ultrasoft, Zval =  6.0
     Generated by new atomic code, or converted to UPF format
     Using radial grid of  737 points,  4 beta functions with: 
                l(1) =   0
                l(2) =   0
                l(3) =   1
                l(4) =   1
     Q(r) pseudized with  8 coefficients,  rinner =    0.800   0.800   0.800


     PseudoPot. # 4 for Y  read from file:
     /n/holyscratch01/hoffman_lab/ruizhe/YBCO_Project/pseudo/Y.pbe-nsp-van.UPF
     MD5 check sum: 4412fed3ab108fed87a1b7d6a69a4a38
     Pseudo is Ultrasoft + core correction, Zval = 11.0
     Generated by new atomic code, or converted to UPF format
     Using radial grid of  885 points,  6 beta functions with: 
                l(1) =   0
                l(2) =   0
                l(3) =   1
                l(4) =   1
                l(5) =   2
                l(6) =   2
     Q(r) pseudized with  6 coefficients,  rinner =    1.200   1.200   1.200
                                                       1.200   1.200

     atomic species   valence    mass     pseudopotential
        Ba            10.00   137.32700     Ba( 1.00)
        Cu            11.00    63.54600     Cu( 1.00)
        O              6.00    15.99900     O ( 1.00)
        Y             11.00    88.90584     Y ( 1.00)

      4 Sym. Ops. (no inversion) found



   Cartesian axes

     site n.     atom                  positions (alat units)
         1           O   tau(   1) = (   0.0000000   0.4877884  -0.0257983  )
         2           Cu  tau(   2) = (   0.0000000   0.0000000   0.0215779  )
         3           O   tau(   3) = (   0.0000000   0.0000000   0.5073114  )
         4           Ba  tau(   4) = (   0.4999996   0.4877884   0.5319677  )
         5           Cu  tau(   5) = (   0.0000000   0.0000000   1.0495845  )
         6           O   tau(   6) = (   0.4999996   0.0000000   1.1181579  )
         7           O   tau(   7) = (   0.0000000   0.4877884   1.1273137  )
         8           Y   tau(   8) = (   0.4999996   0.4877884   1.4938777  )
         9           O   tau(   9) = (   0.0000000   0.4877884   1.8497402  )
        10           O   tau(  10) = (   0.4999996   0.0000000   1.8692709  )
        11           Cu  tau(  11) = (   0.0000000   0.0000000   1.9417560  )
        12           Ba  tau(  12) = (   0.4999996   0.4877884   2.4526063  )
        13           O   tau(  13) = (   0.0000000   0.0000000   2.5103470  )
        14           O   tau(  14) = (   0.0000000   0.4877884   2.9968469  )
        15           Cu  tau(  15) = (   0.0000000   0.0000000   2.9968521  )
        16           O   tau(  16) = (   0.0000000   0.0000000   4.5120710  )
        17           Ba  tau(  17) = (   0.4999996   0.4877884   4.5698040  )
        18           Cu  tau(  18) = (   0.0000000   0.0000000   5.0806774  )
        19           O   tau(  19) = (   0.4999996   0.0000000   5.1531497  )
        20           O   tau(  20) = (   0.0000000   0.4877884   5.1726624  )
        21           Y   tau(  21) = (   0.4999996   0.4877884   5.5285275  )
        22           O   tau(  22) = (   0.0000000   0.4877884   5.8950914  )
        23           O   tau(  23) = (   0.4999996   0.0000000   5.9042601  )
        24           Cu  tau(  24) = (   0.0000000   0.0000000   5.9728386  )
        25           Ba  tau(  25) = (   0.4999996   0.4877884   6.4904400  )
        26           O   tau(  26) = (   0.0000000   0.0000000   6.5150964  )
        27           Cu  tau(  27) = (   0.0000000   0.0000000   7.0008016  )
        28           O   tau(  28) = (   0.0000000   0.4877884   7.0481829  )

     number of k points=    25  Gaussian smearing, width (Ry)=  0.0100
                       cart. coord. in units 2pi/alat
        k(    1) = (   0.0000000   0.0000000   0.0000000), wk =   0.0312500
        k(    2) = (   0.0000000   0.1281293   0.0000000), wk =   0.0625000
        k(    3) = (   0.0000000   0.2562585   0.0000000), wk =   0.0625000
        k(    4) = (   0.0000000   0.3843878   0.0000000), wk =   0.0625000
        k(    5) = (   0.0000000  -0.5125170   0.0000000), wk =   0.0312500
        k(    6) = (   0.1250000   0.0000000   0.0000000), wk =   0.0625000
        k(    7) = (   0.1250000   0.1281293   0.0000000), wk =   0.1250000
        k(    8) = (   0.1250000   0.2562585   0.0000000), wk =   0.1250000
        k(    9) = (   0.1250000   0.3843878   0.0000000), wk =   0.1250000
        k(   10) = (   0.1250000  -0.5125170   0.0000000), wk =   0.0625000
        k(   11) = (   0.2500000   0.0000000   0.0000000), wk =   0.0625000
        k(   12) = (   0.2500000   0.1281293   0.0000000), wk =   0.1250000
        k(   13) = (   0.2500000   0.2562585   0.0000000), wk =   0.1250000
        k(   14) = (   0.2500000   0.3843878   0.0000000), wk =   0.1250000
        k(   15) = (   0.2500000  -0.5125170   0.0000000), wk =   0.0625000
        k(   16) = (   0.3750000   0.0000000   0.0000000), wk =   0.0625000
        k(   17) = (   0.3750000   0.1281293   0.0000000), wk =   0.1250000
        k(   18) = (   0.3750000   0.2562585   0.0000000), wk =   0.1250000
        k(   19) = (   0.3750000   0.3843878   0.0000000), wk =   0.1250000
        k(   20) = (   0.3750000  -0.5125170   0.0000000), wk =   0.0625000
        k(   21) = (  -0.5000000   0.0000000   0.0000000), wk =   0.0312500
        k(   22) = (  -0.5000000   0.1281293   0.0000000), wk =   0.0625000
        k(   23) = (  -0.5000000   0.2562585   0.0000000), wk =   0.0625000
        k(   24) = (  -0.5000000   0.3843878   0.0000000), wk =   0.0625000
        k(   25) = (  -0.5000000  -0.5125170   0.0000000), wk =   0.0312500

     Dense  grid:  1551541 G-vectors     FFT dimensions: (  64,  64, 800)

     Smooth grid:   298495 G-vectors     FFT dimensions: (  40,  36, 450)

     Estimated max dynamical RAM per process >     495.06 MB

     Estimated total dynamical RAM >       9.67 GB

     Initial potential from superposition of free atoms

     starting charge  228.84827, renormalised to  229.00000

     negative rho (up, down):  8.944E-02 0.000E+00
     Starting wfcs are  201 randomized atomic wfcs

     total cpu time spent up to now is       12.0 secs

     Self-consistent Calculation

     iteration #  1     ecut=    60.00 Ry     beta= 0.20
     Davidson diagonalization with overlap
     ethr =  1.00E-02,  avg # of iterations =  2.0

     negative rho (up, down):  8.730E-02 0.000E+00

     total cpu time spent up to now is       31.5 secs

     total energy              =   -1869.51851149 Ry
     Harris-Foulkes estimate   =   -1871.09891518 Ry
     estimated scf accuracy    <      13.41756292 Ry

     iteration #  2     ecut=    60.00 Ry     beta= 0.20
     Davidson diagonalization with overlap
     ethr =  5.86E-03,  avg # of iterations =  1.0

     negative rho (up, down):  8.607E-02 0.000E+00

     total cpu time spent up to now is       49.2 secs

     total energy              =   -1868.87873026 Ry
     Harris-Foulkes estimate   =   -1869.87224857 Ry
     estimated scf accuracy    <       5.82709578 Ry

     iteration #  3     ecut=    60.00 Ry     beta= 0.20
     Davidson diagonalization with overlap
     ethr =  2.54E-03,  avg # of iterations =  1.0

     negative rho (up, down):  8.569E-02 0.000E+00

     total cpu time spent up to now is       67.1 secs

     total energy              =   -1868.70566237 Ry
     Harris-Foulkes estimate   =   -1869.15619301 Ry
     estimated scf accuracy    <       4.17298807 Ry

     iteration #  4     ecut=    60.00 Ry     beta= 0.20
     Davidson diagonalization with overlap
     ethr =  1.82E-03,  avg # of iterations =  1.7

     negative rho (up, down):  8.587E-02 0.000E+00

     total cpu time spent up to now is       85.6 secs

     total energy              =   -1868.84574354 Ry
     Harris-Foulkes estimate   =   -1868.91873471 Ry
     estimated scf accuracy    <       2.23274664 Ry

     iteration #  5     ecut=    60.00 Ry     beta= 0.20
     Davidson diagonalization with overlap
     ethr =  9.75E-04,  avg # of iterations =  1.0

     negative rho (up, down):  8.642E-02 0.000E+00

     total cpu time spent up to now is      103.2 secs

     total energy              =   -1868.81127348 Ry
     Harris-Foulkes estimate   =   -1868.88380564 Ry
     estimated scf accuracy    <       1.19366392 Ry

     iteration #  6     ecut=    60.00 Ry     beta= 0.20
     Davidson diagonalization with overlap
     ethr =  5.21E-04,  avg # of iterations =  1.0

     negative rho (up, down):  8.711E-02 0.000E+00

     total cpu time spent up to now is      121.1 secs

     total energy              =   -1868.76494765 Ry
     Harris-Foulkes estimate   =   -1868.82894689 Ry
     estimated scf accuracy    <       0.47690909 Ry

     iteration #  7     ecut=    60.00 Ry     beta= 0.20
     Davidson diagonalization with overlap
     ethr =  2.08E-04,  avg # of iterations =  5.9

     negative rho (up, down):  8.766E-02 0.000E+00

     total cpu time spent up to now is      145.4 secs

     total energy              =   -1868.75984495 Ry
     Harris-Foulkes estimate   =   -1868.78178262 Ry
     estimated scf accuracy    <       0.34053991 Ry

     iteration #  8     ecut=    60.00 Ry     beta= 0.20
     Davidson diagonalization with overlap
     ethr =  1.49E-04,  avg # of iterations =  3.9

     negative rho (up, down):  8.885E-02 0.000E+00

     total cpu time spent up to now is      166.7 secs

     total energy              =   -1868.74508848 Ry
     Harris-Foulkes estimate   =   -1868.77766744 Ry
     estimated scf accuracy    <       0.57775720 Ry

     iteration #  9     ecut=    60.00 Ry     beta= 0.20
     Davidson diagonalization with overlap
     ethr =  1.49E-04,  avg # of iterations =  4.0

     negative rho (up, down):  8.942E-02 0.000E+00

     total cpu time spent up to now is      189.0 secs

     total energy              =   -1868.74882572 Ry
     Harris-Foulkes estimate   =   -1868.75356343 Ry
     estimated scf accuracy    <       0.40016433 Ry

     iteration # 10     ecut=    60.00 Ry     beta= 0.20
     Davidson diagonalization with overlap
     ethr =  1.49E-04,  avg # of iterations =  1.0

     negative rho (up, down):  9.010E-02 0.000E+00

     total cpu time spent up to now is      206.9 secs

     total energy              =   -1868.73273055 Ry
     Harris-Foulkes estimate   =   -1868.75165938 Ry
     estimated scf accuracy    <       0.37210812 Ry

     iteration # 11     ecut=    60.00 Ry     beta= 0.20
     Davidson diagonalization with overlap
     ethr =  1.49E-04,  avg # of iterations =  1.3

     negative rho (up, down):  9.068E-02 0.000E+00

     total cpu time spent up to now is      225.3 secs

     total energy              =   -1868.73116541 Ry
     Harris-Foulkes estimate   =   -1868.74034379 Ry
     estimated scf accuracy    <       0.43971914 Ry

     iteration # 12     ecut=    60.00 Ry     beta= 0.20
     Davidson diagonalization with overlap
     ethr =  1.49E-04,  avg # of iterations =  1.0

     negative rho (up, down):  9.072E-02 0.000E+00

     total cpu time spent up to now is      242.9 secs

     total energy              =   -1868.73140818 Ry
     Harris-Foulkes estimate   =   -1868.73548947 Ry
     estimated scf accuracy    <       0.38538147 Ry

     iteration # 13     ecut=    60.00 Ry     beta= 0.20
     Davidson diagonalization with overlap
     ethr =  1.49E-04,  avg # of iterations =  1.0

     negative rho (up, down):  9.049E-02 0.000E+00

     total cpu time spent up to now is      260.4 secs

     total energy              =   -1868.72901161 Ry
     Harris-Foulkes estimate   =   -1868.73251119 Ry
     estimated scf accuracy    <       0.12991691 Ry

     iteration # 14     ecut=    60.00 Ry     beta= 0.20
     Davidson diagonalization with overlap
     ethr =  5.67E-05,  avg # of iterations =  6.6

     negative rho (up, down):  8.987E-02 0.000E+00

     total cpu time spent up to now is      285.6 secs

     total energy              =   -1868.72681985 Ry
     Harris-Foulkes estimate   =   -1868.72990889 Ry
     estimated scf accuracy    <       0.02974454 Ry

     iteration # 15     ecut=    60.00 Ry     beta= 0.20
     Davidson diagonalization with overlap
     ethr =  1.30E-05,  avg # of iterations =  6.8

     negative rho (up, down):  9.001E-02 0.000E+00

     total cpu time spent up to now is      312.2 secs

     total energy              =   -1868.72750452 Ry
     Harris-Foulkes estimate   =   -1868.72794435 Ry
     estimated scf accuracy    <       0.03140522 Ry

     iteration # 16     ecut=    60.00 Ry     beta= 0.20
     Davidson diagonalization with overlap
     ethr =  1.30E-05,  avg # of iterations =  1.0

     negative rho (up, down):  8.951E-02 0.000E+00

     total cpu time spent up to now is      329.0 secs

     total energy              =   -1868.72720974 Ry
     Harris-Foulkes estimate   =   -1868.72763808 Ry
     estimated scf accuracy    <       0.02474231 Ry

     iteration # 17     ecut=    60.00 Ry     beta= 0.20
     Davidson diagonalization with overlap
     ethr =  1.08E-05,  avg # of iterations =  1.0

     negative rho (up, down):  8.910E-02 0.000E+00

     total cpu time spent up to now is      346.2 secs

     total energy              =   -1868.72623530 Ry
     Harris-Foulkes estimate   =   -1868.72739853 Ry
     estimated scf accuracy    <       0.03344310 Ry

     iteration # 18     ecut=    60.00 Ry     beta= 0.20
     Davidson diagonalization with overlap
     ethr =  1.08E-05,  avg # of iterations =  1.8

     negative rho (up, down):  9.462E-02 0.000E+00

     total cpu time spent up to now is      364.5 secs

     total energy              =   -1868.72535286 Ry
     Harris-Foulkes estimate   =   -1868.72636017 Ry
     estimated scf accuracy    <       0.02768642 Ry

     iteration # 19     ecut=    60.00 Ry     beta= 0.20
     Davidson diagonalization with overlap
     ethr =  1.08E-05,  avg # of iterations =  3.2

     negative rho (up, down):  9.816E-02 0.000E+00

     total cpu time spent up to now is      385.1 secs

     total energy              =   -1868.72471471 Ry
     Harris-Foulkes estimate   =   -1868.72546711 Ry
     estimated scf accuracy    <       0.02025121 Ry

     iteration # 20     ecut=    60.00 Ry     beta= 0.20
     Davidson diagonalization with overlap
     ethr =  8.84E-06,  avg # of iterations =  5.1

     negative rho (up, down):  1.008E-01 0.000E+00

     total cpu time spent up to now is      408.4 secs

     total energy              =   -1868.72429001 Ry
     Harris-Foulkes estimate   =   -1868.72487613 Ry
     estimated scf accuracy    <       0.01395109 Ry

     iteration # 21     ecut=    60.00 Ry     beta= 0.20
     Davidson diagonalization with overlap
     ethr =  6.09E-06,  avg # of iterations =  5.4

     negative rho (up, down):  1.024E-01 0.000E+00

     total cpu time spent up to now is      432.2 secs

     total energy              =   -1868.72295851 Ry
     Harris-Foulkes estimate   =   -1868.72437543 Ry
     estimated scf accuracy    <       0.01179863 Ry

     iteration # 22     ecut=    60.00 Ry     beta= 0.20
     Davidson diagonalization with overlap
     ethr =  5.15E-06,  avg # of iterations =  5.6

     negative rho (up, down):  1.014E-01 0.000E+00

     total cpu time spent up to now is      456.7 secs

     total energy              =   -1868.72296406 Ry
     Harris-Foulkes estimate   =   -1868.72319995 Ry
     estimated scf accuracy    <       0.00685373 Ry

     iteration # 23     ecut=    60.00 Ry     beta= 0.20
     Davidson diagonalization with overlap
     c_bands:  1 eigenvalues not converged
     ethr =  2.99E-06,  avg # of iterations =  5.6

     negative rho (up, down):  1.081E-01 0.000E+00

     total cpu time spent up to now is      480.4 secs

     total energy              =   -1868.72289604 Ry
     Harris-Foulkes estimate   =   -1868.72301451 Ry
     estimated scf accuracy    <       0.00443040 Ry

     iteration # 24     ecut=    60.00 Ry     beta= 0.20
     Davidson diagonalization with overlap
     ethr =  1.93E-06,  avg # of iterations =  8.1

     negative rho (up, down):  1.016E-01 0.000E+00

     total cpu time spent up to now is      508.9 secs

     total energy              =   -1868.72277358 Ry
     Harris-Foulkes estimate   =   -1868.72292669 Ry
     estimated scf accuracy    <       0.00277009 Ry

     iteration # 25     ecut=    60.00 Ry     beta= 0.20
     Davidson diagonalization with overlap
     ethr =  1.21E-06,  avg # of iterations =  5.0

     negative rho (up, down):  9.165E-02 0.000E+00

     total cpu time spent up to now is      532.2 secs

     total energy              =   -1868.72250427 Ry
     Harris-Foulkes estimate   =   -1868.72279036 Ry
     estimated scf accuracy    <       0.00148747 Ry

     iteration # 26     ecut=    60.00 Ry     beta= 0.20
     Davidson diagonalization with overlap
     c_bands:  1 eigenvalues not converged
     ethr =  6.50E-07,  avg # of iterations =  7.5

     negative rho (up, down):  9.136E-02 0.000E+00

     total cpu time spent up to now is      559.4 secs

     total energy              =   -1868.72254493 Ry
     Harris-Foulkes estimate   =   -1868.72255073 Ry
     estimated scf accuracy    <       0.00030447 Ry

     iteration # 27     ecut=    60.00 Ry     beta= 0.20
     Davidson diagonalization with overlap
     ethr =  1.33E-07,  avg # of iterations =  1.6

     negative rho (up, down):  9.037E-02 0.000E+00

     total cpu time spent up to now is      578.1 secs

     total energy              =   -1868.72256968 Ry
     Harris-Foulkes estimate   =   -1868.72255502 Ry
     estimated scf accuracy    <       0.00025252 Ry

     iteration # 28     ecut=    60.00 Ry     beta= 0.20
     Davidson diagonalization with overlap
     c_bands:  1 eigenvalues not converged
     ethr =  1.10E-07,  avg # of iterations =  3.8

     negative rho (up, down):  8.988E-02 0.000E+00

     total cpu time spent up to now is      599.7 secs

     total energy              =   -1868.72258399 Ry
     Harris-Foulkes estimate   =   -1868.72257249 Ry
     estimated scf accuracy    <       0.00011209 Ry

     iteration # 29     ecut=    60.00 Ry     beta= 0.20
     Davidson diagonalization with overlap
     ethr =  4.89E-08,  avg # of iterations =  3.4

     negative rho (up, down):  8.983E-02 0.000E+00

     total cpu time spent up to now is      621.0 secs

     total energy              =   -1868.72259748 Ry
     Harris-Foulkes estimate   =   -1868.72258632 Ry
     estimated scf accuracy    <       0.00005045 Ry

     iteration # 30     ecut=    60.00 Ry     beta= 0.20
     Davidson diagonalization with overlap
     c_bands:  1 eigenvalues not converged
     c_bands:  1 eigenvalues not converged
     ethr =  2.20E-08,  avg # of iterations =  5.2

     negative rho (up, down):  9.002E-02 0.000E+00

     total cpu time spent up to now is      644.7 secs

     total energy              =   -1868.72259820 Ry
     Harris-Foulkes estimate   =   -1868.72259949 Ry
     estimated scf accuracy    <       0.00001490 Ry

     iteration # 31     ecut=    60.00 Ry     beta= 0.20
     Davidson diagonalization with overlap
     ethr =  6.51E-09,  avg # of iterations =  1.7

     negative rho (up, down):  9.003E-02 0.000E+00

     total cpu time spent up to now is      663.1 secs

     total energy              =   -1868.72260629 Ry
     Harris-Foulkes estimate   =   -1868.72259855 Ry
     estimated scf accuracy    <       0.00001153 Ry

     iteration # 32     ecut=    60.00 Ry     beta= 0.20
     Davidson diagonalization with overlap
     c_bands:  1 eigenvalues not converged
     ethr =  5.04E-09,  avg # of iterations =  3.0

     negative rho (up, down):  9.031E-02 0.000E+00

     total cpu time spent up to now is      683.5 secs

     total energy              =   -1868.72260706 Ry
     Harris-Foulkes estimate   =   -1868.72260671 Ry
     estimated scf accuracy    <       0.00000535 Ry

     iteration # 33     ecut=    60.00 Ry     beta= 0.20
     Davidson diagonalization with overlap
     ethr =  2.34E-09,  avg # of iterations =  1.1

     negative rho (up, down):  9.032E-02 0.000E+00

     total cpu time spent up to now is      701.1 secs

     total energy              =   -1868.72260742 Ry
     Harris-Foulkes estimate   =   -1868.72260719 Ry
     estimated scf accuracy    <       0.00000398 Ry

     iteration # 34     ecut=    60.00 Ry     beta= 0.20
     Davidson diagonalization with overlap
     ethr =  1.74E-09,  avg # of iterations =  1.8

     negative rho (up, down):  9.040E-02 0.000E+00

     total cpu time spent up to now is      718.9 secs

     End of self-consistent calculation

          k = 0.0000 0.0000 0.0000 ( 37185 PWs)   bands (ev):

   -38.5798 -38.5030 -23.2088 -23.1965 -23.0937 -23.0494 -19.1128 -19.0449
   -18.5852 -18.5763 -18.5092 -18.4960 -15.9038 -15.8537 -14.9461 -14.8923
   -14.6930 -14.6892 -14.6829 -14.6392 -14.5960 -14.4280 -14.3741 -14.1902
   -14.1778 -13.9347 -12.6467  -8.4654  -8.4295  -8.4095  -8.2638  -8.2011
    -8.1894  -8.1741  -8.1627  -8.0229  -7.9995  -7.9670  -7.8851  -2.5354
    -2.5051  -2.4833  -2.4556  -2.3649  -2.3095  -2.2909  -2.2818  -2.2482
    -2.2085  -2.1719  -2.1175  -1.9962  -1.3406  -1.2783  -0.8886  -0.8718
    -0.8257  -0.5575  -0.5006  -0.4995  -0.4904  -0.4621  -0.4553  -0.3009
    -0.2989  -0.2676  -0.2471  -0.2302  -0.2240  -0.1685  -0.1643  -0.1380
    -0.1286  -0.0380  -0.0344  -0.0230  -0.0211   0.0018   0.0625   0.0780
     0.1162   0.1193   0.1301   0.1416   0.1913   0.2301   0.2348   0.2516
     0.5220   0.6746   0.7187   0.7804   0.7840   0.8260   0.8563   0.8946
     0.9333   0.9363   0.9505   1.0362   1.0421   1.0565   1.0678   1.0705
     1.1128   1.4917   1.5331   1.5541   1.5617   1.6445   1.7536   1.7605
     1.8415   2.0576   2.1981   2.2445   2.2838   2.3263   2.3569   4.7139
     4.8648   4.8937   5.4290   5.5058   6.1226   6.2424   6.2649   6.4688
     6.5834   6.9731   7.1797   7.7140   7.7450   7.7879   7.9380   8.1551
     8.2213   8.2780

          k = 0.0000 0.1281 0.0000 ( 37255 PWs)   bands (ev):

   -38.5775 -38.5007 -23.1872 -23.1750 -23.0752 -23.0283 -19.0768 -19.0089
   -18.6807 -18.6008 -18.5820 -18.5060 -15.7950 -15.7457 -14.9542 -14.8987
   -14.7020 -14.6910 -14.6591 -14.6082 -14.5779 -14.4735 -14.4219 -14.1960
   -14.1819 -13.9677 -12.7181  -8.4538  -8.4125  -8.3950  -8.2528  -8.1935
    -8.1822  -8.1599  -8.1482  -8.0216  -7.9833  -7.9340  -7.8846  -2.6255
    -2.6176  -2.5996  -2.5447  -2.4858  -2.4349  -2.2931  -2.2862  -2.1780
    -2.1566  -2.1193  -2.1023  -2.0057  -1.4095  -1.3915  -1.3389  -1.2755
    -1.2225  -0.8878  -0.8523  -0.6688  -0.5896  -0.5548  -0.5506  -0.5444
    -0.5350  -0.5285  -0.5004  -0.4608  -0.3357  -0.2087  -0.1595  -0.1352
    -0.1211  -0.0630  -0.0561  -0.0039   0.0191   0.0940   0.0968   0.1079
     0.1288   0.1309   0.1903   0.2225   0.2255   0.2479   0.4136   0.4431
     0.4790   0.5159   0.5926   0.6549   0.7375   0.7517   0.7781   0.9872
     1.0163   1.0484   1.0665   1.0887   1.2125   1.2544   1.2689   1.2806
     1.2902   1.4694   1.5304   1.5392   1.5953   1.6062   1.7094   1.8407
     1.8944   2.1233   2.1477   2.3886   2.4085   2.5702   2.5849   5.0536
     5.2276   5.2420   5.6732   5.7479   6.3269   6.5636   6.5783   6.7756
     6.8650   7.2392   7.4266   7.6534   7.7272   7.9082   8.0904   8.4038
     8.4102   8.4988

          k = 0.0000 0.2563 0.0000 ( 37258 PWs)   bands (ev):

   -38.5719 -38.4951 -23.1342 -23.1219 -23.0297 -22.9763 -18.9858 -18.9176
   -18.9057 -18.8266 -18.5742 -18.4982 -15.5465 -15.5004 -15.0291 -14.9701
   -14.7656 -14.7408 -14.6127 -14.5421 -14.5386 -14.5258 -14.4936 -14.1742
   -14.1571 -14.0181 -12.8864  -8.4277  -8.3719  -8.3568  -8.2347  -8.2243
    -8.2234  -8.0696  -8.0567  -8.0449  -7.8845  -7.8807  -7.8524  -3.0538
    -3.0199  -2.9199  -2.8549  -2.4403  -2.4336  -2.3434  -2.3354  -2.2964
    -2.1692  -2.1564  -2.1045  -2.0973  -2.0501  -2.0321  -1.9417  -1.3410
    -1.2895  -1.2734  -1.1834  -1.0593  -0.9208  -0.9079  -0.8931  -0.8396
    -0.7787  -0.7733  -0.7146  -0.7007  -0.5275  -0.4795  -0.4654  -0.4177
    -0.3310  -0.2942  -0.2164  -0.1365  -0.0980  -0.0785   0.1017   0.1482
     0.1673   0.1677   0.1708   0.2438   0.2541   0.2651   0.3173   0.3682
     0.7448   0.7638   0.8203   0.8767   0.9043   0.9669   1.0098   1.0792
     1.0857   1.1522   1.1854   1.2413   1.3091   1.3329   1.3339   1.4121
     1.4359   1.5536   1.6038   1.7286   1.7677   1.8312   1.8460   1.8579
     1.9043   2.0127   2.0720   2.4932   2.7761   2.8827   2.9046   5.7982
     6.1158   6.1303   6.3280   6.4060   6.8383   7.4213   7.4350   7.5230
     7.5968   7.5998   7.6776   7.8078   7.9716   8.3313   8.3882   8.5487
     8.6926   8.7469

          k = 0.0000 0.3844 0.0000 ( 37158 PWs)   bands (ev):

   -38.5663 -38.4895 -23.0797 -23.0673 -22.9832 -22.9230 -19.1037 -19.0250
   -18.8876 -18.8191 -18.5665 -18.4904 -15.2947 -15.2577 -15.1734 -15.1090
   -14.8791 -14.8333 -14.6330 -14.5390 -14.5012 -14.4864 -14.4720 -14.1156
   -14.0972 -14.0183 -13.0480  -8.4022  -8.3317  -8.3166  -8.2675  -8.2565
    -8.1914  -8.1144  -7.9477  -7.9357  -7.8736  -7.7803  -7.7676  -3.4209
    -3.3907  -3.2322  -3.1601  -2.9979  -2.9850  -2.9827  -2.3469  -2.3428
    -2.1486  -2.1346  -2.0951  -2.0860  -2.0257  -2.0116  -1.9554  -1.6514
    -1.4934  -1.3221  -1.2851  -1.2573  -1.2513  -1.2002  -1.1905  -1.1352
    -1.0202  -1.0155  -0.8614  -0.8136  -0.7495  -0.7234  -0.7089  -0.6609
    -0.5469  -0.5315  -0.5148  -0.4241  -0.1590  -0.0324   0.0337   0.1394
     0.1614   0.1749   0.1915   0.1965   0.2495   0.2911   0.5375   0.6081
     0.8129   0.8584   0.9297   0.9621   0.9820   1.0076   1.0264   1.0394
     1.1406   1.1548   1.2225   1.3057   1.4355   1.4832   1.5208   1.5303
     1.6252   1.6664   1.6777   1.7943   1.8129   1.9977   2.0448   2.1119
     2.2388   2.2545   2.3204   2.4614   2.7788   2.8613   2.9456   6.6397
     6.9562   7.0005   7.1765   7.2193   7.4101   7.4843   7.5459   8.1408
     8.1505   8.2974   8.3429   8.4675   8.4933   8.6002   8.6396   8.7492
     8.7812   9.2264

          k = 0.0000-0.5125 0.0000 ( 37290 PWs)   bands (ev):

   -38.5640 -38.4872 -23.0566 -23.0443 -22.9636 -22.9005 -19.1797 -19.1011
   -18.8444 -18.7758 -18.5632 -18.4872 -15.2499 -15.1965 -15.1643 -15.1269
   -14.9529 -14.8895 -14.6606 -14.5273 -14.4874 -14.4786 -14.4492 -14.0845
   -14.0658 -14.0043 -13.1125  -8.3917  -8.3153  -8.2996  -8.2790  -8.2682
    -8.1703  -8.1385  -7.9007  -7.8886  -7.8698  -7.7355  -7.7314  -3.5642
    -3.5361  -3.3754  -3.2922  -3.2375  -3.2177  -3.2144  -2.3816  -2.3781
    -2.2080  -2.1485  -2.0484  -1.9852  -1.9526  -1.9423  -1.8864  -1.7738
    -1.5641  -1.4875  -1.4297  -1.4174  -1.3878  -1.3844  -1.1244  -1.1202
    -1.0703  -1.0019  -0.9569  -0.9005  -0.8475  -0.8105  -0.7958  -0.7703
    -0.7462  -0.7099  -0.5484  -0.4880  -0.1952   0.0532   0.1086   0.1170
     0.1299   0.1325   0.1975   0.2031   0.2333   0.2970   0.6297   0.6615
     0.8500   0.8686   0.9378   0.9493   1.0150   1.0152   1.0791   1.0952
     1.1073   1.1125   1.1795   1.2225   1.5128   1.5846   1.5961   1.6030
     1.6155   1.6743   1.7161   1.9210   1.9776   2.1025   2.1221   2.3535
     2.3836   2.4012   2.4170   2.4854   2.6433   2.7407   2.8649   7.2968
     7.3207   7.3613   7.3674   7.4419   7.4948   7.5090   7.8197   8.0050
     8.3782   8.4772   8.6103   8.7050   8.7718   8.8025   8.8095   8.8273
     9.1635   9.2344

          k = 0.1250 0.0000 0.0000 ( 37232 PWs)   bands (ev):

   -38.5780 -38.5012 -23.1904 -23.1781 -23.0786 -23.0314 -19.0804 -19.0122
   -18.6852 -18.6103 -18.5738 -18.4935 -15.7886 -15.7369 -14.9705 -14.9205
   -14.7407 -14.7301 -14.6724 -14.6311 -14.6184 -14.4575 -14.4008 -14.1910
   -14.1778 -13.9458 -12.7234  -8.4567  -8.4395  -8.4193  -8.2883  -8.1660
    -8.1544  -8.1399  -8.1284  -7.9848  -7.9667  -7.9306  -7.8578  -2.6203
    -2.5779  -2.5318  -2.4560  -2.4539  -2.4066  -2.2802  -2.2656  -2.2373
    -2.1985  -2.1954  -2.1397  -1.9964  -1.3263  -1.2641  -0.8831  -0.8663
    -0.8654  -0.7752  -0.7081  -0.5970  -0.5799  -0.5769  -0.5659  -0.5164
    -0.4888  -0.4888  -0.4535  -0.3204  -0.2653  -0.2309  -0.2185  -0.0746
    -0.0237  -0.0071   0.0425   0.0527   0.0723   0.0835   0.1129   0.1203
     0.1278   0.1959   0.2070   0.2175   0.2271   0.2332   0.2548   0.2663
     0.4619   0.5230   0.5699   0.6003   0.6111   0.8037   0.8112   0.8279
     0.8461   0.8502   0.9075   1.0210   1.0429   1.0883   1.1534   1.2781
     1.2953   1.4324   1.5669   1.6089   1.7001   1.7077   1.7755   1.8514
     1.8723   2.1062   2.1127   2.2096   2.2542   2.2864   2.4035   4.9045
     5.0509   5.0620   5.6364   5.7118   6.2813   6.4880   6.4966   6.7330
     6.7902   7.2031   7.3914   7.6946   7.7680   7.8991   8.0894   8.3865
     8.4658   8.5223

          k = 0.1250 0.1281 0.0000 ( 37248 PWs)   bands (ev):

   -38.5757 -38.4989 -23.1696 -23.1573 -23.0605 -23.0110 -19.0449 -18.9766
   -18.6893 -18.6685 -18.6128 -18.5902 -15.6807 -15.6299 -14.9686 -14.9165
   -14.7367 -14.7265 -14.6415 -14.6120 -14.5901 -14.5109 -14.4550 -14.1907
   -14.1762 -13.9690 -12.7730  -8.4443  -8.4268  -8.4099  -8.3140  -8.3020
    -8.2736  -8.1363  -8.0560  -8.0161  -8.0046  -7.8492  -7.7521  -2.7227
    -2.6868  -2.6757  -2.5923  -2.4848  -2.4413  -2.3311  -2.2955  -2.2689
    -2.2482  -2.1189  -2.0510  -1.9959  -1.4031  -1.3859  -1.3592  -1.2321
    -1.1743  -1.0912  -1.0460  -0.8819  -0.8653  -0.7848  -0.7546  -0.6599
    -0.5450  -0.5361  -0.4254  -0.3406  -0.3253  -0.2557  -0.2439  -0.1487
    -0.1365  -0.1049  -0.0726   0.0152   0.0250   0.0679   0.0714   0.1106
     0.1597   0.1625   0.1741   0.1812   0.2924   0.2946   0.4151   0.4444
     0.5358   0.5886   0.6763   0.7212   0.7370   0.7555   0.7968   0.8515
     0.8533   0.9925   1.0398   1.0674   1.1177   1.1349   1.1812   1.4104
     1.4221   1.4652   1.4758   1.4824   1.5847   1.7887   1.9186   2.0205
     2.1499   2.2130   2.3631   2.4141   2.4268   2.5812   2.5979   5.1900
     5.3684   5.3829   5.8433   5.9216   6.4568   6.7950   6.8072   7.0279
     7.0719   7.4222   7.5634   7.6103   7.7032   8.0588   8.2263   8.4833
     8.5753   8.6434

          k = 0.1250 0.2563 0.0000 ( 37300 PWs)   bands (ev):

   -38.5701 -38.4933 -23.1184 -23.1061 -23.0163 -22.9608 -18.9551 -18.9012
   -18.8865 -18.8221 -18.6695 -18.5945 -15.4346 -15.3874 -15.0142 -14.9556
   -14.7644 -14.7445 -14.6098 -14.5847 -14.5562 -14.5444 -14.5134 -14.1654
   -14.1485 -14.0073 -12.8946  -8.4375  -8.4266  -8.4180  -8.3722  -8.3579
    -8.2566  -8.2301  -8.1344  -7.9721  -7.9605  -7.8134  -7.7146  -3.1596
    -3.1158  -2.9513  -2.8846  -2.4631  -2.4518  -2.3937  -2.3410  -2.3271
    -2.2845  -2.2547  -2.1637  -2.1512  -2.0420  -1.9672  -1.9327  -1.4407
    -1.3802  -1.2816  -1.2391  -1.2275  -1.2148  -1.1733  -1.1109  -1.0743
    -0.7179  -0.7080  -0.6481  -0.6110  -0.5136  -0.4665  -0.4591  -0.4104
    -0.2312  -0.2243  -0.1691  -0.0600  -0.0336  -0.0274   0.0604   0.0745
     0.1064   0.1639   0.1996   0.2143   0.2645   0.3108   0.5268   0.5706
     0.7650   0.7867   0.8130   0.8886   0.9003   0.9961   0.9980   1.0175
     1.0345   1.1373   1.1946   1.2082   1.2882   1.2934   1.4205   1.4262
     1.4439   1.4865   1.5850   1.8014   1.8156   1.8830   1.9915   2.2579
     2.3080   2.3692   2.4769   2.5909   2.7750   2.8898   2.9109   5.8834
     6.1688   6.1838   6.4321   6.5043   6.9198   7.3724   7.4559   7.6237
     7.6370   7.8051   7.8863   7.9718   8.1146   8.2882   8.3345   8.5785
     8.6273   8.7023

          k = 0.1250 0.3844 0.0000 ( 37301 PWs)   bands (ev):

   -38.5645 -38.4877 -23.0659 -23.0535 -22.9711 -22.9093 -19.0977 -19.0190
   -18.8583 -18.7894 -18.6596 -18.5846 -15.1887 -15.1582 -15.1337 -15.0589
   -14.8466 -14.8096 -14.6132 -14.5990 -14.5624 -14.4667 -14.4620 -14.1116
   -14.0933 -14.0121 -13.0168  -8.4419  -8.4310  -8.3964  -8.3418  -8.3272
    -8.2793  -8.1980  -8.0941  -8.0201  -8.0084  -7.8576  -7.7888  -3.5416
    -3.5017  -3.2779  -3.2076  -2.9876  -2.9731  -2.9724  -2.3818  -2.3728
    -2.2700  -2.2057  -2.1906  -2.1773  -2.0412  -1.9935  -1.9758  -1.7029
    -1.6841  -1.6804  -1.6010  -1.5002  -1.4048  -1.2788  -1.1084  -1.0493
    -0.9029  -0.8971  -0.8768  -0.8553  -0.7342  -0.7102  -0.6648  -0.6516
    -0.3474  -0.3243  -0.2415  -0.2080  -0.0906   0.0497   0.0588   0.1102
     0.1678   0.1727   0.1827   0.2194   0.2507   0.3112   0.6319   0.6898
     0.8152   0.8580   0.9480   1.0017   1.0244   1.0725   1.0855   1.1257
     1.1524   1.1567   1.2654   1.3673   1.4384   1.4599   1.4770   1.4783
     1.7346   1.8097   1.8209   2.0682   2.2124   2.2286   2.2870   2.3050
     2.3099   2.3441   2.5139   2.5853   2.7772   2.8909   2.9614   6.6679
     6.8634   6.8955   7.0602   7.1079   7.3041   7.3681   7.5422   8.1593
     8.1769   8.2092   8.3045   8.5338   8.6150   8.7202   8.7621   8.8386
     8.9866   9.2872

          k = 0.1250-0.5125 0.0000 ( 37268 PWs)   bands (ev):

   -38.5622 -38.4854 -23.0437 -23.0313 -22.9521 -22.8876 -19.1732 -19.0947
   -18.8158 -18.7468 -18.6555 -18.5804 -15.2096 -15.1551 -15.0470 -15.0088
   -14.9152 -14.8598 -14.6310 -14.5878 -14.5485 -14.4556 -14.4304 -14.0832
   -14.0645 -14.0032 -13.0668  -8.4165  -8.4057  -8.3876  -8.3278  -8.3126
    -8.2672  -8.1842  -8.0683  -8.0563  -8.0064  -7.8967  -7.8894  -3.6897
    -3.6515  -3.4239  -3.3466  -3.2286  -3.2140  -3.2082  -2.3982  -2.3921
    -2.2155  -2.1417  -2.0898  -2.0619  -2.0416  -2.0393  -1.9684  -1.8846
    -1.8449  -1.8337  -1.8289  -1.5832  -1.4508  -1.3355  -1.0600  -1.0294
    -0.9805  -0.9780  -0.9407  -0.8903  -0.8218  -0.8009  -0.7499  -0.7213
    -0.3932  -0.3541  -0.3261  -0.2798  -0.1940   0.0557   0.0725   0.1386
     0.1536   0.1839   0.1958   0.2547   0.2977   0.3075   0.7284   0.7622
     0.8603   0.9280   0.9526   0.9832   1.0015   1.0957   1.1175   1.1206
     1.1300   1.1320   1.2201   1.4048   1.5218   1.5402   1.5617   1.6619
     1.6996   2.0958   2.1152   2.2558   2.2750   2.3009   2.3345   2.3801
     2.3961   2.4503   2.4778   2.4863   2.6590   2.8007   2.8874   7.0292
     7.0892   7.1607   7.1757   7.2004   7.3786   7.4546   7.8710   7.9090
     8.4392   8.6767   8.7032   8.7709   8.9057   8.9488   8.9736   9.0463
     9.0705   9.2002

          k = 0.2500 0.0000 0.0000 ( 37346 PWs)   bands (ev):

   -38.5736 -38.4968 -23.1452 -23.1329 -23.0415 -22.9873 -18.9988 -18.9297
   -18.8998 -18.8270 -18.5678 -18.4874 -15.5249 -15.4706 -15.0783 -15.0347
   -14.8597 -14.8387 -14.7419 -14.6168 -14.5817 -14.4930 -14.4299 -14.1857
   -14.1712 -13.9615 -12.9017  -8.4502  -8.4414  -8.4208  -8.3144  -8.0959
    -8.0845  -8.0546  -8.0430  -7.9271  -7.8852  -7.8484  -7.7905  -2.9237
    -2.8887  -2.8485  -2.7540  -2.3208  -2.3176  -2.3139  -2.2632  -2.2006
    -2.1653  -2.1149  -2.0387  -2.0367  -1.4080  -1.3580  -1.0787  -1.0063
    -0.9694  -0.9651  -0.9538  -0.8765  -0.8612  -0.8563  -0.8422  -0.7856
    -0.7775  -0.5920  -0.5348  -0.4802  -0.3126  -0.2564  -0.2300  -0.2268
    -0.1760  -0.1468  -0.1392   0.0232   0.0395   0.0439   0.0923   0.1061
     0.2077   0.2389   0.2431   0.2612   0.2770   0.2987   0.3328   0.3679
     0.3945   0.4425   0.4522   0.6598   0.6741   0.8039   0.8608   0.8934
     0.8997   0.9596   0.9827   1.1198   1.1490   1.1646   1.1725   1.2268
     1.2595   1.2758   1.5898   1.6006   1.6406   1.6441   1.7654   1.8004
     1.9584   2.0882   2.1309   2.2192   2.3297   2.4209   2.5315   5.3404
     5.4949   5.5080   6.1924   6.2810   6.6765   7.1191   7.1346   7.3580
     7.4857   7.6490   7.6803   7.7214   7.8376   8.3400   8.4897   8.5703
     8.7298   8.8504

          k = 0.2500 0.1281 0.0000 ( 37310 PWs)   bands (ev):

   -38.5713 -38.4945 -23.1263 -23.1139 -23.0247 -22.9686 -18.9648 -18.8955
   -18.8940 -18.8212 -18.6678 -18.5879 -15.4194 -15.3667 -15.0520 -15.0054
   -14.8321 -14.8147 -14.7029 -14.5926 -14.5587 -14.5557 -14.4919 -14.1754
   -14.1604 -13.9670 -12.9053  -8.4575  -8.4450  -8.4178  -8.3417  -8.3290
    -8.3194  -8.1591  -8.1010  -7.9419  -7.9304  -7.7884  -7.6828  -3.0681
    -3.0156  -2.8887  -2.8048  -2.4158  -2.4051  -2.3925  -2.3526  -2.2961
    -2.2897  -2.0293  -2.0201  -1.9494  -1.4503  -1.4022  -1.3920  -1.3906
    -1.3800  -1.2891  -1.2434  -1.2421  -1.2042  -1.1019  -1.0597  -0.7937
    -0.6804  -0.6252  -0.4874  -0.4118  -0.3155  -0.2722  -0.2456  -0.1837
    -0.1770  -0.1593  -0.1181  -0.0615  -0.0388  -0.0091   0.0522   0.0656
     0.0893   0.1511   0.2692   0.2918   0.3053   0.3987   0.4247   0.4411
     0.5879   0.6221   0.7524   0.8077   0.8247   0.8871   0.9053   0.9468
     0.9831   1.0112   1.0822   1.0894   1.1000   1.1332   1.1723   1.3160
     1.3249   1.3741   1.5116   1.5222   1.5408   1.6123   2.0529   2.3228
     2.3593   2.4252   2.4740   2.5524   2.5959   2.6598   2.6877   5.5575
     5.7364   5.7499   6.3276   6.4090   6.8077   7.3668   7.3948   7.4441
     7.5106   7.6258   7.7664   7.9085   8.0442   8.3839   8.4274   8.5372
     8.6008   8.6555

          k = 0.2500 0.2563 0.0000 ( 37327 PWs)   bands (ev):

   -38.5658 -38.4890 -23.0798 -23.0674 -22.9836 -22.9228 -18.9016 -18.8788
   -18.8639 -18.8249 -18.8090 -18.7889 -15.1841 -15.1410 -15.0061 -14.9427
   -14.7782 -14.7661 -14.7020 -14.6495 -14.6073 -14.5350 -14.4769 -14.1434
   -14.1269 -13.9810 -12.9189  -8.6437  -8.6322  -8.4629  -8.4003  -8.3908
    -8.3768  -8.3499  -8.2458  -8.0391  -8.0276  -7.8869  -7.7729  -3.4914
    -3.4326  -3.1120  -3.0331  -2.5501  -2.5352  -2.5178  -2.4586  -2.3931
    -2.3857  -2.2736  -2.1717  -2.1595  -1.9849  -1.9281  -1.8827  -1.8148
    -1.7966  -1.7665  -1.6841  -1.2751  -1.2355  -1.2068  -1.1296  -1.0363
    -0.7809  -0.7504  -0.6222  -0.5806  -0.5417  -0.5186  -0.4789  -0.4462
    -0.4357  -0.3258  -0.2149  -0.0217   0.1048   0.1165   0.1534   0.2358
     0.2824   0.3037   0.3431   0.3518   0.4482   0.4669   0.8017   0.8344
     0.8693   0.8887   0.9191   0.9536   0.9700   0.9729   0.9868   1.0391
     1.0623   1.0846   1.1063   1.1713   1.3816   1.3828   1.4453   1.5196
     1.5418   1.6162   1.6379   1.7266   1.7377   1.8226   2.2800   2.3926
     2.7709   2.8565   2.8812   2.9333   2.9661   3.1212   3.1534   6.0978
     6.2472   6.2621   6.6730   6.7231   7.1443   7.1727   7.2759   7.9053
     7.9211   8.1173   8.2837   8.3554   8.3688   8.4433   8.4713   8.6277
     8.7213   8.7559

          k = 0.2500 0.3844 0.0000 ( 37349 PWs)   bands (ev):

   -38.5603 -38.4834 -23.0322 -23.0198 -22.9417 -22.8759 -19.0832 -19.0045
   -18.8645 -18.7912 -18.7831 -18.7136 -15.0580 -15.0177 -14.9422 -14.8671
   -14.7642 -14.7470 -14.7431 -14.7120 -14.5527 -14.4444 -14.4193 -14.1004
   -14.0823 -13.9946 -12.9392  -8.7502  -8.7389  -8.5709  -8.4268  -8.3829
    -8.3694  -8.3547  -8.2760  -8.2643  -8.2303  -8.1071  -8.0193  -3.9046
    -3.8484  -3.4611  -3.3852  -2.9607  -2.9456  -2.9422  -2.5810  -2.5603
    -2.4996  -2.4369  -2.2855  -2.2783  -2.2732  -2.2461  -2.0529  -2.0041
    -1.9885  -1.7664  -1.7070  -1.3168  -1.2839  -1.2442  -1.1469  -1.1188
    -0.9998  -0.9358  -0.7835  -0.7701  -0.7513  -0.7083  -0.7013  -0.5381
    -0.4971  -0.3862  -0.2466  -0.0043   0.1707   0.2133   0.2544   0.2985
     0.3664   0.4022   0.4776   0.5594   0.6131   0.6638   0.8508   0.8703
     0.8808   0.9153   1.0161   1.1052   1.1392   1.1812   1.1844   1.2368
     1.3132   1.3404   1.3873   1.3900   1.4542   1.4752   1.5527   1.6086
     1.8206   1.8214   2.0569   2.1468   2.1622   2.1870   2.2610   2.3108
     2.7292   2.7900   2.9056   3.2076   3.2408   3.3972   3.4202   6.4033
     6.4254   6.5374   6.6744   6.7428   7.3054   7.4965   7.6333   8.0769
     8.2606   8.2735   8.3373   8.6641   8.7967   8.9018   8.9592   9.1924
     9.2593   9.2916

          k = 0.2500-0.5125 0.0000 ( 37378 PWs)   bands (ev):

   -38.5579 -38.4811 -23.0122 -22.9998 -22.9241 -22.8562 -19.1577 -19.0791
   -18.8587 -18.7854 -18.7424 -18.6728 -15.1073 -15.0498 -14.8208 -14.7868
   -14.7833 -14.7481 -14.7377 -14.6949 -14.5541 -14.4000 -14.3887 -14.0797
   -14.0610 -14.0006 -12.9494  -8.7347  -8.7237  -8.5673  -8.4356  -8.4237
    -8.3815  -8.3552  -8.3397  -8.3319  -8.2581  -8.2378  -8.2074  -4.0669
    -4.0119  -3.6183  -3.5414  -3.2011  -3.1931  -3.1840  -2.5757  -2.5532
    -2.4593  -2.4466  -2.4067  -2.3962  -2.2717  -2.2621  -2.1653  -2.1190
    -1.9903  -1.7662  -1.7126  -1.3238  -1.2964  -1.2694  -1.1488  -1.0958
    -1.0957  -1.0221  -0.8523  -0.8269  -0.8258  -0.7842  -0.7456  -0.5414
    -0.5150  -0.3953  -0.2529   0.0057   0.1960   0.2306   0.2770   0.3075
     0.3508   0.4064   0.4836   0.5782   0.7429   0.7930   0.9249   0.9332
     0.9595   1.0016   1.0929   1.1452   1.1721   1.2233   1.2390   1.2884
     1.2899   1.3639   1.3856   1.4369   1.4598   1.6312   1.6512   1.8794
     1.9112   2.0905   2.1100   2.2207   2.3054   2.3254   2.3412   2.4430
     2.5701   2.6454   2.8326   3.2651   3.2995   3.4529   3.4750   6.3623
     6.3788   6.5737   6.6046   6.6844   7.5275   7.6545   7.7660   8.1221
     8.4315   8.6870   8.8835   8.8886   8.9126   9.0181   9.1623   9.2613
     9.3158   9.3373

          k = 0.3750 0.0000 0.0000 ( 37348 PWs)   bands (ev):

   -38.5693 -38.4924 -23.0989 -23.0866 -23.0038 -22.9420 -19.0891 -19.0174
   -18.9101 -18.8403 -18.5617 -18.4814 -15.2739 -15.2440 -15.2150 -15.1432
   -14.9914 -14.9534 -14.8429 -14.6011 -14.5802 -14.4864 -14.4197 -14.1742
   -14.1592 -13.9659 -13.0705  -8.4518  -8.4393  -8.3969  -8.3150  -8.0366
    -8.0253  -7.9653  -7.9536  -7.8963  -7.8000  -7.7722  -7.7209  -3.2497
    -3.2100  -3.1131  -3.0268  -2.3891  -2.3868  -2.1586  -2.1133  -2.1013
    -2.0746  -2.0659  -2.0369  -1.9965  -1.4194  -1.3830  -1.3745  -1.3488
    -1.3450  -1.1808  -1.1624  -1.1386  -1.1001  -1.0083  -1.0014  -0.8542
    -0.8375  -0.6849  -0.6246  -0.6207  -0.5743  -0.5490  -0.4841  -0.3658
    -0.2276  -0.1481  -0.0939  -0.0344   0.0480   0.0687   0.0789   0.0928
     0.1936   0.2992   0.3038   0.3188   0.3351   0.3558   0.3767   0.3834
     0.4226   0.4849   0.4967   0.6736   0.6964   0.7327   0.9418   0.9663
     0.9860   1.0573   1.0590   1.1029   1.1348   1.1554   1.3274   1.3708
     1.4073   1.4124   1.4777   1.4941   1.5169   1.5322   1.7416   1.8273
     1.8445   2.1096   2.1450   2.2624   2.3420   2.5247   2.6140   5.9725
     6.1318   6.1448   6.7993   6.8393   7.2808   7.6050   7.6250   7.6440
     7.6765   7.7093   8.0526   8.1218   8.3592   8.4523   8.5023   8.5746
     8.6837   9.0915

          k = 0.3750 0.1281 0.0000 ( 37304 PWs)   bands (ev):

   -38.5670 -38.4902 -23.0819 -23.0696 -22.9883 -22.9252 -19.0818 -19.0101
   -18.8772 -18.8073 -18.6600 -18.5801 -15.2094 -15.1856 -15.1351 -15.0543
   -14.9386 -14.9104 -14.7942 -14.5719 -14.5538 -14.5495 -14.4849 -14.1579
   -14.1426 -13.9595 -13.0357  -8.4526  -8.4395  -8.3939  -8.3191  -8.2833
    -8.2717  -8.1113  -8.0268  -7.9979  -7.9864  -7.8514  -7.7367  -3.4022
    -3.3488  -3.1648  -3.0827  -2.4299  -2.4164  -2.3568  -2.3202  -2.2256
    -2.1878  -2.0568  -1.9755  -1.8998  -1.7297  -1.6987  -1.6673  -1.6044
    -1.4353  -1.3981  -1.3844  -1.2744  -1.2204  -1.2147  -1.1317  -0.9596
    -0.9067  -0.6564  -0.5607  -0.5006  -0.3838  -0.3677  -0.3284  -0.2680
    -0.2440  -0.2175  -0.2081  -0.1260  -0.0637   0.0092   0.0132   0.1023
     0.1798   0.1991   0.2131   0.3677   0.3831   0.4791   0.4916   0.4969
     0.6677   0.7145   0.7746   0.8538   0.8554   0.8993   0.9496   0.9738
     1.0250   1.0360   1.1375   1.1968   1.2091   1.2552   1.3477   1.3722
     1.3774   1.4084   1.4286   1.4532   1.5320   1.5985   1.8223   2.3796
     2.4325   2.4792   2.5008   2.5849   2.6134   2.8060   2.8342   6.1207
     6.2541   6.2675   6.8746   6.9156   7.2571   7.3116   7.3815   7.7042
     7.7177   7.7837   8.2887   8.3735   8.4729   8.4907   8.5351   8.5815
     8.7321   9.0626

          k = 0.3750 0.2563 0.0000 ( 37327 PWs)   bands (ev):

   -38.5615 -38.4847 -23.0404 -23.0280 -22.9504 -22.8840 -19.0643 -18.9925
   -18.8753 -18.7960 -18.7940 -18.7238 -15.0923 -15.0644 -14.9426 -14.8800
   -14.7948 -14.7623 -14.7182 -14.6554 -14.6543 -14.5045 -14.4647 -14.1206
   -14.1043 -13.9541 -12.9490  -8.6928  -8.6812  -8.5164  -8.4112  -8.4092
    -8.3956  -8.3664  -8.2667  -8.2632  -8.2551  -8.1106  -7.9934  -3.8457
    -3.7823  -3.3944  -3.3116  -2.6198  -2.6000  -2.5410  -2.4987  -2.3978
    -2.3912  -2.2934  -2.2518  -2.2334  -2.1782  -2.1648  -2.0413  -2.0143
    -1.9892  -1.6924  -1.6224  -1.2640  -1.2128  -1.1677  -1.1049  -0.9952
    -0.9057  -0.8975  -0.6915  -0.6317  -0.6004  -0.5742  -0.5367  -0.4581
    -0.4357  -0.3341  -0.2488  -0.0499   0.1382   0.2632   0.3000   0.3129
     0.4573   0.4937   0.5649   0.5791   0.6385   0.6792   0.8490   0.8802
     0.8811   0.9155   0.9913   1.0157   1.0319   1.0588   1.0858   1.1680
     1.2186   1.2535   1.2616   1.2884   1.4193   1.4245   1.5664   1.5679
     1.5972   1.6249   1.6392   1.6421   1.7052   1.7452   2.2278   2.3414
     2.7711   2.8607   2.8931   3.3257   3.3502   3.4711   3.4959   6.2157
     6.2399   6.3142   6.6704   6.7301   7.2292   7.3803   7.5356   7.9462
     7.9596   8.0245   8.1523   8.6713   8.7326   8.7504   8.7987   8.9555
     9.1285   9.1655

          k = 0.3750 0.3844 0.0000 ( 37423 PWs)   bands (ev):

   -38.5560 -38.4792 -22.9980 -22.9856 -22.9119 -22.8420 -19.0699 -19.0440
   -18.9918 -18.9713 -18.7047 -18.6342 -14.9872 -14.9472 -14.8815 -14.8295
   -14.7852 -14.7549 -14.6224 -14.5690 -14.4781 -14.4443 -14.3849 -14.0874
   -14.0696 -13.9738 -12.8582  -8.9591  -8.9477  -8.7741  -8.6348  -8.5955
    -8.5839  -8.4182  -8.3971  -8.3902  -8.3729  -8.3360  -8.2559  -4.2982
    -4.2354  -3.7553  -3.6749  -2.9327  -2.9175  -2.9114  -2.7134  -2.6970
    -2.6877  -2.6469  -2.6318  -2.5833  -2.2864  -2.2839  -2.1807  -2.1331
    -1.9961  -1.5415  -1.4886  -1.3560  -1.3045  -1.1679  -1.1413  -1.1191
    -1.0584  -0.9717  -0.9506  -0.8884  -0.8228  -0.8036  -0.7633  -0.3928
    -0.3871  -0.2729  -0.2686   0.0043   0.2751   0.4141   0.5644   0.5811
     0.5973   0.6131   0.7864   0.9279   0.9824   1.0087   1.0205   1.0341
     1.0759   1.1447   1.1537   1.2102   1.2191   1.2393   1.2944   1.3024
     1.3130   1.3902   1.4456   1.5210   1.5480   1.5516   1.7357   1.8324
     1.8516   2.0117   2.0647   2.0682   2.0837   2.1914   2.2096   2.4521
     2.7139   2.7898   2.9197   3.8665   3.8947   3.9813   3.9983   5.8602
     5.8750   6.0876   6.3644   6.4569   7.4554   7.7240   7.8722   7.9383
     8.3175   8.5196   8.5564   8.5836   8.6268   8.9609   9.0325   9.1564
     9.2111   9.2705

          k = 0.3750-0.5125 0.0000 ( 37434 PWs)   bands (ev):

   -38.5537 -38.4769 -22.9801 -22.9678 -22.8957 -22.8243 -19.1421 -19.0634
   -19.0386 -18.9666 -18.6656 -18.5950 -14.9969 -14.9346 -14.8925 -14.8563
   -14.7218 -14.7121 -14.5411 -14.4986 -14.4600 -14.3614 -14.3453 -14.0760
   -14.0574 -13.9982 -12.8194  -9.0380  -9.0268  -8.8563  -8.7508  -8.7390
    -8.6562  -8.5588  -8.5581  -8.3925  -8.3855  -8.3600  -8.2513  -4.4790
    -4.4170  -3.9204  -3.8408  -3.1713  -3.1664  -3.1553  -2.8284  -2.7855
    -2.7285  -2.7148  -2.6430  -2.5927  -2.2819  -2.2799  -2.2283  -2.1820
    -1.9786  -1.5628  -1.5158  -1.3126  -1.2620  -1.2284  -1.1992  -1.1987
    -1.0713  -1.0427  -1.0218  -0.9495  -0.9044  -0.8867  -0.8473  -0.3572
    -0.3545  -0.2742  -0.2331   0.0298   0.3089   0.4309   0.6237   0.6397
     0.6757   0.7232   0.8622   1.0368   1.0405   1.0494   1.0656   1.1093
     1.2134   1.2204   1.2570   1.2580   1.2965   1.3177   1.3636   1.4577
     1.4701   1.5135   1.5143   1.5718   1.6046   1.6287   1.7137   2.0634
     2.1094   2.1285   2.2646   2.2804   2.2996   2.3412   2.3496   2.3869
     2.5439   2.6349   2.8479   4.0283   4.0587   4.1493   4.1646   5.6649
     5.6777   5.9193   6.2619   6.3677   7.6342   7.6669   7.8556   8.0547
     8.5597   8.6363   8.6570   8.7912   8.8807   8.9574   9.0374   9.0862
     9.1159   9.2844

          k =-0.5000 0.0000 0.0000 ( 37306 PWs)   bands (ev):

   -38.5675 -38.4906 -23.0794 -23.0670 -22.9879 -22.9230 -19.1612 -19.0899
   -18.8718 -18.8015 -18.5592 -18.4788 -15.3124 -15.2817 -15.0981 -15.0754
   -15.0338 -15.0165 -14.8888 -14.6102 -14.6031 -14.4752 -14.4077 -14.1685
   -14.1534 -13.9653 -13.1376  -8.4511  -8.4385  -8.3850  -8.3100  -8.0138
    -8.0026  -7.9270  -7.9152  -7.8892  -7.7636  -7.7420  -7.6913  -3.3731
    -3.3344  -3.2283  -3.1430  -2.4157  -2.4137  -2.1214  -2.1070  -2.1024
    -2.0812  -2.0230  -1.8576  -1.8139  -1.6591  -1.6261  -1.4747  -1.3134
    -1.2940  -1.2731  -1.2626  -1.2573  -1.1704  -1.1040  -1.0975  -0.8645
    -0.8484  -0.8316  -0.8133  -0.7034  -0.6033  -0.5655  -0.5626  -0.4234
    -0.2258  -0.1774  -0.0553   0.0057   0.0600   0.0734   0.0795   0.0872
     0.1877   0.3141   0.3167   0.3287   0.3672   0.3826   0.3962   0.4011
     0.4155   0.4182   0.4943   0.5984   0.8288   0.8575   0.9826   0.9828
     1.0064   1.0232   1.0446   1.0747   1.1409   1.1822   1.2416   1.4474
     1.4549   1.4561   1.4767   1.5109   1.5748   1.6435   1.6497   1.8128
     1.8263   2.0986   2.1248   2.2639   2.3318   2.5383   2.6203   6.7464
     6.8106   6.8626   6.9209   6.9865   7.0008   7.0939   7.1708   7.5872
     7.6584   7.7640   8.1399   8.2272   8.3590   8.7522   8.8108   8.8919
     8.9929   9.0128

          k =-0.5000 0.1281 0.0000 ( 37308 PWs)   bands (ev):

   -38.5652 -38.4884 -23.0633 -23.0509 -22.9730 -22.9069 -19.1534 -19.0821
   -18.8395 -18.7691 -18.6568 -18.5768 -15.2638 -15.2323 -15.0256 -14.9821
   -14.9765 -14.9178 -14.8379 -14.5795 -14.5723 -14.5419 -14.4739 -14.1502
   -14.1348 -13.9550 -13.0888  -8.4469  -8.4338  -8.3830  -8.3075  -8.1490
    -8.1383  -8.1377  -8.1266  -8.0130  -7.9689  -7.8799  -7.8768  -3.5312
    -3.4785  -3.2883  -3.2064  -2.4406  -2.4317  -2.3466  -2.3076  -2.1165
    -2.0010  -1.9870  -1.9843  -1.9634  -1.9407  -1.8961  -1.8245  -1.7542
    -1.4151  -1.4049  -1.3885  -1.2983  -1.1985  -1.1472  -1.1442  -1.0227
    -1.0130  -0.6327  -0.6253  -0.5502  -0.4168  -0.3955  -0.3489  -0.3421
    -0.3139  -0.2710  -0.2206  -0.1729  -0.1650   0.0121   0.0238   0.1057
     0.1951   0.2652   0.2948   0.3607   0.3781   0.5124   0.5654   0.5801
     0.6860   0.7051   0.8265   0.8402   0.9377   0.9437   0.9923   0.9961
     1.0109   1.0417   1.1169   1.1604   1.1714   1.2115   1.3936   1.4265
     1.4340   1.4751   1.4828   1.5564   1.5622   1.6244   1.6421   2.3631
     2.4581   2.4873   2.4958   2.5780   2.6055   2.8276   2.8540   6.6923
     6.7124   6.7719   6.9532   7.1095   7.1562   7.1677   7.2671   7.3302
     7.3569   7.8345   8.1484   8.6484   8.7105   8.7615   8.8331   8.9489
     8.9942   9.1183

          k =-0.5000 0.2563 0.0000 ( 37354 PWs)   bands (ev):

   -38.5597 -38.4829 -23.0238 -23.0114 -22.9365 -22.8677 -19.1347 -19.0633
   -18.8708 -18.7915 -18.7579 -18.6872 -15.1414 -15.1076 -14.8981 -14.8716
   -14.7264 -14.7029 -14.6978 -14.6770 -14.6188 -14.5047 -14.4980 -14.1108
   -14.0946 -13.9427 -12.9630  -8.6149  -8.6033  -8.4603  -8.4488  -8.4434
    -8.4153  -8.4029  -8.3832  -8.2986  -8.2767  -8.2695  -8.2101  -3.9879
    -3.9239  -3.5307  -3.4484  -2.6369  -2.6158  -2.5271  -2.4886  -2.4476
    -2.4033  -2.3919  -2.3849  -2.2164  -2.1797  -2.1662  -2.1213  -2.0678
    -2.0326  -1.6635  -1.5935  -1.2460  -1.1957  -1.1267  -1.0257  -1.0166
    -1.0038  -0.8938  -0.6923  -0.6327  -0.6324  -0.6180  -0.5653  -0.4538
    -0.4369  -0.3278  -0.2628  -0.0645   0.1565   0.3048   0.3299   0.3372
     0.4676   0.5380   0.5943   0.6217   0.7980   0.8389   0.8803   0.9323
     0.9402   0.9704   1.0417   1.0929   1.1176   1.1278   1.1307   1.1355
     1.1637   1.2553   1.3068   1.3598   1.4585   1.5443   1.5702   1.5800
     1.5829   1.5854   1.5980   1.6720   1.7137   1.9157   1.9749   2.3005
     2.7698   2.8573   2.8929   3.4371   3.4600   3.5658   3.5889   6.1814
     6.1980   6.3699   6.5805   6.6740   7.3884   7.5552   7.5809   8.0321
     8.0406   8.0500   8.0741   8.7181   8.7702   8.8785   8.9202   8.9959
     9.1679   9.2090

          k =-0.5000 0.3844 0.0000 ( 37462 PWs)   bands (ev):

   -38.5542 -38.4774 -22.9836 -22.9712 -22.8994 -22.8277 -19.1159 -19.0618
   -19.0444 -18.9830 -18.6703 -18.5994 -15.0127 -14.9768 -14.8763 -14.8117
   -14.7521 -14.7455 -14.5214 -14.4861 -14.4279 -14.4276 -14.4160 -14.0817
   -14.0641 -13.9642 -12.8236  -9.0084  -8.9970  -8.8245  -8.7542  -8.7425
    -8.6530  -8.5680  -8.5411  -8.4109  -8.3996  -8.3633  -8.2703  -4.4593
    -4.3953  -3.8975  -3.8170  -2.9208  -2.9057  -2.8989  -2.8318  -2.7868
    -2.7453  -2.7322  -2.6607  -2.6164  -2.2854  -2.2832  -2.2184  -2.1693
    -1.9962  -1.4557  -1.4208  -1.3991  -1.3748  -1.1407  -1.1211  -1.1034
    -1.0923  -1.0268  -0.9411  -0.9154  -0.8534  -0.8384  -0.7993  -0.3361
    -0.3250  -0.2866  -0.2199   0.0093   0.3076   0.4550   0.6883   0.6927
     0.7428   0.7889   0.9247   1.0023   1.0105   1.0464   1.0613   1.1644
     1.1676   1.1878   1.2004   1.2467   1.2921   1.3197   1.3783   1.3971
     1.4295   1.4857   1.4861   1.5273   1.5597   1.6381   1.7087   1.8375
     1.8696   2.0302   2.0455   2.0905   2.1382   2.1426   2.3625   2.3641
     2.7117   2.7880   2.9252   4.0908   4.1175   4.1879   4.2026   5.6227
     5.6363   5.8694   6.2535   6.3600   7.5833   7.7021   7.8496   8.0351
     8.3288   8.4796   8.5617   8.7170   8.8908   8.9046   9.0183   9.0684
     9.1735   9.2212

          k =-0.5000-0.5125 0.0000 ( 37436 PWs)   bands (ev):

   -38.5519 -38.4751 -22.9667 -22.9544 -22.8839 -22.8110 -19.1357 -19.1081
   -19.0570 -19.0366 -18.6320 -18.5610 -14.9581 -14.9483 -14.9219 -14.8832
   -14.6809 -14.6799 -14.4463 -14.4031 -14.3933 -14.3767 -14.3233 -14.0742
   -14.0556 -13.9970 -12.7609  -9.1605  -9.1491  -8.9736  -8.8717  -8.8599
    -8.7916  -8.6800  -8.6753  -8.4084  -8.4001  -8.3596  -8.2671  -4.6485
    -4.5851  -4.0648  -3.9851  -3.1589  -3.1548  -3.1431  -2.9621  -2.9181
    -2.7724  -2.7603  -2.6837  -2.6378  -2.2735  -2.2719  -2.2518  -2.2043
    -1.9690  -1.5008  -1.4567  -1.3809  -1.3317  -1.2425  -1.1595  -1.1485
    -1.1383  -1.0395  -1.0156  -1.0111  -0.9365  -0.9217  -0.8847  -0.2927
    -0.2863  -0.2817  -0.1801   0.0410   0.3445   0.4757   0.7511   0.8167
     0.9562   1.0003   1.0484   1.0654   1.0814   1.0943   1.1037   1.1138
     1.1337   1.2118   1.3105   1.3398   1.3859   1.3995   1.4278   1.5848
     1.6079   1.6139   1.6204   1.6272   1.6323   1.7484   1.8337   1.9435
     2.1296   2.1483   2.2373   2.2530   2.3128   2.3489   2.5242   2.5364
     2.5387   2.6295   2.8571   4.3043   4.3322   4.4181   4.4314   5.3746
     5.3869   5.6405   6.1429   6.2593   7.6208   7.6504   7.9522   7.9680
     8.2859   8.4776   8.7176   8.7970   8.8277   8.8336   8.9954   9.0804
     9.1118   9.1319

     the Fermi energy is     2.5337 ev

!    total energy              =   -1868.72260715 Ry
     Harris-Foulkes estimate   =   -1868.72260755 Ry
     estimated scf accuracy    <       0.00000080 Ry

     The total energy is the sum of the following terms:

     one-electron contribution =  -25361.22502363 Ry
     hartree contribution      =   12831.56443464 Ry
     xc contribution           =    -642.19788572 Ry
     ewald contribution        =   11303.14660314 Ry
     smearing contrib. (-TS)   =      -0.01073558 Ry

     convergence has been achieved in  34 iterations

     negative rho (up, down):  9.040E-02 0.000E+00

     Forces acting on atoms (cartesian axes, Ry/au):

     atom    1 type  3   force =     0.00000000    0.00000000   -0.00048656
     atom    2 type  2   force =     0.00000000    0.00000000    0.00152416
     atom    3 type  3   force =     0.00000000    0.00000000    0.00033039
     atom    4 type  1   force =     0.00000000    0.00000000   -0.00018669
     atom    5 type  2   force =     0.00000000    0.00000000   -0.00067173
     atom    6 type  3   force =     0.00000000    0.00000000    0.00132398
     atom    7 type  3   force =     0.00000000    0.00000000    0.00104649
     atom    8 type  4   force =     0.00000000    0.00000000   -0.00284581
     atom    9 type  3   force =     0.00000000    0.00000000    0.00517135
     atom   10 type  3   force =     0.00000000    0.00000000    0.00355867
     atom   11 type  2   force =     0.00000000    0.00000000   -0.00120656
     atom   12 type  1   force =     0.00000000    0.00000000    0.01647770
     atom   13 type  3   force =     0.00000000    0.00000000   -0.01929963
     atom   14 type  3   force =     0.00000000    0.00000000    0.02195363
     atom   15 type  2   force =     0.00000000    0.00000000   -0.02509805
     atom   16 type  3   force =     0.00000000    0.00000000    0.01940128
     atom   17 type  1   force =     0.00000000    0.00000000   -0.00301818
     atom   18 type  2   force =     0.00000000    0.00000000   -0.02312977
     atom   19 type  3   force =     0.00000000    0.00000000    0.00424788
     atom   20 type  3   force =     0.00000000    0.00000000    0.00303706
     atom   21 type  4   force =     0.00000000    0.00000000   -0.00081564
     atom   22 type  3   force =     0.00000000    0.00000000   -0.00054414
     atom   23 type  3   force =     0.00000000    0.00000000    0.00085079
     atom   24 type  2   force =     0.00000000    0.00000000    0.00034117
     atom   25 type  1   force =     0.00000000    0.00000000    0.00008610
     atom   26 type  3   force =     0.00000000    0.00000000   -0.00191862
     atom   27 type  2   force =     0.00000000    0.00000000   -0.00041944
     atom   28 type  3   force =     0.00000000    0.00000000    0.00029019

     Total force =     0.052577     Total SCF correction =     0.004135


     Computing stress (Cartesian axis) and pressure


     negative rho (up, down):  9.040E-02 0.000E+00
          total   stress  (Ry/bohr**3)                   (kbar)     P=       -6.61
  -0.00000100   0.00000000   0.00000000           -0.15        0.00        0.00
   0.00000000  -0.00010754   0.00000000            0.00      -15.82        0.00
   0.00000000   0.00000000  -0.00002624            0.00        0.00       -3.86

 
     init_run     :     10.89s CPU     11.20s WALL (       1 calls)
     electrons    :    685.69s CPU    706.96s WALL (       1 calls)
     forces       :      4.88s CPU      5.07s WALL (       1 calls)
     stress       :     53.82s CPU     54.42s WALL (       1 calls)

     Called by init_run:
     wfcinit      :      7.73s CPU      7.84s WALL (       1 calls)
     potinit      :      0.77s CPU      0.78s WALL (       1 calls)
     hinit0       :      1.07s CPU      1.07s WALL (       1 calls)

     Called by electrons:
     c_bands      :    517.86s CPU    528.44s WALL (      34 calls)
     sum_band     :    109.24s CPU    114.97s WALL (      34 calls)
     v_of_rho     :      5.81s CPU      5.84s WALL (      35 calls)
     newd         :     24.97s CPU     29.80s WALL (      35 calls)
     mix_rho      :     27.76s CPU     27.95s WALL (      34 calls)

     Called by c_bands:
     init_us_2    :      3.61s CPU      3.63s WALL (    1775 calls)
     cegterg      :    484.87s CPU    494.95s WALL (     850 calls)

     Called by sum_band:
     sum_band:bec :      0.24s CPU      0.25s WALL (     850 calls)
     addusdens    :     24.23s CPU     29.20s WALL (      34 calls)

     Called by *egterg:
     h_psi        :    231.49s CPU    238.52s WALL (    3627 calls)
     s_psi        :     21.93s CPU     22.11s WALL (    3627 calls)
     g_psi        :      0.67s CPU      0.67s WALL (    2752 calls)
     cdiaghg      :    107.31s CPU    107.76s WALL (    3602 calls)

     Called by h_psi:
     h_psi:calbec :     30.12s CPU     31.18s WALL (    3627 calls)
     vloc_psi     :    177.89s CPU    180.27s WALL (    3627 calls)
     add_vuspsi   :     22.58s CPU     24.54s WALL (    3627 calls)

     General routines
     calbec       :     79.75s CPU     80.96s WALL (    4602 calls)
     fft          :      6.23s CPU      6.26s WALL (     478 calls)
     ffts         :     13.05s CPU     13.16s WALL (   15488 calls)
     fftw         :    210.30s CPU    213.05s WALL (  607434 calls)
     interpolate  :      0.49s CPU      0.50s WALL (      35 calls)
 
     Parallel routines
     fft_scatt_xy :     23.71s CPU     23.97s WALL (  623400 calls)
     fft_scatt_yz :    145.75s CPU    147.54s WALL (  623400 calls)
 
     PWSCF        :  12m36.02s CPU  12m58.43s WALL

 
   This run was terminated on:  18:12:36   5May2021            

=------------------------------------------------------------------------------=
   JOB DONE.
=------------------------------------------------------------------------------=
[1620252756.497254] [holy7c08205:58196:0]          mpool.c:43   UCX  WARN  object 0x30f0800 was not returned to mpool ucp_requests
[1620252756.497271] [holy7c08205:58196:0]          mpool.c:43   UCX  WARN  object 0x30f0d40 was not returned to mpool ucp_requests
[1620252756.499292] [holy7c08208:219232:0]          mpool.c:43   UCX  WARN  object 0x4385d00 was not returned to mpool ucp_requests
[1620252756.499309] [holy7c08208:219232:0]          mpool.c:43   UCX  WARN  object 0x43865c0 was not returned to mpool ucp_requests
[1620252756.496885] [holy7c08301:210286:0]          mpool.c:43   UCX  WARN  object 0x3c67d80 was not returned to mpool ucp_requests
[1620252756.504479] [holy7c08104:168893:0]          mpool.c:43   UCX  WARN  object 0x3e98300 was not returned to mpool ucp_requests
[1620252756.501580] [holy7c08109:211893:0]          mpool.c:43   UCX  WARN  object 0x2950a40 was not returned to mpool ucp_requests
[1620252756.504249] [holy7c08302:35634:0]          mpool.c:43   UCX  WARN  object 0x468c940 was not returned to mpool ucp_requests
[1620252756.504590] [holy7c08111:258164:0]          mpool.c:43   UCX  WARN  object 0x41ddb00 was not returned to mpool ucp_requests
