
     Program PWSCF v.6.5 starts on  5May2021 at 17:59:43 

     This program is part of the open-source Quantum ESPRESSO suite
     for quantum simulation of materials; please cite
         "P. Giannozzi et al., J. Phys.:Condens. Matter 21 395502 (2009);
         "P. Giannozzi et al., J. Phys.:Condens. Matter 29 465901 (2017);
          URL http://www.quantum-espresso.org", 
     in publications or presentations arising from this work. More details at
     http://www.quantum-espresso.org/quote

     Parallel version (MPI), running on    20 processors

     MPI processes distributed on    15 nodes
     R & G space division:  proc/nbgrp/npool/nimage =      20
     Reading input from YBCO_CuO_cleave_5.0_sep_scf.pwi
Warning: card &IONS ignored
Warning: card     ION_DYNAMICS = 'BFGS' ignored
Warning: card / ignored
Warning: card &CELL ignored
Warning: card     CELL_DYNAMICS = 'BFGS' ignored
Warning: card / ignored

     Current dimensions of program PWSCF are:
     Max number of different atomic species (ntypx) = 10
     Max number of k-points (npk) =  40000
     Max angular momentum in pseudopotentials (lmaxx) =  3

     Subspace diagonalization in iterative solution of the eigenvalue problem:
     one sub-group per band group will be used
     scalapack distributed-memory algorithm (size of sub-group:  4*  4 procs)

     Message from routine setup:
     using ibrav=0 with symmetry is DISCOURAGED, use correct ibrav instead
 
     Parallelization info
     --------------------
     sticks:   dense  smooth     PW     G-vecs:    dense   smooth      PW
     Min         150      50     14                79178    15233    2374
     Max         151      51     15                79221    15259    2425
     Sum        3015    1011    293              1583993   304845   48017
 


     bravais-lattice index     =            0
     lattice parameter (alat)  =       7.3477  a.u.
     unit-cell volume          =    4854.4281 (a.u.)^3
     number of atoms/cell      =           28
     number of atomic types    =            4
     number of electrons       =       229.00
     number of Kohn-Sham states=          138
     kinetic-energy cutoff     =      60.0000  Ry
     charge density cutoff     =     720.0000  Ry
     convergence threshold     =      1.0E-06
     mixing beta               =       0.2000
     number of iterations used =           10  local-TF  mixing
     Exchange-correlation= SLA PW PBE PBE
                           (   1   4   3   4   0   0   0)

     celldm(1)=   7.347715  celldm(2)=   0.000000  celldm(3)=   0.000000
     celldm(4)=   0.000000  celldm(5)=   0.000000  celldm(6)=   0.000000

     crystal axes: (cart. coord. in units of alat)
               a(1) = (   1.000000   0.000000   0.000000 )  
               a(2) = (   0.000000   0.975577   0.000000 )  
               a(3) = (   0.000000   0.000000  12.543521 )  

     reciprocal axes: (cart. coord. in units 2 pi/alat)
               b(1) = (  1.000000  0.000000  0.000000 )  
               b(2) = (  0.000000  1.025034  0.000000 )  
               b(3) = (  0.000000  0.000000  0.079722 )  


     PseudoPot. # 1 for Ba read from file:
     /n/holyscratch01/hoffman_lab/ruizhe/YBCO_Project/pseudo/Ba.pbe-nsp-van.UPF
     MD5 check sum: 2b9c31dd849566dd297d80989662b7a0
     Pseudo is Ultrasoft + core correction, Zval = 10.0
     Generated by new atomic code, or converted to UPF format
     Using radial grid of  907 points,  6 beta functions with: 
                l(1) =   0
                l(2) =   0
                l(3) =   1
                l(4) =   1
                l(5) =   2
                l(6) =   2
     Q(r) pseudized with  6 coefficients,  rinner =    1.200   1.200   1.200
                                                       1.200   1.200

     PseudoPot. # 2 for Cu read from file:
     /n/holyscratch01/hoffman_lab/ruizhe/YBCO_Project/pseudo/Cu.pbe-n-van_ak.UPF
     MD5 check sum: 34e3282627ffb533726feb647e090d62
     Pseudo is Ultrasoft + core correction, Zval = 11.0
     Generated by new atomic code, or converted to UPF format
     Using radial grid of  867 points,  6 beta functions with: 
                l(1) =   0
                l(2) =   0
                l(3) =   1
                l(4) =   1
                l(5) =   2
                l(6) =   2
     Q(r) pseudized with  8 coefficients,  rinner =    1.400   1.400   1.400
                                                       1.400   1.400

     PseudoPot. # 3 for O  read from file:
     /n/holyscratch01/hoffman_lab/ruizhe/YBCO_Project/pseudo/O.pbe-van_ak.UPF
     MD5 check sum: 783ce7fe4c79b6a4916957118fed0856
     Pseudo is Ultrasoft, Zval =  6.0
     Generated by new atomic code, or converted to UPF format
     Using radial grid of  737 points,  4 beta functions with: 
                l(1) =   0
                l(2) =   0
                l(3) =   1
                l(4) =   1
     Q(r) pseudized with  8 coefficients,  rinner =    0.800   0.800   0.800


     PseudoPot. # 4 for Y  read from file:
     /n/holyscratch01/hoffman_lab/ruizhe/YBCO_Project/pseudo/Y.pbe-nsp-van.UPF
     MD5 check sum: 4412fed3ab108fed87a1b7d6a69a4a38
     Pseudo is Ultrasoft + core correction, Zval = 11.0
     Generated by new atomic code, or converted to UPF format
     Using radial grid of  885 points,  6 beta functions with: 
                l(1) =   0
                l(2) =   0
                l(3) =   1
                l(4) =   1
                l(5) =   2
                l(6) =   2
     Q(r) pseudized with  6 coefficients,  rinner =    1.200   1.200   1.200
                                                       1.200   1.200

     atomic species   valence    mass     pseudopotential
        Ba            10.00   137.32700     Ba( 1.00)
        Cu            11.00    63.54600     Cu( 1.00)
        O              6.00    15.99900     O ( 1.00)
        Y             11.00    88.90584     Y ( 1.00)

      4 Sym. Ops. (no inversion) found



   Cartesian axes

     site n.     atom                  positions (alat units)
         1           O   tau(   1) = (   0.0000000   0.4877884  -0.0257983  )
         2           Cu  tau(   2) = (   0.0000000   0.0000000   0.0215779  )
         3           O   tau(   3) = (   0.0000000   0.0000000   0.5073114  )
         4           Ba  tau(   4) = (   0.4999996   0.4877884   0.5319677  )
         5           Cu  tau(   5) = (   0.0000000   0.0000000   1.0495845  )
         6           O   tau(   6) = (   0.4999996   0.0000000   1.1181579  )
         7           O   tau(   7) = (   0.0000000   0.4877884   1.1273137  )
         8           Y   tau(   8) = (   0.4999996   0.4877884   1.4938777  )
         9           O   tau(   9) = (   0.0000000   0.4877884   1.8497402  )
        10           O   tau(  10) = (   0.4999996   0.0000000   1.8692709  )
        11           Cu  tau(  11) = (   0.0000000   0.0000000   1.9417560  )
        12           Ba  tau(  12) = (   0.4999996   0.4877884   2.4526063  )
        13           O   tau(  13) = (   0.0000000   0.0000000   2.5103470  )
        14           O   tau(  14) = (   0.0000000   0.4877884   2.9968469  )
        15           Cu  tau(  15) = (   0.0000000   0.0000000   2.9968521  )
        16           O   tau(  16) = (   0.0000000   0.0000000   4.7692566  )
        17           Ba  tau(  17) = (   0.4999996   0.4877884   4.8269896  )
        18           Cu  tau(  18) = (   0.0000000   0.0000000   5.3378629  )
        19           O   tau(  19) = (   0.4999996   0.0000000   5.4103353  )
        20           O   tau(  20) = (   0.0000000   0.4877884   5.4298479  )
        21           Y   tau(  21) = (   0.4999996   0.4877884   5.7857130  )
        22           O   tau(  22) = (   0.0000000   0.4877884   6.1522770  )
        23           O   tau(  23) = (   0.4999996   0.0000000   6.1614457  )
        24           Cu  tau(  24) = (   0.0000000   0.0000000   6.2300242  )
        25           Ba  tau(  25) = (   0.4999996   0.4877884   6.7476255  )
        26           O   tau(  26) = (   0.0000000   0.0000000   6.7722819  )
        27           Cu  tau(  27) = (   0.0000000   0.0000000   7.2579871  )
        28           O   tau(  28) = (   0.0000000   0.4877884   7.3053684  )

     number of k points=    25  Gaussian smearing, width (Ry)=  0.0100
                       cart. coord. in units 2pi/alat
        k(    1) = (   0.0000000   0.0000000   0.0000000), wk =   0.0312500
        k(    2) = (   0.0000000   0.1281293   0.0000000), wk =   0.0625000
        k(    3) = (   0.0000000   0.2562585   0.0000000), wk =   0.0625000
        k(    4) = (   0.0000000   0.3843878   0.0000000), wk =   0.0625000
        k(    5) = (   0.0000000  -0.5125170   0.0000000), wk =   0.0312500
        k(    6) = (   0.1250000   0.0000000   0.0000000), wk =   0.0625000
        k(    7) = (   0.1250000   0.1281293   0.0000000), wk =   0.1250000
        k(    8) = (   0.1250000   0.2562585   0.0000000), wk =   0.1250000
        k(    9) = (   0.1250000   0.3843878   0.0000000), wk =   0.1250000
        k(   10) = (   0.1250000  -0.5125170   0.0000000), wk =   0.0625000
        k(   11) = (   0.2500000   0.0000000   0.0000000), wk =   0.0625000
        k(   12) = (   0.2500000   0.1281293   0.0000000), wk =   0.1250000
        k(   13) = (   0.2500000   0.2562585   0.0000000), wk =   0.1250000
        k(   14) = (   0.2500000   0.3843878   0.0000000), wk =   0.1250000
        k(   15) = (   0.2500000  -0.5125170   0.0000000), wk =   0.0625000
        k(   16) = (   0.3750000   0.0000000   0.0000000), wk =   0.0625000
        k(   17) = (   0.3750000   0.1281293   0.0000000), wk =   0.1250000
        k(   18) = (   0.3750000   0.2562585   0.0000000), wk =   0.1250000
        k(   19) = (   0.3750000   0.3843878   0.0000000), wk =   0.1250000
        k(   20) = (   0.3750000  -0.5125170   0.0000000), wk =   0.0625000
        k(   21) = (  -0.5000000   0.0000000   0.0000000), wk =   0.0312500
        k(   22) = (  -0.5000000   0.1281293   0.0000000), wk =   0.0625000
        k(   23) = (  -0.5000000   0.2562585   0.0000000), wk =   0.0625000
        k(   24) = (  -0.5000000   0.3843878   0.0000000), wk =   0.0625000
        k(   25) = (  -0.5000000  -0.5125170   0.0000000), wk =   0.0312500

     Dense  grid:  1583993 G-vectors     FFT dimensions: (  64,  64, 800)

     Smooth grid:   304845 G-vectors     FFT dimensions: (  40,  36, 480)

     Estimated max dynamical RAM per process >     504.94 MB

     Estimated total dynamical RAM >       9.86 GB

     Initial potential from superposition of free atoms

     starting charge  228.84827, renormalised to  229.00000

     negative rho (up, down):  8.942E-02 0.000E+00
     Starting wfcs are  201 randomized atomic wfcs

     total cpu time spent up to now is       10.7 secs

     Self-consistent Calculation

     iteration #  1     ecut=    60.00 Ry     beta= 0.20
     Davidson diagonalization with overlap
     ethr =  1.00E-02,  avg # of iterations =  2.0

     negative rho (up, down):  8.729E-02 0.000E+00

     total cpu time spent up to now is       27.8 secs

     total energy              =   -1869.52012836 Ry
     Harris-Foulkes estimate   =   -1871.09998249 Ry
     estimated scf accuracy    <      13.46399222 Ry

     iteration #  2     ecut=    60.00 Ry     beta= 0.20
     Davidson diagonalization with overlap
     ethr =  5.88E-03,  avg # of iterations =  1.0

     negative rho (up, down):  8.605E-02 0.000E+00

     total cpu time spent up to now is       42.9 secs

     total energy              =   -1868.88336900 Ry
     Harris-Foulkes estimate   =   -1869.87418130 Ry
     estimated scf accuracy    <       5.82936013 Ry

     iteration #  3     ecut=    60.00 Ry     beta= 0.20
     Davidson diagonalization with overlap
     ethr =  2.55E-03,  avg # of iterations =  1.0

     negative rho (up, down):  8.565E-02 0.000E+00

     total cpu time spent up to now is       58.1 secs

     total energy              =   -1868.70833692 Ry
     Harris-Foulkes estimate   =   -1869.15979644 Ry
     estimated scf accuracy    <       4.21303005 Ry

     iteration #  4     ecut=    60.00 Ry     beta= 0.20
     Davidson diagonalization with overlap
     ethr =  1.84E-03,  avg # of iterations =  1.7

     negative rho (up, down):  8.583E-02 0.000E+00

     total cpu time spent up to now is       74.0 secs

     total energy              =   -1868.85254920 Ry
     Harris-Foulkes estimate   =   -1868.92254852 Ry
     estimated scf accuracy    <       2.26506252 Ry

     iteration #  5     ecut=    60.00 Ry     beta= 0.20
     Davidson diagonalization with overlap
     ethr =  9.89E-04,  avg # of iterations =  1.0

     negative rho (up, down):  8.635E-02 0.000E+00

     total cpu time spent up to now is       89.3 secs

     total energy              =   -1868.81947655 Ry
     Harris-Foulkes estimate   =   -1868.88913597 Ry
     estimated scf accuracy    <       1.23098089 Ry

     iteration #  6     ecut=    60.00 Ry     beta= 0.20
     Davidson diagonalization with overlap
     ethr =  5.38E-04,  avg # of iterations =  1.0

     negative rho (up, down):  8.706E-02 0.000E+00

     total cpu time spent up to now is      104.3 secs

     total energy              =   -1868.76976020 Ry
     Harris-Foulkes estimate   =   -1868.83650733 Ry
     estimated scf accuracy    <       0.50404859 Ry

     iteration #  7     ecut=    60.00 Ry     beta= 0.20
     Davidson diagonalization with overlap
     ethr =  2.20E-04,  avg # of iterations =  5.6

     negative rho (up, down):  8.756E-02 0.000E+00

     total cpu time spent up to now is      124.8 secs

     total energy              =   -1868.76756475 Ry
     Harris-Foulkes estimate   =   -1868.78717973 Ry
     estimated scf accuracy    <       0.36943132 Ry

     iteration #  8     ecut=    60.00 Ry     beta= 0.20
     Davidson diagonalization with overlap
     ethr =  1.61E-04,  avg # of iterations =  2.9

     negative rho (up, down):  8.878E-02 0.000E+00

     total cpu time spent up to now is      142.0 secs

     total energy              =   -1868.74966479 Ry
     Harris-Foulkes estimate   =   -1868.78334788 Ry
     estimated scf accuracy    <       0.58839890 Ry

     iteration #  9     ecut=    60.00 Ry     beta= 0.20
     Davidson diagonalization with overlap
     ethr =  1.61E-04,  avg # of iterations =  3.8

     negative rho (up, down):  8.940E-02 0.000E+00

     total cpu time spent up to now is      160.4 secs

     total energy              =   -1868.75223152 Ry
     Harris-Foulkes estimate   =   -1868.75802535 Ry
     estimated scf accuracy    <       0.39901273 Ry

     iteration # 10     ecut=    60.00 Ry     beta= 0.20
     Davidson diagonalization with overlap
     ethr =  1.61E-04,  avg # of iterations =  1.0

     negative rho (up, down):  9.018E-02 0.000E+00

     total cpu time spent up to now is      175.5 secs

     total energy              =   -1868.73474334 Ry
     Harris-Foulkes estimate   =   -1868.75528642 Ry
     estimated scf accuracy    <       0.38660085 Ry

     iteration # 11     ecut=    60.00 Ry     beta= 0.20
     Davidson diagonalization with overlap
     ethr =  1.61E-04,  avg # of iterations =  1.4

     negative rho (up, down):  9.088E-02 0.000E+00

     total cpu time spent up to now is      190.9 secs

     total energy              =   -1868.73106846 Ry
     Harris-Foulkes estimate   =   -1868.74306721 Ry
     estimated scf accuracy    <       0.61355931 Ry

     iteration # 12     ecut=    60.00 Ry     beta= 0.20
     Davidson diagonalization with overlap
     ethr =  1.61E-04,  avg # of iterations =  1.6

     negative rho (up, down):  9.092E-02 0.000E+00

     total cpu time spent up to now is      206.3 secs

     total energy              =   -1868.73172457 Ry
     Harris-Foulkes estimate   =   -1868.73656032 Ry
     estimated scf accuracy    <       0.55670521 Ry

     iteration # 13     ecut=    60.00 Ry     beta= 0.20
     Davidson diagonalization with overlap
     ethr =  1.61E-04,  avg # of iterations =  1.0

     negative rho (up, down):  9.063E-02 0.000E+00

     total cpu time spent up to now is      221.2 secs

     total energy              =   -1868.72775331 Ry
     Harris-Foulkes estimate   =   -1868.73289953 Ry
     estimated scf accuracy    <       0.21428004 Ry

     iteration # 14     ecut=    60.00 Ry     beta= 0.20
     Davidson diagonalization with overlap
     ethr =  9.36E-05,  avg # of iterations =  4.0

     negative rho (up, down):  8.989E-02 0.000E+00

     total cpu time spent up to now is      239.3 secs

     total energy              =   -1868.72513702 Ry
     Harris-Foulkes estimate   =   -1868.72905136 Ry
     estimated scf accuracy    <       0.03622021 Ry

     iteration # 15     ecut=    60.00 Ry     beta= 0.20
     Davidson diagonalization with overlap
     ethr =  1.58E-05,  avg # of iterations =  8.2

     negative rho (up, down):  9.002E-02 0.000E+00

     total cpu time spent up to now is      264.7 secs

     total energy              =   -1868.72633534 Ry
     Harris-Foulkes estimate   =   -1868.72688119 Ry
     estimated scf accuracy    <       0.02894101 Ry

     iteration # 16     ecut=    60.00 Ry     beta= 0.20
     Davidson diagonalization with overlap
     ethr =  1.26E-05,  avg # of iterations =  1.0

     negative rho (up, down):  8.955E-02 0.000E+00

     total cpu time spent up to now is      279.6 secs

     total energy              =   -1868.72632148 Ry
     Harris-Foulkes estimate   =   -1868.72651485 Ry
     estimated scf accuracy    <       0.02129575 Ry

     iteration # 17     ecut=    60.00 Ry     beta= 0.20
     Davidson diagonalization with overlap
     ethr =  9.30E-06,  avg # of iterations =  1.0

     negative rho (up, down):  9.255E-02 0.000E+00

     total cpu time spent up to now is      294.4 secs

     total energy              =   -1868.72561983 Ry
     Harris-Foulkes estimate   =   -1868.72641954 Ry
     estimated scf accuracy    <       0.02408833 Ry

     iteration # 18     ecut=    60.00 Ry     beta= 0.20
     Davidson diagonalization with overlap
     ethr =  9.30E-06,  avg # of iterations =  1.7

     negative rho (up, down):  9.856E-02 0.000E+00

     total cpu time spent up to now is      310.0 secs

     total energy              =   -1868.72546085 Ry
     Harris-Foulkes estimate   =   -1868.72575080 Ry
     estimated scf accuracy    <       0.01819843 Ry

     iteration # 19     ecut=    60.00 Ry     beta= 0.20
     Davidson diagonalization with overlap
     ethr =  7.95E-06,  avg # of iterations =  1.8

     negative rho (up, down):  9.456E-02 0.000E+00

     total cpu time spent up to now is      325.8 secs

     total energy              =   -1868.72473292 Ry
     Harris-Foulkes estimate   =   -1868.72552767 Ry
     estimated scf accuracy    <       0.01624360 Ry

     iteration # 20     ecut=    60.00 Ry     beta= 0.20
     Davidson diagonalization with overlap
     ethr =  7.09E-06,  avg # of iterations =  2.1

     negative rho (up, down):  9.418E-02 0.000E+00

     total cpu time spent up to now is      342.0 secs

     total energy              =   -1868.72426910 Ry
     Harris-Foulkes estimate   =   -1868.72495185 Ry
     estimated scf accuracy    <       0.01486430 Ry

     iteration # 21     ecut=    60.00 Ry     beta= 0.20
     Davidson diagonalization with overlap
     ethr =  6.49E-06,  avg # of iterations =  4.4

     negative rho (up, down):  1.103E-01 0.000E+00

     total cpu time spent up to now is      360.9 secs

     total energy              =   -1868.72217109 Ry
     Harris-Foulkes estimate   =   -1868.72435354 Ry
     estimated scf accuracy    <       0.01401312 Ry

     iteration # 22     ecut=    60.00 Ry     beta= 0.20
     Davidson diagonalization with overlap
     ethr =  6.12E-06,  avg # of iterations =  7.7

     negative rho (up, down):  1.084E-01 0.000E+00

     total cpu time spent up to now is      385.0 secs

     total energy              =   -1868.72230250 Ry
     Harris-Foulkes estimate   =   -1868.72263083 Ry
     estimated scf accuracy    <       0.00449393 Ry

     iteration # 23     ecut=    60.00 Ry     beta= 0.20
     Davidson diagonalization with overlap
     ethr =  1.96E-06,  avg # of iterations =  5.6

     negative rho (up, down):  1.127E-01 0.000E+00

     total cpu time spent up to now is      405.0 secs

     total energy              =   -1868.72234571 Ry
     Harris-Foulkes estimate   =   -1868.72241391 Ry
     estimated scf accuracy    <       0.00547188 Ry

     iteration # 24     ecut=    60.00 Ry     beta= 0.20
     Davidson diagonalization with overlap
     ethr =  1.96E-06,  avg # of iterations =  6.6

     negative rho (up, down):  1.036E-01 0.000E+00

     total cpu time spent up to now is      427.3 secs

     total energy              =   -1868.72215961 Ry
     Harris-Foulkes estimate   =   -1868.72236375 Ry
     estimated scf accuracy    <       0.00445853 Ry

     iteration # 25     ecut=    60.00 Ry     beta= 0.20
     Davidson diagonalization with overlap
     ethr =  1.95E-06,  avg # of iterations =  4.9

     negative rho (up, down):  9.584E-02 0.000E+00

     total cpu time spent up to now is      446.8 secs

     total energy              =   -1868.72199352 Ry
     Harris-Foulkes estimate   =   -1868.72219494 Ry
     estimated scf accuracy    <       0.00201807 Ry

     iteration # 26     ecut=    60.00 Ry     beta= 0.20
     Davidson diagonalization with overlap
     ethr =  8.81E-07,  avg # of iterations =  6.1

     negative rho (up, down):  9.440E-02 0.000E+00

     total cpu time spent up to now is      468.2 secs

     total energy              =   -1868.72200972 Ry
     Harris-Foulkes estimate   =   -1868.72202722 Ry
     estimated scf accuracy    <       0.00045419 Ry

     iteration # 27     ecut=    60.00 Ry     beta= 0.20
     Davidson diagonalization with overlap
     ethr =  1.98E-07,  avg # of iterations =  2.7

     negative rho (up, down):  9.133E-02 0.000E+00

     total cpu time spent up to now is      484.9 secs

     total energy              =   -1868.72198344 Ry
     Harris-Foulkes estimate   =   -1868.72202219 Ry
     estimated scf accuracy    <       0.00020923 Ry

     iteration # 28     ecut=    60.00 Ry     beta= 0.20
     Davidson diagonalization with overlap
     ethr =  9.14E-08,  avg # of iterations =  7.7

     negative rho (up, down):  9.090E-02 0.000E+00

     total cpu time spent up to now is      508.4 secs

     total energy              =   -1868.72199550 Ry
     Harris-Foulkes estimate   =   -1868.72199054 Ry
     estimated scf accuracy    <       0.00010005 Ry

     iteration # 29     ecut=    60.00 Ry     beta= 0.20
     Davidson diagonalization with overlap
     ethr =  4.37E-08,  avg # of iterations =  3.8

     negative rho (up, down):  9.022E-02 0.000E+00

     total cpu time spent up to now is      526.6 secs

     total energy              =   -1868.72199773 Ry
     Harris-Foulkes estimate   =   -1868.72199728 Ry
     estimated scf accuracy    <       0.00008671 Ry

     iteration # 30     ecut=    60.00 Ry     beta= 0.20
     Davidson diagonalization with overlap
     c_bands:  1 eigenvalues not converged
     ethr =  3.79E-08,  avg # of iterations =  5.2

     negative rho (up, down):  8.997E-02 0.000E+00

     total cpu time spent up to now is      546.5 secs

     total energy              =   -1868.72200062 Ry
     Harris-Foulkes estimate   =   -1868.72199898 Ry
     estimated scf accuracy    <       0.00004672 Ry

     iteration # 31     ecut=    60.00 Ry     beta= 0.20
     Davidson diagonalization with overlap
     ethr =  2.04E-08,  avg # of iterations =  3.5

     negative rho (up, down):  9.023E-02 0.000E+00

     total cpu time spent up to now is      564.3 secs

     total energy              =   -1868.72199978 Ry
     Harris-Foulkes estimate   =   -1868.72200212 Ry
     estimated scf accuracy    <       0.00001000 Ry

     iteration # 32     ecut=    60.00 Ry     beta= 0.20
     Davidson diagonalization with overlap
     ethr =  4.37E-09,  avg # of iterations =  2.4

     negative rho (up, down):  9.028E-02 0.000E+00

     total cpu time spent up to now is      581.1 secs

     total energy              =   -1868.72200183 Ry
     Harris-Foulkes estimate   =   -1868.72200036 Ry
     estimated scf accuracy    <       0.00000334 Ry

     iteration # 33     ecut=    60.00 Ry     beta= 0.20
     Davidson diagonalization with overlap
     ethr =  1.46E-09,  avg # of iterations =  1.9

     negative rho (up, down):  9.042E-02 0.000E+00

     total cpu time spent up to now is      597.0 secs

     total energy              =   -1868.72200198 Ry
     Harris-Foulkes estimate   =   -1868.72200197 Ry
     estimated scf accuracy    <       0.00000142 Ry

     iteration # 34     ecut=    60.00 Ry     beta= 0.20
     Davidson diagonalization with overlap
     ethr =  6.21E-10,  avg # of iterations =  2.0

     negative rho (up, down):  9.039E-02 0.000E+00

     total cpu time spent up to now is      612.9 secs

     End of self-consistent calculation

          k = 0.0000 0.0000 0.0000 ( 37989 PWs)   bands (ev):

   -38.7229 -38.6472 -23.3527 -23.3403 -23.2493 -23.1933 -19.2560 -19.1892
   -18.7284 -18.7195 -18.6533 -18.6402 -16.0478 -15.9981 -15.0900 -15.0368
   -14.8373 -14.8335 -14.8276 -14.7836 -14.7376 -14.5721 -14.5186 -14.3348
   -14.3225 -14.0766 -12.7916  -8.6228  -8.5734  -8.5543  -8.4072  -8.3450
    -8.3333  -8.3181  -8.3065  -8.1667  -8.1435  -8.1215  -8.0396  -2.6794
    -2.6491  -2.6277  -2.5999  -2.5088  -2.4539  -2.4355  -2.4263  -2.3922
    -2.3526  -2.3159  -2.2618  -2.1408  -1.4846  -1.4226  -1.0333  -1.0166
    -0.9675  -0.7015  -0.6446  -0.6440  -0.6350  -0.6066  -0.5998  -0.4455
    -0.4433  -0.4117  -0.3915  -0.3733  -0.3666  -0.3128  -0.3081  -0.2820
    -0.2727  -0.1823  -0.1790  -0.1672  -0.1657  -0.1427  -0.0817  -0.0661
    -0.0283  -0.0244  -0.0144  -0.0012   0.0492   0.0857   0.0902   0.1070
     0.3851   0.5304   0.5744   0.6397   0.6399   0.6819   0.7123   0.7500
     0.7887   0.7967   0.8064   0.8921   0.8989   0.9121   0.9238   0.9260
     0.9685   1.3474   1.3889   1.4097   1.4172   1.5004   1.6092   1.6160
     1.6972   1.9138   2.0527   2.1001   2.1378   2.1805   2.2096   4.6006
     4.7217   4.7582   5.2860   5.3495   5.8663   6.0942   6.1097   6.3095
     6.3306   6.8200   6.9687   7.5706   7.5936   7.6439   7.7844   8.0113
     8.0646   8.0856

          k = 0.0000 0.1281 0.0000 ( 38019 PWs)   bands (ev):

   -38.7206 -38.6449 -23.3311 -23.3187 -23.2308 -23.1721 -19.2201 -19.1531
   -18.8239 -18.7450 -18.7251 -18.6501 -15.9389 -15.8901 -15.0981 -15.0432
   -14.8465 -14.8356 -14.8031 -14.7526 -14.7200 -14.6175 -14.5664 -14.3406
   -14.3267 -14.1091 -12.8631  -8.6116  -8.5565  -8.5394  -8.3963  -8.3374
    -8.3261  -8.3038  -8.2920  -8.1656  -8.1271  -8.0886  -8.0389  -2.7695
    -2.7616  -2.7439  -2.6887  -2.6298  -2.5793  -2.4376  -2.4308  -2.3219
    -2.3006  -2.2636  -2.2466  -2.1501  -1.5542  -1.5363  -1.4807  -1.4192
    -1.3669  -1.0320  -0.9968  -0.8122  -0.7340  -0.6976  -0.6951  -0.6888
    -0.6794  -0.6729  -0.6446  -0.6040  -0.4799  -0.3528  -0.3036  -0.2797
    -0.2656  -0.2070  -0.1992  -0.1482  -0.1254  -0.0504  -0.0476  -0.0364
    -0.0156  -0.0133   0.0461   0.0799   0.0824   0.1049   0.2690   0.2984
     0.3350   0.3716   0.4487   0.5103   0.5934   0.6110   0.6338   0.8483
     0.8722   0.9038   0.9220   0.9460   1.0691   1.1098   1.1246   1.1391
     1.1459   1.3252   1.3860   1.3947   1.4511   1.4627   1.5652   1.6961
     1.7502   1.9772   2.0017   2.2414   2.2647   2.4258   2.4398   4.9551
     5.0855   5.0965   5.5304   5.5921   6.0284   6.4158   6.4298   6.6070
     6.6377   7.0849   7.2264   7.5100   7.5832   7.7571   7.9375   8.2146
     8.2658   8.3064

          k = 0.0000 0.2563 0.0000 ( 38042 PWs)   bands (ev):

   -38.7150 -38.6393 -23.2781 -23.2657 -23.1853 -23.1202 -19.1290 -19.0618
   -19.0490 -18.9708 -18.7174 -18.6423 -15.6905 -15.6448 -15.1732 -15.1146
   -14.9100 -14.8854 -14.7566 -14.6859 -14.6830 -14.6694 -14.6381 -14.3187
   -14.3019 -14.1583 -13.0317  -8.5859  -8.5159  -8.5008  -8.3786  -8.3678
    -8.3672  -8.2136  -8.2006  -8.1887  -8.0346  -8.0283  -8.0070  -3.1979
    -3.1641  -3.0639  -2.9989  -2.5849  -2.5783  -2.4874  -2.4770  -2.4407
    -2.3139  -2.3012  -2.2485  -2.2412  -2.1944  -2.1764  -2.0858  -1.4851
    -1.4340  -1.4170  -1.3280  -1.2019  -1.0651  -1.0523  -1.0372  -0.9832
    -0.9232  -0.9177  -0.8590  -0.8445  -0.6717  -0.6240  -0.6099  -0.5601
    -0.4752  -0.4388  -0.3598  -0.2806  -0.2420  -0.2230  -0.0430   0.0038
     0.0228   0.0233   0.0263   0.1010   0.1109   0.1210   0.1733   0.2241
     0.6003   0.6194   0.6772   0.7325   0.7601   0.8227   0.8663   0.9348
     0.9412   1.0079   1.0410   1.0969   1.1650   1.1887   1.1891   1.2678
     1.2918   1.4183   1.4575   1.5844   1.6227   1.6868   1.7013   1.7120
     1.7635   1.8679   1.9279   2.3466   2.6329   2.7379   2.7609   5.7125
     5.9706   5.9852   6.1844   6.2615   6.4818   7.2757   7.2884   7.3796
     7.4090   7.4528   7.4912   7.6545   7.7880   8.1765   8.2345   8.3719
     8.5147   8.5888

          k = 0.0000 0.3844 0.0000 ( 37942 PWs)   bands (ev):

   -38.7094 -38.6337 -23.2236 -23.2111 -23.1388 -23.0669 -19.2469 -19.1692
   -19.0308 -18.9633 -18.7096 -18.6345 -15.4386 -15.4020 -15.3176 -15.2535
   -15.0235 -14.9779 -14.7774 -14.6829 -14.6455 -14.6310 -14.6161 -14.2602
   -14.2420 -14.1573 -13.1936  -8.5604  -8.4757  -8.4606  -8.4115  -8.4004
    -8.3349  -8.2584  -8.0916  -8.0795  -8.0271  -7.9241  -7.9223  -3.5650
    -3.5350  -3.3761  -3.3040  -3.1424  -3.1274  -3.1264  -2.4915  -2.4874
    -2.2926  -2.2786  -2.2394  -2.2303  -2.1702  -2.1557  -2.0996  -1.7949
    -1.6379  -1.4650  -1.4293  -1.4016  -1.3955  -1.3441  -1.3344  -1.2796
    -1.1646  -1.1600  -1.0058  -0.9574  -0.8938  -0.8679  -0.8535  -0.8031
    -0.6909  -0.6760  -0.6588  -0.5681  -0.3041  -0.1764  -0.1109  -0.0050
     0.0170   0.0317   0.0470   0.0521   0.1061   0.1470   0.3936   0.4643
     0.6689   0.7140   0.7856   0.8177   0.8384   0.8633   0.8823   0.8956
     0.9962   1.0105   1.0784   1.1590   1.2914   1.3387   1.3762   1.3861
     1.4798   1.5221   1.5338   1.6497   1.6683   1.8533   1.9046   1.9710
     2.0943   2.1099   2.1794   2.3153   2.6354   2.7165   2.8041   6.5556
     6.8064   6.8540   7.0167   7.0661   7.2485   7.2667   7.3403   7.9924
     7.9993   8.1448   8.1850   8.2672   8.3239   8.4293   8.4871   8.5784
     8.6306   9.0723

          k = 0.0000-0.5125 0.0000 ( 38102 PWs)   bands (ev):

   -38.7070 -38.6313 -23.2005 -23.1880 -23.1193 -23.0443 -19.3230 -19.2453
   -18.9876 -18.9200 -18.7064 -18.6313 -15.3941 -15.3409 -15.3083 -15.2712
   -15.0973 -15.0342 -14.8051 -14.6712 -14.6318 -14.6231 -14.5935 -14.2290
   -14.2106 -14.1429 -13.2582  -8.5499  -8.4592  -8.4436  -8.4230  -8.4121
    -8.3137  -8.2825  -8.0446  -8.0324  -8.0231  -7.8861  -7.8793  -3.7083
    -3.6804  -3.5189  -3.4363  -3.3813  -3.3601  -3.3590  -2.5262  -2.5227
    -2.3520  -2.2929  -2.1930  -2.1293  -2.0969  -2.0863  -2.0305  -1.9171
    -1.7086  -1.6316  -1.5738  -1.5616  -1.5320  -1.5275  -1.2689  -1.2646
    -1.2143  -1.1460  -1.1013  -1.0443  -0.9919  -0.9550  -0.9404  -0.9142
    -0.8883  -0.8544  -0.6925  -0.6328  -0.3398  -0.0907  -0.0363  -0.0275
    -0.0136  -0.0119   0.0530   0.0586   0.0900   0.1530   0.4854   0.5173
     0.7065   0.7244   0.7934   0.8048   0.8709   0.8716   0.9349   0.9513
     0.9628   0.9680   1.0354   1.0757   1.3671   1.4404   1.4518   1.4589
     1.4718   1.5302   1.5722   1.7765   1.8335   1.9579   1.9772   2.2155
     2.2379   2.2567   2.2724   2.3443   2.4997   2.5959   2.7248   7.1457
     7.2151   7.2240   7.2357   7.2978   7.3503   7.3644   7.6625   7.8171
     8.1869   8.3323   8.4019   8.5343   8.6254   8.6421   8.6476   8.6612
     9.0079   9.0754

          k = 0.1250 0.0000 0.0000 ( 38032 PWs)   bands (ev):

   -38.7211 -38.6454 -23.3343 -23.3219 -23.2342 -23.1753 -19.2236 -19.1564
   -18.8283 -18.7544 -18.7170 -18.6377 -15.9326 -15.8814 -15.1145 -15.0650
   -14.8852 -14.8747 -14.8163 -14.7732 -14.7627 -14.6015 -14.5454 -14.3356
   -14.3225 -14.0874 -12.8684  -8.6136  -8.5835  -8.5646  -8.4319  -8.3100
    -8.2982  -8.2838  -8.2722  -8.1286  -8.1107  -8.0849  -8.0123  -2.7643
    -2.7222  -2.6759  -2.6000  -2.5982  -2.5508  -2.4246  -2.4102  -2.3813
    -2.3425  -2.3394  -2.2839  -2.1410  -1.4702  -1.4085  -1.0279  -1.0111
    -1.0074  -0.9193  -0.8524  -0.7413  -0.7241  -0.7214  -0.7104  -0.6607
    -0.6332  -0.6324  -0.5977  -0.4645  -0.4094  -0.3750  -0.3606  -0.2185
    -0.1683  -0.1518  -0.1019  -0.0918  -0.0721  -0.0608  -0.0315  -0.0238
    -0.0167   0.0516   0.0636   0.0738   0.0845   0.0887   0.1116   0.1221
     0.3222   0.3795   0.4256   0.4584   0.4666   0.6595   0.6668   0.6833
     0.7020   0.7098   0.7680   0.8765   0.8989   0.9442   1.0090   1.1337
     1.1509   1.2883   1.4228   1.4646   1.5556   1.5632   1.6313   1.7069
     1.7281   1.9625   1.9669   2.0637   2.1088   2.1419   2.2562   4.7999
     4.9100   4.9179   5.4945   5.5562   5.9998   6.3364   6.3500   6.5377
     6.5828   7.0497   7.1893   7.5513   7.6240   7.7474   7.9350   8.1803
     8.3187   8.3656

          k = 0.1250 0.1281 0.0000 ( 38036 PWs)   bands (ev):

   -38.7188 -38.6431 -23.3135 -23.3011 -23.2161 -23.1549 -19.1881 -19.1209
   -18.8325 -18.8117 -18.7570 -18.7344 -15.8246 -15.7743 -15.1125 -15.0610
   -14.8812 -14.8711 -14.7855 -14.7542 -14.7345 -14.6549 -14.5995 -14.3352
   -14.3210 -14.1103 -12.9182  -8.6018  -8.5708  -8.5546  -8.4580  -8.4458
    -8.4171  -8.2802  -8.2105  -8.1600  -8.1484  -7.9931  -7.9063  -2.8667
    -2.8311  -2.8197  -2.7366  -2.6289  -2.5855  -2.4753  -2.4399  -2.4134
    -2.3926  -2.2628  -2.1952  -2.1403  -1.5478  -1.5307  -1.5009  -1.3759
    -1.3188  -1.2352  -1.1903  -1.0263  -1.0097  -0.9291  -0.8987  -0.8023
    -0.6894  -0.6806  -0.5692  -0.4848  -0.4695  -0.3998  -0.3882  -0.2931
    -0.2810  -0.2486  -0.2155  -0.1292  -0.1194  -0.0766  -0.0731  -0.0335
     0.0157   0.0201   0.0298   0.0368   0.1495   0.1508   0.2704   0.2997
     0.3918   0.4442   0.5329   0.5769   0.5940   0.6123   0.6523   0.7072
     0.7107   0.8517   0.8953   0.9244   0.9731   0.9914   1.0402   1.2659
     1.2776   1.3209   1.3313   1.3398   1.4405   1.6425   1.7742   1.8762
     2.0052   2.0688   2.2163   2.2684   2.2830   2.4367   2.4528   5.0948
     5.2243   5.2377   5.7005   5.7691   6.1449   6.6468   6.6617   6.8232
     6.8846   7.2695   7.3877   7.4609   7.5463   7.9071   8.0726   8.2762
     8.3975   8.4569

          k = 0.1250 0.2563 0.0000 ( 38078 PWs)   bands (ev):

   -38.7132 -38.6375 -23.2623 -23.2499 -23.1719 -23.1047 -19.0983 -19.0444
   -19.0308 -18.9663 -18.8127 -18.7386 -15.5785 -15.5317 -15.1583 -15.1001
   -14.9089 -14.8890 -14.7536 -14.7286 -14.7005 -14.6879 -14.6580 -14.3100
   -14.2933 -14.1475 -13.0400  -8.5814  -8.5778  -8.5690  -8.5161  -8.5019
    -8.4005  -8.3736  -8.2887  -8.1160  -8.1043  -7.9573  -7.8687  -3.3036
    -3.2600  -3.0953  -3.0287  -2.6075  -2.5963  -2.5377  -2.4853  -2.4699
    -2.4276  -2.3989  -2.3083  -2.2959  -2.1860  -2.1115  -2.0769  -1.5847
    -1.5245  -1.4257  -1.3833  -1.3718  -1.3593  -1.3173  -1.2553  -1.2168
    -0.8623  -0.8525  -0.7919  -0.7553  -0.6579  -0.6102  -0.6035  -0.5535
    -0.3757  -0.3685  -0.3124  -0.2042  -0.1776  -0.1718  -0.0830  -0.0699
    -0.0378   0.0198   0.0552   0.0699   0.1204   0.1677   0.3827   0.4264
     0.6206   0.6423   0.6693   0.7445   0.7562   0.8520   0.8536   0.8730
     0.8905   0.9939   1.0504   1.0652   1.1438   1.1489   1.2771   1.2814
     1.2996   1.3401   1.4475   1.6570   1.6710   1.7423   1.8454   2.1137
     2.1630   2.2232   2.3327   2.4462   2.6318   2.7451   2.7671   5.7986
     6.0238   6.0388   6.2884   6.3596   6.5738   7.2286   7.3117   7.4786
     7.4911   7.5896   7.7120   7.8184   7.9445   8.1179   8.1837   8.3990
     8.4790   8.5444

          k = 0.1250 0.3844 0.0000 ( 38067 PWs)   bands (ev):

   -38.7076 -38.6319 -23.2098 -23.1973 -23.1268 -23.0532 -19.2409 -19.1632
   -19.0015 -18.9337 -18.8028 -18.7287 -15.3327 -15.3024 -15.2778 -15.2035
   -14.9910 -14.9542 -14.7574 -14.7430 -14.7067 -14.6112 -14.6060 -14.2562
   -14.2381 -14.1511 -13.1623  -8.5859  -8.5750  -8.5545  -8.4857  -8.4711
    -8.4233  -8.3415  -8.2481  -8.1641  -8.1522  -8.0014  -7.9429  -3.6857
    -3.6459  -3.4219  -3.3516  -3.1321  -3.1171  -3.1144  -2.5263  -2.5174
    -2.4141  -2.3500  -2.3349  -2.3216  -2.1853  -2.1380  -2.1201  -1.8471
    -1.8279  -1.8247  -1.7454  -1.6440  -1.5493  -1.4216  -1.2524  -1.1936
    -1.0470  -1.0415  -1.0208  -0.9995  -0.8784  -0.8547  -0.8077  -0.7954
    -0.4915  -0.4693  -0.3849  -0.3520  -0.2347  -0.0947  -0.0857  -0.0338
     0.0240   0.0284   0.0383   0.0752   0.1062   0.1678   0.4879   0.5459
     0.6710   0.7135   0.8041   0.8575   0.8802   0.9281   0.9414   0.9819
     1.0079   1.0126   1.1213   1.2206   1.2942   1.3158   1.3330   1.3343
     1.5880   1.6651   1.6760   1.9312   2.0679   2.0840   2.1432   2.1596
     2.1685   2.1991   2.3697   2.4409   2.6342   2.7462   2.8194   6.5817
     6.7190   6.7511   6.9130   6.9499   7.1280   7.2089   7.3253   7.9845
     8.0290   8.0458   8.0952   8.3613   8.4649   8.5600   8.6103   8.6617
     8.8354   9.1410

          k = 0.1250-0.5125 0.0000 ( 38044 PWs)   bands (ev):

   -38.7053 -38.6296 -23.1876 -23.1751 -23.1078 -23.0315 -19.3165 -19.2389
   -18.9590 -18.8910 -18.7986 -18.7246 -15.3537 -15.2996 -15.1909 -15.1531
   -15.0597 -15.0045 -14.7755 -14.7317 -14.6928 -14.6001 -14.5747 -14.2277
   -14.2093 -14.1419 -13.2125  -8.5605  -8.5496  -8.5458  -8.4717  -8.4566
    -8.4112  -8.3277  -8.2122  -8.2001  -8.1598  -8.0441  -8.0405  -3.8338
    -3.7957  -3.5677  -3.4906  -3.3724  -3.3561  -3.3529  -2.5428  -2.5367
    -2.3597  -2.2858  -2.2339  -2.2062  -2.1854  -2.1837  -2.1128  -2.0286
    -1.9891  -1.9782  -1.9731  -1.7267  -1.5953  -1.4784  -1.2042  -1.1737
    -1.1242  -1.1222  -1.0850  -1.0345  -0.9660  -0.9454  -0.8923  -0.8656
    -0.5373  -0.4991  -0.4701  -0.4241  -0.3379  -0.0887  -0.0718  -0.0047
     0.0094   0.0394   0.0514   0.1107   0.1543   0.1627   0.5842   0.6181
     0.7165   0.7835   0.8083   0.8394   0.8574   0.9515   0.9732   0.9763
     0.9855   0.9881   1.0764   1.2576   1.3757   1.3960   1.4175   1.5178
     1.5558   1.9511   1.9704   2.1115   2.1293   2.1567   2.1960   2.2357
     2.2514   2.3058   2.3370   2.3419   2.5164   2.6562   2.7464   6.8859
     6.9481   7.0172   7.0418   7.0757   7.2260   7.3091   7.7328   7.7518
     8.1883   8.5308   8.5550   8.6009   8.7588   8.7919   8.8259   8.8783
     8.9201   9.0171

          k = 0.2500 0.0000 0.0000 ( 38112 PWs)   bands (ev):

   -38.7167 -38.6410 -23.2891 -23.2767 -23.1971 -23.1311 -19.1421 -19.0740
   -19.0430 -18.9711 -18.7109 -18.6316 -15.6689 -15.6150 -15.2223 -15.1791
   -15.0041 -14.9833 -14.8846 -14.7606 -14.7260 -14.6370 -14.5746 -14.3302
   -14.3160 -14.1026 -13.0471  -8.5942  -8.5916  -8.5728  -8.4579  -8.2399
    -8.2283  -8.1985  -8.1868  -8.0709  -8.0292  -8.0023  -7.9450  -3.0679
    -3.0330  -2.9927  -2.8982  -2.4654  -2.4622  -2.4578  -2.4075  -2.3446
    -2.3093  -2.2589  -2.1830  -2.1812  -1.5520  -1.5023  -1.2229  -1.1499
    -1.1127  -1.1092  -1.0983  -1.0209  -1.0057  -1.0008  -0.9865  -0.9301
    -0.9220  -0.7363  -0.6791  -0.6242  -0.4559  -0.4005  -0.3746  -0.3684
    -0.3201  -0.2909  -0.2835  -0.1215  -0.1052  -0.1011  -0.0521  -0.0384
     0.0632   0.0945   0.0986   0.1167   0.1325   0.1577   0.1886   0.2249
     0.2509   0.2988   0.3130   0.5153   0.5295   0.6645   0.7165   0.7492
     0.7580   0.8166   0.8388   0.9753   1.0051   1.0204   1.0280   1.0826
     1.1158   1.1313   1.4454   1.4561   1.4964   1.4976   1.6210   1.6559
     1.8126   1.9440   1.9866   2.0753   2.1842   2.2764   2.3853   5.2446
     5.3502   5.3630   6.0490   6.1363   6.3600   6.9697   6.9895   7.1318
     7.3307   7.5056   7.5299   7.5773   7.6489   8.1831   8.3294   8.3773
     8.5618   8.6563

          k = 0.2500 0.1281 0.0000 ( 38100 PWs)   bands (ev):

   -38.7144 -38.6387 -23.2702 -23.2577 -23.1804 -23.1124 -19.1080 -19.0398
   -19.0372 -18.9653 -18.8110 -18.7321 -15.5634 -15.5111 -15.1960 -15.1499
   -14.9765 -14.9593 -14.8457 -14.7364 -14.7028 -14.7000 -14.6366 -14.3200
   -14.3052 -14.1079 -13.0507  -8.6014  -8.5898  -8.5752  -8.4857  -8.4728
    -8.4630  -8.3029  -8.2554  -8.0858  -8.0743  -7.9323  -7.8369  -3.2122
    -3.1598  -3.0328  -2.9491  -2.5599  -2.5493  -2.5369  -2.4964  -2.4406
    -2.4343  -2.1735  -2.1644  -2.0937  -1.5940  -1.5465  -1.5364  -1.5333
    -1.5246  -1.4330  -1.3877  -1.3862  -1.3486  -1.2460  -1.2042  -0.9374
    -0.8248  -0.7684  -0.6312  -0.5561  -0.4597  -0.4163  -0.3894  -0.3278
    -0.3212  -0.3037  -0.2611  -0.2053  -0.1832  -0.1532  -0.0922  -0.0788
    -0.0543   0.0073   0.1255   0.1474   0.1609   0.2553   0.2801   0.2963
     0.4438   0.4780   0.6111   0.6646   0.6805   0.7431   0.7608   0.8040
     0.8400   0.8672   0.9381   0.9464   0.9555   0.9888   1.0320   1.1716
     1.1804   1.2320   1.3653   1.3778   1.3962   1.4680   1.9069   2.1785
     2.2141   2.2791   2.3303   2.4080   2.4516   2.5154   2.5430   5.4652
     5.5914   5.6050   6.1840   6.2646   6.4864   7.2181   7.2502   7.2979
     7.3635   7.3978   7.6110   7.7578   7.8686   8.2289   8.2656   8.3595
     8.4432   8.4788

          k = 0.2500 0.2563 0.0000 ( 38113 PWs)   bands (ev):

   -38.7089 -38.6332 -23.2237 -23.2112 -23.1393 -23.0666 -19.0448 -19.0220
   -19.0071 -18.9690 -18.9532 -18.9330 -15.3281 -15.2853 -15.1502 -15.0873
   -14.9226 -14.9106 -14.8461 -14.7939 -14.7506 -14.6790 -14.6215 -14.2880
   -14.2717 -14.1211 -13.0642  -8.7877  -8.7760  -8.6068  -8.5585  -8.5347
    -8.5207  -8.5044  -8.3894  -8.1831  -8.1715  -8.0307  -7.9269  -3.6355
    -3.5769  -3.2560  -3.1773  -2.6943  -2.6795  -2.6619  -2.6024  -2.5377
    -2.5303  -2.4150  -2.3164  -2.3042  -2.1292  -2.0721  -2.0269  -1.9589
    -1.9409  -1.9104  -1.8286  -1.4194  -1.3799  -1.3506  -1.2740  -1.1791
    -0.9246  -0.8948  -0.7663  -0.7251  -0.6855  -0.6628  -0.6230  -0.5888
    -0.5799  -0.4700  -0.3583  -0.1658  -0.0396  -0.0276   0.0099   0.0917
     0.1384   0.1592   0.1987   0.2075   0.3047   0.3227   0.6574   0.6900
     0.7250   0.7446   0.7751   0.8092   0.8254   0.8287   0.8428   0.8951
     0.9184   0.9404   0.9622   1.0294   1.2375   1.2382   1.2989   1.3771
     1.3973   1.4762   1.4936   1.5822   1.5931   1.6821   2.1334   2.2461
     2.6276   2.7117   2.7376   2.7890   2.8220   2.9769   3.0094   6.0065
     6.1037   6.1173   6.5271   6.5680   6.8709   7.0269   7.1306   7.7568
     7.7754   7.8362   8.1235   8.2021   8.2243   8.2755   8.3165   8.4828
     8.5732   8.5980

          k = 0.2500 0.3844 0.0000 ( 38127 PWs)   bands (ev):

   -38.7033 -38.6276 -23.1761 -23.1636 -23.0974 -23.0198 -19.2264 -19.1486
   -19.0077 -18.9353 -18.9263 -18.8578 -15.2021 -15.1621 -15.0863 -15.0117
   -14.9084 -14.8911 -14.8876 -14.8564 -14.6970 -14.5884 -14.5638 -14.2450
   -14.2271 -14.1338 -13.0845  -8.8942  -8.8828  -8.7148  -8.5811  -8.5408
    -8.5133  -8.4989  -8.4200  -8.4082  -8.3738  -8.2509  -8.1733  -4.0486
    -3.9926  -3.6052  -3.5294  -3.1053  -3.0903  -3.0835  -2.7253  -2.7046
    -2.6438  -2.5808  -2.4295  -2.4229  -2.4178  -2.3905  -2.1970  -2.1486
    -2.1330  -1.9104  -1.8513  -1.4611  -1.4284  -1.3867  -1.2903  -1.2631
    -1.1435  -1.0800  -0.9278  -0.9142  -0.8958  -0.8525  -0.8437  -0.6824
    -0.6414  -0.5304  -0.3900  -0.1485   0.0262   0.0692   0.1104   0.1542
     0.2220   0.2581   0.3339   0.4155   0.4691   0.5192   0.7065   0.7261
     0.7368   0.7709   0.8722   0.9610   0.9952   1.0368   1.0401   1.0933
     1.1690   1.1962   1.2429   1.2457   1.3099   1.3312   1.4085   1.4622
     1.6759   1.6769   1.9189   2.0024   2.0176   2.0402   2.1206   2.1647
     2.5852   2.6452   2.7645   3.0633   3.0968   3.2529   3.2761   6.2596
     6.2813   6.4185   6.5343   6.5935   7.1423   7.3530   7.4952   7.9096
     7.9877   8.1277   8.1526   8.5103   8.6530   8.7391   8.8111   9.0331
     9.1147   9.1386

          k = 0.2500-0.5125 0.0000 ( 38142 PWs)   bands (ev):

   -38.7010 -38.6253 -23.1561 -23.1436 -23.0798 -23.0001 -19.3010 -19.2233
   -19.0019 -18.9295 -18.8856 -18.8170 -15.2515 -15.1943 -14.9653 -14.9314
   -14.9272 -14.8923 -14.8816 -14.8393 -14.6986 -14.5446 -14.5331 -14.2243
   -14.2058 -14.1393 -13.0947  -8.8787  -8.8676  -8.7114  -8.5795  -8.5675
    -8.5394  -8.4991  -8.4856  -8.4839  -8.4018  -8.3924  -8.3509  -4.2109
    -4.1561  -3.7623  -3.6856  -3.3452  -3.3349  -3.3287  -2.7200  -2.6975
    -2.6035  -2.5906  -2.5512  -2.5402  -2.4163  -2.4066  -2.3093  -2.2635
    -2.1349  -1.9102  -1.8569  -1.4681  -1.4410  -1.4111  -1.2929  -1.2400
    -1.2394  -1.1661  -0.9965  -0.9713  -0.9700  -0.9264  -0.8900  -0.6858
    -0.6593  -0.5395  -0.3963  -0.1385   0.0515   0.0865   0.1328   0.1631
     0.2063   0.2624   0.3399   0.4345   0.5989   0.6484   0.7807   0.7891
     0.8156   0.8571   0.9491   1.0009   1.0280   1.0790   1.0950   1.1439
     1.1455   1.2197   1.2418   1.2927   1.3157   1.4870   1.5072   1.7322
     1.7648   1.9459   1.9652   2.0748   2.1664   2.1810   2.1966   2.3025
     2.4260   2.5005   2.6928   3.1208   3.1556   3.3086   3.3309   6.2178
     6.2344   6.4367   6.4672   6.5387   7.3714   7.5104   7.6345   7.9653
     8.2367   8.5344   8.7331   8.7433   8.7665   8.8599   9.0130   9.1164
     9.1660   9.1858

          k = 0.3750 0.0000 0.0000 ( 38118 PWs)   bands (ev):

   -38.7123 -38.6366 -23.2428 -23.2304 -23.1594 -23.0859 -19.2323 -19.1615
   -19.0533 -18.9845 -18.7048 -18.6255 -15.4180 -15.3883 -15.3590 -15.2878
   -15.1356 -15.0979 -14.9861 -14.7449 -14.7246 -14.6304 -14.5643 -14.3188
   -14.3040 -14.1066 -13.2162  -8.5957  -8.5841  -8.5544  -8.4586  -8.1806
    -8.1692  -8.1092  -8.0974  -8.0401  -7.9440  -7.9258  -7.8755  -3.3939
    -3.3543  -3.2573  -3.1710  -2.5336  -2.5314  -2.3026  -2.2573  -2.2456
    -2.2187  -2.2101  -2.1811  -2.1409  -1.5634  -1.5272  -1.5186  -1.4928
    -1.4891  -1.3249  -1.3068  -1.2828  -1.2431  -1.1528  -1.1459  -0.9990
    -0.9823  -0.8290  -0.7686  -0.7650  -0.7183  -0.6930  -0.6284  -0.5100
    -0.3688  -0.2934  -0.2377  -0.1789  -0.0966  -0.0761  -0.0655  -0.0517
     0.0491   0.1547   0.1593   0.1745   0.1906   0.2125   0.2325   0.2453
     0.2800   0.3411   0.3521   0.5317   0.5543   0.5887   0.7976   0.8222
     0.8450   0.9132   0.9145   0.9593   0.9903   1.0119   1.1811   1.2265
     1.2633   1.2679   1.3330   1.3497   1.3724   1.3880   1.5960   1.6829
     1.7006   1.9654   2.0007   2.1184   2.1963   2.3803   2.4685   5.8802
     5.9870   5.9997   6.6542   6.6732   7.0006   7.4616   7.4782   7.4994
     7.5325   7.5637   7.9088   7.9471   8.1787   8.2908   8.3496   8.4248
     8.5121   8.9103

          k = 0.3750 0.1281 0.0000 ( 38086 PWs)   bands (ev):

   -38.7101 -38.6343 -23.2258 -23.2134 -23.1439 -23.0691 -19.2251 -19.1542
   -19.0204 -18.9515 -18.8032 -18.7242 -15.3535 -15.3300 -15.2791 -15.1989
   -15.0829 -15.0549 -14.9373 -14.7157 -14.6978 -14.6938 -14.6296 -14.3025
   -14.2874 -14.1000 -13.1813  -8.5966  -8.5836  -8.5520  -8.4627  -8.4273
    -8.4156  -8.2551  -8.1809  -8.1418  -8.1302  -7.9953  -7.8907  -3.5463
    -3.4930  -3.3090  -3.2269  -2.5743  -2.5609  -2.5011  -2.4643  -2.3698
    -2.3320  -2.2012  -2.1195  -2.0441  -1.8738  -1.8429  -1.8113  -1.7489
    -1.5779  -1.5423  -1.5291  -1.4184  -1.3645  -1.3585  -1.2761  -1.1039
    -1.0511  -0.7992  -0.7046  -0.6449  -0.5278  -0.5118  -0.4725  -0.4120
    -0.3879  -0.3623  -0.3514  -0.2690  -0.2083  -0.1353  -0.1313  -0.0413
     0.0358   0.0546   0.0699   0.2232   0.2386   0.3346   0.3478   0.3523
     0.5239   0.5703   0.6318   0.7097   0.7124   0.7570   0.8054   0.8296
     0.8812   0.8915   0.9993   1.0524   1.0646   1.1127   1.2037   1.2280
     1.2331   1.2617   1.2847   1.3089   1.3875   1.4544   1.6758   2.2334
     2.2884   2.3347   2.3570   2.4405   2.4691   2.6616   2.6898   6.0277
     6.1099   6.1225   6.7230   6.7565   7.0839   7.1138   7.2132   7.5574
     7.5734   7.6118   8.0732   8.2294   8.3275   8.3392   8.3883   8.4226
     8.5790   8.8980

          k = 0.3750 0.2563 0.0000 ( 38117 PWs)   bands (ev):

   -38.7046 -38.6288 -23.1843 -23.1718 -23.1061 -23.0279 -19.2076 -19.1366
   -19.0185 -18.9402 -18.9372 -18.8680 -15.2364 -15.2088 -15.0867 -15.0246
   -14.9391 -14.9068 -14.8622 -14.8000 -14.7977 -14.6484 -14.6092 -14.2651
   -14.2491 -14.0943 -13.0944  -8.8367  -8.8251  -8.6603  -8.5670  -8.5531
    -8.5398  -8.5230  -8.4107  -8.4068  -8.3990  -8.2544  -8.1473  -3.9898
    -3.9265  -3.5385  -3.4559  -2.7641  -2.7442  -2.6851  -2.6425  -2.5423
    -2.5358  -2.4374  -2.3963  -2.3748  -2.3229  -2.3095  -2.1854  -2.1586
    -2.1337  -1.8365  -1.7667  -1.4079  -1.3570  -1.3119  -1.2494  -1.1390
    -1.0499  -1.0401  -0.8356  -0.7759  -0.7447  -0.7186  -0.6788  -0.6021
    -0.5801  -0.4782  -0.3922  -0.1940  -0.0063   0.1191   0.1561   0.1688
     0.3130   0.3493   0.4209   0.4353   0.4945   0.5347   0.7046   0.7357
     0.7369   0.7714   0.8472   0.8713   0.8874   0.9146   0.9417   1.0254
     1.0745   1.1091   1.1175   1.1443   1.2756   1.2802   1.4225   1.4286
     1.4524   1.4805   1.4931   1.4973   1.5622   1.6042   2.0812   2.1953
     2.6276   2.7159   2.7495   3.1814   3.2061   3.3267   3.3519   6.0732
     6.0955   6.1981   6.5295   6.5815   7.0736   7.2305   7.4024   7.7652
     7.8116   7.8187   7.9288   8.5175   8.5888   8.6060   8.6532   8.8064
     8.9817   9.0118

          k = 0.3750 0.3844 0.0000 ( 38213 PWs)   bands (ev):

   -38.6991 -38.6233 -23.1419 -23.1294 -23.0676 -22.9858 -19.2131 -19.1872
   -19.1359 -19.1154 -18.8478 -18.7784 -15.1312 -15.0916 -15.0256 -14.9740
   -14.9296 -14.8995 -14.7665 -14.7134 -14.6222 -14.5883 -14.5295 -14.2320
   -14.2144 -14.1132 -13.0033  -9.1031  -9.0916  -8.9180  -8.7891  -8.7395
    -8.7278  -8.5619  -8.5423  -8.5410  -8.5223  -8.4908  -8.3994  -4.4422
    -4.3796  -3.8993  -3.8192  -3.0773  -3.0623  -3.0527  -2.8576  -2.8414
    -2.8318  -2.7915  -2.7760  -2.7271  -2.4310  -2.4286  -2.3248  -2.2777
    -2.1406  -1.6855  -1.6328  -1.5000  -1.4488  -1.3123  -1.2859  -1.2610
    -1.2025  -1.1157  -1.0945  -1.0323  -0.9672  -0.9482  -0.9050  -0.5372
    -0.5314  -0.4161  -0.4127  -0.1399   0.1305   0.2699   0.4204   0.4366
     0.4532   0.4692   0.6424   0.7842   0.8382   0.8643   0.8763   0.8898
     0.9319   1.0002   1.0097   1.0662   1.0750   1.0949   1.1509   1.1581
     1.1688   1.2461   1.3012   1.3771   1.4036   1.4071   1.5915   1.6876
     1.7073   1.8650   1.9236   1.9264   1.9391   2.0513   2.0637   2.3054
     2.5700   2.6450   2.7783   3.7223   3.7508   3.8370   3.8542   5.7157
     5.7305   5.9554   6.2211   6.3121   7.3058   7.5810   7.7069   7.8164
     8.1310   8.3696   8.3753   8.4113   8.4806   8.8008   8.8837   9.0121
     9.0738   9.1154

          k = 0.3750-0.5125 0.0000 ( 38222 PWs)   bands (ev):

   -38.6968 -38.6210 -23.1241 -23.1115 -23.0514 -22.9682 -19.2854 -19.2076
   -19.1818 -19.1107 -18.8087 -18.7392 -15.1410 -15.0792 -15.0365 -15.0006
   -14.8664 -14.8567 -14.6850 -14.6430 -14.6045 -14.5058 -14.4899 -14.2206
   -14.2022 -14.1369 -12.9643  -9.1820  -9.1707  -9.0003  -8.8948  -8.8829
    -8.8102  -8.7132  -8.7017  -8.5364  -8.5358  -8.5118  -8.3948  -4.6230
    -4.5611  -4.0645  -3.9851  -3.3157  -3.3079  -3.3001  -2.9724  -2.9302
    -2.8728  -2.8592  -2.7872  -2.7365  -2.4265  -2.4246  -2.3724  -2.3266
    -2.1233  -1.7068  -1.6600  -1.4568  -1.4063  -1.3719  -1.3434  -1.3421
    -1.2149  -1.1868  -1.1657  -1.0936  -1.0488  -1.0313  -0.9890  -0.5017
    -0.4988  -0.4174  -0.3772  -0.1143   0.1643   0.2866   0.4796   0.4951
     0.5317   0.5791   0.7182   0.8927   0.8963   0.9059   0.9218   0.9648
     1.0694   1.0762   1.1129   1.1136   1.1526   1.1737   1.2196   1.3133
     1.3258   1.3691   1.3698   1.4275   1.4605   1.4847   1.5696   1.9177
     1.9648   1.9837   2.1201   2.1358   2.1604   2.1942   2.2031   2.2465
     2.3998   2.4901   2.7077   3.8840   3.9148   4.0050   4.0204   5.5204
     5.5332   5.7848   6.1184   6.2233   7.4731   7.5089   7.7121   7.9015
     8.4175   8.5060   8.5106   8.6485   8.7168   8.8202   8.8974   8.9341
     8.9623   9.1406

          k =-0.5000 0.0000 0.0000 ( 38122 PWs)   bands (ev):

   -38.7105 -38.6348 -23.2233 -23.2108 -23.1436 -23.0669 -19.3044 -19.2341
   -19.0150 -18.9457 -18.7023 -18.6230 -15.4565 -15.4260 -15.2422 -15.2195
   -15.1784 -15.1610 -15.0321 -14.7539 -14.7475 -14.6191 -14.5523 -14.3130
   -14.2981 -14.1058 -13.2834  -8.5950  -8.5829  -8.5428  -8.4535  -8.1578
    -8.1465  -8.0709  -8.0590  -8.0330  -7.9075  -7.8954  -7.8460  -3.5173
    -3.4787  -3.3725  -3.2872  -2.5603  -2.5583  -2.2654  -2.2511  -2.2468
    -2.2251  -2.1674  -2.0017  -1.9583  -1.8031  -1.7700  -1.6189  -1.4573
    -1.4382  -1.4174  -1.4066  -1.4016  -1.3134  -1.2485  -1.2420  -1.0083
    -0.9931  -0.9764  -0.9579  -0.8477  -0.7473  -0.7098  -0.7069  -0.5676
    -0.3669  -0.3224  -0.1987  -0.1389  -0.0847  -0.0711  -0.0653  -0.0572
     0.0433   0.1697   0.1724   0.1849   0.2239   0.2384   0.2530   0.2564
     0.2733   0.2737   0.3559   0.4558   0.6848   0.7133   0.8385   0.8422
     0.8623   0.8789   0.9001   0.9309   0.9964   1.0388   1.0949   1.3030
     1.3107   1.3116   1.3324   1.3667   1.4306   1.4996   1.5041   1.6684
     1.6823   1.9544   1.9806   2.1199   2.1861   2.3938   2.4749   6.6470
     6.6887   6.7183   6.8051   6.8412   6.8556   6.9382   7.0242   7.4438
     7.5144   7.5289   7.8856   8.0819   8.1794   8.5853   8.6665   8.7348
     8.8384   8.8688

          k =-0.5000 0.1281 0.0000 ( 38100 PWs)   bands (ev):

   -38.7083 -38.6325 -23.2072 -23.1947 -23.1287 -23.0508 -19.2967 -19.2262
   -18.9827 -18.9133 -18.7999 -18.7210 -15.4079 -15.3766 -15.1698 -15.1262
   -15.1210 -15.0623 -14.9813 -14.7231 -14.7167 -14.6859 -14.6186 -14.2947
   -14.2796 -14.0955 -13.2344  -8.5909  -8.5780  -8.5410  -8.4510  -8.2930
    -8.2823  -8.2816  -8.2704  -8.1567  -8.1129  -8.0334  -8.0314  -3.6753
    -3.6228  -3.4325  -3.3506  -2.5850  -2.5762  -2.4908  -2.4517  -2.2608
    -2.1450  -2.1312  -2.1284  -2.1075  -2.0850  -2.0404  -1.9686  -1.8988
    -1.5569  -1.5496  -1.5333  -1.4425  -1.3424  -1.2914  -1.2882  -1.1672
    -1.1576  -0.7751  -0.7697  -0.6945  -0.5610  -0.5394  -0.4928  -0.4864
    -0.4583  -0.4148  -0.3651  -0.3177  -0.3074  -0.1323  -0.1207  -0.0379
     0.0521   0.1212   0.1503   0.2161   0.2334   0.3689   0.4209   0.4355
     0.5416   0.5606   0.6849   0.6964   0.7945   0.7997   0.8485   0.8516
     0.8667   0.8976   0.9796   1.0160   1.0270   1.0686   1.2493   1.2799
     1.2898   1.3303   1.3383   1.4123   1.4181   1.4805   1.4960   2.2168
     2.3140   2.3430   2.3520   2.4335   2.4613   2.6832   2.7097   6.5502
     6.5685   6.6641   6.8473   6.9798   7.0074   7.0094   7.1211   7.1859
     7.2111   7.6230   7.8824   8.5046   8.5661   8.6093   8.6844   8.8053
     8.8498   8.9712

          k =-0.5000 0.2563 0.0000 ( 38154 PWs)   bands (ev):

   -38.7028 -38.6270 -23.1677 -23.1552 -23.0922 -23.0116 -19.2779 -19.2074
   -19.0141 -18.9357 -18.9010 -18.8314 -15.2855 -15.2520 -15.0425 -15.0161
   -14.8704 -14.8469 -14.8413 -14.8212 -14.7638 -14.6484 -14.6423 -14.2553
   -14.2394 -14.0829 -13.1084  -8.7588  -8.7471  -8.6043  -8.5927  -8.5873
    -8.5592  -8.5490  -8.5389  -8.4423  -8.4314  -8.4131  -8.3639  -4.1319
    -4.0681  -3.6748  -3.5927  -2.7811  -2.7600  -2.6713  -2.6325  -2.5916
    -2.5478  -2.5365  -2.5295  -2.3577  -2.3243  -2.3110  -2.2654  -2.2124
    -2.1770  -1.8075  -1.7379  -1.3899  -1.3398  -1.2708  -1.1697  -1.1612
    -1.1484  -1.0359  -0.8364  -0.7769  -0.7769  -0.7626  -0.7068  -0.5982
    -0.5813  -0.4718  -0.4062  -0.2085   0.0120   0.1607   0.1857   0.1930
     0.3237   0.3936   0.4502   0.4777   0.6541   0.6944   0.7361   0.7878
     0.7960   0.8264   0.8977   0.9487   0.9730   0.9838   0.9860   0.9912
     1.0194   1.1122   1.1627   1.2157   1.3165   1.4001   1.4260   1.4356
     1.4391   1.4436   1.4535   1.5310   1.5715   1.7687   1.8284   2.1544
     2.6263   2.7125   2.7494   3.2928   3.3159   3.4214   3.4449   6.0371
     6.0535   6.2426   6.4368   6.5300   7.2299   7.4112   7.5140   7.8032
     7.8646   7.8998   7.9179   8.5644   8.6262   8.7192   8.7717   8.8518
     9.0205   9.0595

          k =-0.5000 0.3844 0.0000 ( 38246 PWs)   bands (ev):

   -38.6973 -38.6215 -23.1275 -23.1150 -23.0551 -22.9716 -19.2591 -19.2051
   -19.1885 -19.1272 -18.8134 -18.7436 -15.1567 -15.1211 -15.0203 -14.9562
   -14.8966 -14.8900 -14.6654 -14.6300 -14.5720 -14.5718 -14.5606 -14.2263
   -14.2088 -14.1037 -12.9686  -9.1524  -9.1409  -8.9685  -8.8982  -8.8864
    -8.8073  -8.7116  -8.6953  -8.5548  -8.5454  -8.5195  -8.4139  -4.6033
    -4.5395  -4.0415  -3.9612  -3.0655  -3.0504  -3.0402  -2.9757  -2.9315
    -2.8896  -2.8766  -2.8049  -2.7601  -2.4301  -2.4279  -2.3624  -2.3139
    -2.1407  -1.5998  -1.5647  -1.5434  -1.5190  -1.2842  -1.2652  -1.2480
    -1.2354  -1.1708  -1.0848  -1.0593  -0.9978  -0.9830  -0.9407  -0.4806
    -0.4695  -0.4296  -0.3639  -0.1348   0.1630   0.3108   0.5441   0.5483
     0.5988   0.6448   0.7805   0.8587   0.8665   0.9020   0.9174   1.0201
     1.0233   1.0435   1.0563   1.1026   1.1482   1.1757   1.2340   1.2529
     1.2854   1.3412   1.3416   1.3830   1.4154   1.4942   1.5647   1.6926
     1.7252   1.8858   1.9009   1.9524   1.9923   2.0019   2.2158   2.2175
     2.5677   2.6432   2.7836   3.9466   3.9736   4.0435   4.0583   5.4782
     5.4918   5.7360   6.1098   6.2157   7.4229   7.5447   7.7061   7.8826
     8.1865   8.3415   8.4185   8.5725   8.7354   8.7706   8.8796   8.9140
     9.0334   9.0773

          k =-0.5000-0.5125 0.0000 ( 38244 PWs)   bands (ev):

   -38.6950 -38.6193 -23.1107 -23.0981 -23.0396 -22.9548 -19.2789 -19.2514
   -19.2012 -19.1807 -18.7752 -18.7052 -15.1021 -15.0924 -15.0662 -15.0277
   -14.8255 -14.8245 -14.5901 -14.5475 -14.5372 -14.5215 -14.4679 -14.2188
   -14.2004 -14.1357 -12.9057  -9.3045  -9.2930  -9.1176  -9.0157  -9.0038
    -8.9458  -8.8343  -8.8189  -8.5523  -8.5474  -8.5144  -8.4106  -4.7925
    -4.7293  -4.2089  -4.1293  -3.3033  -3.2963  -3.2878  -3.1061  -3.0628
    -2.9167  -2.9046  -2.8279  -2.7815  -2.4182  -2.4166  -2.3959  -2.3490
    -2.1136  -1.6448  -1.6009  -1.5251  -1.4760  -1.3854  -1.3041  -1.2923
    -1.2825  -1.1835  -1.1590  -1.1549  -1.0809  -1.0663  -1.0260  -0.4372
    -0.4292  -0.4262  -0.3241  -0.1031   0.2000   0.3314   0.6069   0.6720
     0.8122   0.8560   0.9043   0.9212   0.9374   0.9508   0.9596   0.9696
     0.9896   1.0677   1.1671   1.1956   1.2423   1.2552   1.2836   1.4408
     1.4634   1.4695   1.4760   1.4828   1.4879   1.6043   1.6895   1.7976
     1.9850   2.0035   2.0928   2.1084   2.1739   2.2080   2.3773   2.3899
     2.3945   2.4846   2.7166   4.1600   4.1883   4.2737   4.2871   5.2300
     5.2424   5.5063   5.9993   6.1150   7.4568   7.4852   7.8039   7.8246
     8.1423   8.3319   8.5791   8.6557   8.6867   8.6900   8.8695   8.9347
     8.9447   9.0251

     the Fermi energy is     2.3891 ev

!    total energy              =   -1868.72200139 Ry
     Harris-Foulkes estimate   =   -1868.72200207 Ry
     estimated scf accuracy    <       0.00000082 Ry

     The total energy is the sum of the following terms:

     one-electron contribution =  -24149.75869041 Ry
     hartree contribution      =   12224.57959763 Ry
     xc contribution           =    -642.19841531 Ry
     ewald contribution        =   10698.66622660 Ry
     smearing contrib. (-TS)   =      -0.01071989 Ry

     convergence has been achieved in  34 iterations

     negative rho (up, down):  9.039E-02 0.000E+00

     Forces acting on atoms (cartesian axes, Ry/au):

     atom    1 type  3   force =     0.00000000    0.00000000   -0.00044017
     atom    2 type  2   force =     0.00000000    0.00000000    0.00177767
     atom    3 type  3   force =     0.00000000    0.00000000    0.00036210
     atom    4 type  1   force =     0.00000000    0.00000000   -0.00025231
     atom    5 type  2   force =     0.00000000    0.00000000   -0.00000864
     atom    6 type  3   force =     0.00000000    0.00000000    0.00137691
     atom    7 type  3   force =     0.00000000    0.00000000    0.00106583
     atom    8 type  4   force =     0.00000000    0.00000000   -0.00279939
     atom    9 type  3   force =     0.00000000    0.00000000    0.00496339
     atom   10 type  3   force =     0.00000000    0.00000000    0.00335703
     atom   11 type  2   force =     0.00000000    0.00000000   -0.00254676
     atom   12 type  1   force =     0.00000000    0.00000000    0.01658583
     atom   13 type  3   force =     0.00000000    0.00000000   -0.01932769
     atom   14 type  3   force =     0.00000000    0.00000000    0.02153798
     atom   15 type  2   force =     0.00000000    0.00000000   -0.02464525
     atom   16 type  3   force =     0.00000000    0.00000000    0.01812372
     atom   17 type  1   force =     0.00000000    0.00000000   -0.00190319
     atom   18 type  2   force =     0.00000000    0.00000000   -0.02225424
     atom   19 type  3   force =     0.00000000    0.00000000    0.00421380
     atom   20 type  3   force =     0.00000000    0.00000000    0.00304770
     atom   21 type  4   force =     0.00000000    0.00000000   -0.00095553
     atom   22 type  3   force =     0.00000000    0.00000000   -0.00056715
     atom   23 type  3   force =     0.00000000    0.00000000    0.00080475
     atom   24 type  2   force =     0.00000000    0.00000000   -0.00000353
     atom   25 type  1   force =     0.00000000    0.00000000    0.00005995
     atom   26 type  3   force =     0.00000000    0.00000000   -0.00203499
     atom   27 type  2   force =     0.00000000    0.00000000    0.00015280
     atom   28 type  3   force =     0.00000000    0.00000000    0.00030938

     Total force =     0.051354     Total SCF correction =     0.004433


     Computing stress (Cartesian axis) and pressure


     negative rho (up, down):  9.039E-02 0.000E+00
          total   stress  (Ry/bohr**3)                   (kbar)     P=       -7.55
  -0.00000844   0.00000000   0.00000000           -1.24        0.00        0.00
   0.00000000  -0.00011316   0.00000000            0.00      -16.65        0.00
   0.00000000   0.00000000  -0.00003246            0.00        0.00       -4.78

 
     init_run     :      9.57s CPU      9.88s WALL (       1 calls)
     electrons    :    581.60s CPU    602.28s WALL (       1 calls)
     forces       :      4.03s CPU      4.22s WALL (       1 calls)
     stress       :     22.99s CPU     23.45s WALL (       1 calls)

     Called by init_run:
     wfcinit      :      6.61s CPU      6.72s WALL (       1 calls)
     potinit      :      0.67s CPU      0.68s WALL (       1 calls)
     hinit0       :      1.10s CPU      1.11s WALL (       1 calls)

     Called by electrons:
     c_bands      :    448.01s CPU    458.38s WALL (      34 calls)
     sum_band     :     88.58s CPU     94.12s WALL (      34 calls)
     v_of_rho     :      2.87s CPU      2.90s WALL (      35 calls)
     newd         :     25.42s CPU     30.12s WALL (      35 calls)
     mix_rho      :     17.27s CPU     17.43s WALL (      34 calls)

     Called by c_bands:
     init_us_2    :      3.32s CPU      3.34s WALL (    1775 calls)
     cegterg      :    420.21s CPU    430.09s WALL (     850 calls)

     Called by sum_band:
     sum_band:bec :      0.23s CPU      0.23s WALL (     850 calls)
     addusdens    :     23.30s CPU     28.10s WALL (      34 calls)

     Called by *egterg:
     h_psi        :    212.11s CPU    219.10s WALL (    3608 calls)
     s_psi        :     20.21s CPU     20.39s WALL (    3608 calls)
     g_psi        :      0.64s CPU      0.64s WALL (    2733 calls)
     cdiaghg      :    103.41s CPU    103.85s WALL (    3583 calls)

     Called by h_psi:
     h_psi:calbec :     25.07s CPU     26.11s WALL (    3608 calls)
     vloc_psi     :    165.16s CPU    167.87s WALL (    3608 calls)
     add_vuspsi   :     20.97s CPU     22.75s WALL (    3608 calls)

     General routines
     calbec       :     43.80s CPU     44.90s WALL (    4583 calls)
     fft          :      2.53s CPU      2.55s WALL (     478 calls)
     ffts         :      9.24s CPU      9.34s WALL (   15130 calls)
     fftw         :    191.21s CPU    194.25s WALL (  608970 calls)
     interpolate  :      0.16s CPU      0.16s WALL (      35 calls)
 
     Parallel routines
     fft_scatt_xy :     24.85s CPU     25.19s WALL (  624578 calls)
     fft_scatt_yz :    119.64s CPU    121.51s WALL (  624578 calls)
 
     PWSCF        :  10m18.96s CPU  10m40.65s WALL

 
   This run was terminated on:  18:10:24   5May2021            

=------------------------------------------------------------------------------=
   JOB DONE.
=------------------------------------------------------------------------------=
[1620252624.644050] [holy7c10201:145021:0]          mpool.c:43   UCX  WARN  object 0x453b040 was not returned to mpool ucp_requests
[1620252624.647066] [holy7c08604:22297:0]          mpool.c:43   UCX  WARN  object 0x2be26c0 was not returned to mpool ucp_requests
[1620252624.647085] [holy7c08604:22297:0]          mpool.c:43   UCX  WARN  object 0x2be2c00 was not returned to mpool ucp_requests
[1620252624.645671] [holy7c08509:29389:0]          mpool.c:43   UCX  WARN  object 0x4497440 was not returned to mpool ucp_requests
[1620252624.647220] [holy7c08602:42334:0]          mpool.c:43   UCX  WARN  object 0x29a0fc0 was not returned to mpool ucp_requests
[1620252624.645277] [holy7c08605:197111:0]          mpool.c:43   UCX  WARN  object 0x2b44dc0 was not returned to mpool ucp_requests
[1620252624.651583] [holy7c10101:161175:0]          mpool.c:43   UCX  WARN  object 0x365a640 was not returned to mpool ucp_requests
[1620252624.651611] [holy7c10101:161175:0]          mpool.c:43   UCX  WARN  object 0x365a9c0 was not returned to mpool ucp_requests
[1620252624.645610] [holy7c08509:29390:0]          mpool.c:43   UCX  WARN  object 0x36bc340 was not returned to mpool ucp_requests
[1620252624.645628] [holy7c08509:29390:0]          mpool.c:43   UCX  WARN  object 0x36bca40 was not returned to mpool ucp_requests
