
     Program PWSCF v.6.5 starts on  5May2021 at 17:59:54 

     This program is part of the open-source Quantum ESPRESSO suite
     for quantum simulation of materials; please cite
         "P. Giannozzi et al., J. Phys.:Condens. Matter 21 395502 (2009);
         "P. Giannozzi et al., J. Phys.:Condens. Matter 29 465901 (2017);
          URL http://www.quantum-espresso.org", 
     in publications or presentations arising from this work. More details at
     http://www.quantum-espresso.org/quote

     Parallel version (MPI), running on    20 processors

     MPI processes distributed on    13 nodes
     R & G space division:  proc/nbgrp/npool/nimage =      20
     Reading input from YBCO_CuO_cleave_6.0_sep_scf.pwi
Warning: card &IONS ignored
Warning: card     ION_DYNAMICS = 'BFGS' ignored
Warning: card / ignored
Warning: card &CELL ignored
Warning: card     CELL_DYNAMICS = 'BFGS' ignored
Warning: card / ignored

     Current dimensions of program PWSCF are:
     Max number of different atomic species (ntypx) = 10
     Max number of k-points (npk) =  40000
     Max angular momentum in pseudopotentials (lmaxx) =  3

     Subspace diagonalization in iterative solution of the eigenvalue problem:
     one sub-group per band group will be used
     scalapack distributed-memory algorithm (size of sub-group:  4*  4 procs)

     Message from routine setup:
     using ibrav=0 with symmetry is DISCOURAGED, use correct ibrav instead
 
     Parallelization info
     --------------------
     sticks:   dense  smooth     PW     G-vecs:    dense   smooth      PW
     Min         150      50     14                80800    15544    2422
     Max         151      51     15                80843    15571    2473
     Sum        3015    1011    293              1616397   311077   48995
 


     bravais-lattice index     =            0
     lattice parameter (alat)  =       7.3477  a.u.
     unit-cell volume          =    4953.9607 (a.u.)^3
     number of atoms/cell      =           28
     number of atomic types    =            4
     number of electrons       =       229.00
     number of Kohn-Sham states=          138
     kinetic-energy cutoff     =      60.0000  Ry
     charge density cutoff     =     720.0000  Ry
     convergence threshold     =      1.0E-06
     mixing beta               =       0.2000
     number of iterations used =           10  local-TF  mixing
     Exchange-correlation= SLA PW PBE PBE
                           (   1   4   3   4   0   0   0)

     celldm(1)=   7.347715  celldm(2)=   0.000000  celldm(3)=   0.000000
     celldm(4)=   0.000000  celldm(5)=   0.000000  celldm(6)=   0.000000

     crystal axes: (cart. coord. in units of alat)
               a(1) = (   1.000000   0.000000   0.000000 )  
               a(2) = (   0.000000   0.975577   0.000000 )  
               a(3) = (   0.000000   0.000000  12.800707 )  

     reciprocal axes: (cart. coord. in units 2 pi/alat)
               b(1) = (  1.000000  0.000000  0.000000 )  
               b(2) = (  0.000000  1.025034  0.000000 )  
               b(3) = (  0.000000  0.000000  0.078121 )  


     PseudoPot. # 1 for Ba read from file:
     /n/holyscratch01/hoffman_lab/ruizhe/YBCO_Project/pseudo/Ba.pbe-nsp-van.UPF
     MD5 check sum: 2b9c31dd849566dd297d80989662b7a0
     Pseudo is Ultrasoft + core correction, Zval = 10.0
     Generated by new atomic code, or converted to UPF format
     Using radial grid of  907 points,  6 beta functions with: 
                l(1) =   0
                l(2) =   0
                l(3) =   1
                l(4) =   1
                l(5) =   2
                l(6) =   2
     Q(r) pseudized with  6 coefficients,  rinner =    1.200   1.200   1.200
                                                       1.200   1.200

     PseudoPot. # 2 for Cu read from file:
     /n/holyscratch01/hoffman_lab/ruizhe/YBCO_Project/pseudo/Cu.pbe-n-van_ak.UPF
     MD5 check sum: 34e3282627ffb533726feb647e090d62
     Pseudo is Ultrasoft + core correction, Zval = 11.0
     Generated by new atomic code, or converted to UPF format
     Using radial grid of  867 points,  6 beta functions with: 
                l(1) =   0
                l(2) =   0
                l(3) =   1
                l(4) =   1
                l(5) =   2
                l(6) =   2
     Q(r) pseudized with  8 coefficients,  rinner =    1.400   1.400   1.400
                                                       1.400   1.400

     PseudoPot. # 3 for O  read from file:
     /n/holyscratch01/hoffman_lab/ruizhe/YBCO_Project/pseudo/O.pbe-van_ak.UPF
     MD5 check sum: 783ce7fe4c79b6a4916957118fed0856
     Pseudo is Ultrasoft, Zval =  6.0
     Generated by new atomic code, or converted to UPF format
     Using radial grid of  737 points,  4 beta functions with: 
                l(1) =   0
                l(2) =   0
                l(3) =   1
                l(4) =   1
     Q(r) pseudized with  8 coefficients,  rinner =    0.800   0.800   0.800


     PseudoPot. # 4 for Y  read from file:
     /n/holyscratch01/hoffman_lab/ruizhe/YBCO_Project/pseudo/Y.pbe-nsp-van.UPF
     MD5 check sum: 4412fed3ab108fed87a1b7d6a69a4a38
     Pseudo is Ultrasoft + core correction, Zval = 11.0
     Generated by new atomic code, or converted to UPF format
     Using radial grid of  885 points,  6 beta functions with: 
                l(1) =   0
                l(2) =   0
                l(3) =   1
                l(4) =   1
                l(5) =   2
                l(6) =   2
     Q(r) pseudized with  6 coefficients,  rinner =    1.200   1.200   1.200
                                                       1.200   1.200

     atomic species   valence    mass     pseudopotential
        Ba            10.00   137.32700     Ba( 1.00)
        Cu            11.00    63.54600     Cu( 1.00)
        O              6.00    15.99900     O ( 1.00)
        Y             11.00    88.90584     Y ( 1.00)

      4 Sym. Ops. (no inversion) found



   Cartesian axes

     site n.     atom                  positions (alat units)
         1           O   tau(   1) = (   0.0000000   0.4877884  -0.0257983  )
         2           Cu  tau(   2) = (   0.0000000   0.0000000   0.0215779  )
         3           O   tau(   3) = (   0.0000000   0.0000000   0.5073114  )
         4           Ba  tau(   4) = (   0.4999996   0.4877884   0.5319677  )
         5           Cu  tau(   5) = (   0.0000000   0.0000000   1.0495845  )
         6           O   tau(   6) = (   0.4999996   0.0000000   1.1181579  )
         7           O   tau(   7) = (   0.0000000   0.4877884   1.1273137  )
         8           Y   tau(   8) = (   0.4999996   0.4877884   1.4938777  )
         9           O   tau(   9) = (   0.0000000   0.4877884   1.8497402  )
        10           O   tau(  10) = (   0.4999996   0.0000000   1.8692709  )
        11           Cu  tau(  11) = (   0.0000000   0.0000000   1.9417560  )
        12           Ba  tau(  12) = (   0.4999996   0.4877884   2.4526063  )
        13           O   tau(  13) = (   0.0000000   0.0000000   2.5103470  )
        14           O   tau(  14) = (   0.0000000   0.4877884   2.9968469  )
        15           Cu  tau(  15) = (   0.0000000   0.0000000   2.9968521  )
        16           O   tau(  16) = (   0.0000000   0.0000000   5.0264421  )
        17           Ba  tau(  17) = (   0.4999996   0.4877884   5.0841751  )
        18           Cu  tau(  18) = (   0.0000000   0.0000000   5.5950485  )
        19           O   tau(  19) = (   0.4999996   0.0000000   5.6675208  )
        20           O   tau(  20) = (   0.0000000   0.4877884   5.6870335  )
        21           Y   tau(  21) = (   0.4999996   0.4877884   6.0428986  )
        22           O   tau(  22) = (   0.0000000   0.4877884   6.4094625  )
        23           O   tau(  23) = (   0.4999996   0.0000000   6.4186312  )
        24           Cu  tau(  24) = (   0.0000000   0.0000000   6.4872097  )
        25           Ba  tau(  25) = (   0.4999996   0.4877884   7.0048111  )
        26           O   tau(  26) = (   0.0000000   0.0000000   7.0294675  )
        27           Cu  tau(  27) = (   0.0000000   0.0000000   7.5151727  )
        28           O   tau(  28) = (   0.0000000   0.4877884   7.5625540  )

     number of k points=    25  Gaussian smearing, width (Ry)=  0.0100
                       cart. coord. in units 2pi/alat
        k(    1) = (   0.0000000   0.0000000   0.0000000), wk =   0.0312500
        k(    2) = (   0.0000000   0.1281293   0.0000000), wk =   0.0625000
        k(    3) = (   0.0000000   0.2562585   0.0000000), wk =   0.0625000
        k(    4) = (   0.0000000   0.3843878   0.0000000), wk =   0.0625000
        k(    5) = (   0.0000000  -0.5125170   0.0000000), wk =   0.0312500
        k(    6) = (   0.1250000   0.0000000   0.0000000), wk =   0.0625000
        k(    7) = (   0.1250000   0.1281293   0.0000000), wk =   0.1250000
        k(    8) = (   0.1250000   0.2562585   0.0000000), wk =   0.1250000
        k(    9) = (   0.1250000   0.3843878   0.0000000), wk =   0.1250000
        k(   10) = (   0.1250000  -0.5125170   0.0000000), wk =   0.0625000
        k(   11) = (   0.2500000   0.0000000   0.0000000), wk =   0.0625000
        k(   12) = (   0.2500000   0.1281293   0.0000000), wk =   0.1250000
        k(   13) = (   0.2500000   0.2562585   0.0000000), wk =   0.1250000
        k(   14) = (   0.2500000   0.3843878   0.0000000), wk =   0.1250000
        k(   15) = (   0.2500000  -0.5125170   0.0000000), wk =   0.0625000
        k(   16) = (   0.3750000   0.0000000   0.0000000), wk =   0.0625000
        k(   17) = (   0.3750000   0.1281293   0.0000000), wk =   0.1250000
        k(   18) = (   0.3750000   0.2562585   0.0000000), wk =   0.1250000
        k(   19) = (   0.3750000   0.3843878   0.0000000), wk =   0.1250000
        k(   20) = (   0.3750000  -0.5125170   0.0000000), wk =   0.0625000
        k(   21) = (  -0.5000000   0.0000000   0.0000000), wk =   0.0312500
        k(   22) = (  -0.5000000   0.1281293   0.0000000), wk =   0.0625000
        k(   23) = (  -0.5000000   0.2562585   0.0000000), wk =   0.0625000
        k(   24) = (  -0.5000000   0.3843878   0.0000000), wk =   0.0625000
        k(   25) = (  -0.5000000  -0.5125170   0.0000000), wk =   0.0312500

     Dense  grid:  1616397 G-vectors     FFT dimensions: (  64,  64, 810)

     Smooth grid:   311077 G-vectors     FFT dimensions: (  40,  36, 480)

     Estimated max dynamical RAM per process >     515.30 MB

     Estimated total dynamical RAM >      10.06 GB

     Initial potential from superposition of free atoms

     starting charge  228.84827, renormalised to  229.00000

     negative rho (up, down):  8.956E-02 0.000E+00
     Starting wfcs are  201 randomized atomic wfcs

     total cpu time spent up to now is       11.2 secs

     Self-consistent Calculation

     iteration #  1     ecut=    60.00 Ry     beta= 0.20
     Davidson diagonalization with overlap
     ethr =  1.00E-02,  avg # of iterations =  2.0

     negative rho (up, down):  8.741E-02 0.000E+00

     total cpu time spent up to now is       28.4 secs

     total energy              =   -1869.52041289 Ry
     Harris-Foulkes estimate   =   -1871.09978475 Ry
     estimated scf accuracy    <      13.50344070 Ry

     iteration #  2     ecut=    60.00 Ry     beta= 0.20
     Davidson diagonalization with overlap
     ethr =  5.90E-03,  avg # of iterations =  1.0

     negative rho (up, down):  8.615E-02 0.000E+00

     total cpu time spent up to now is       43.7 secs

     total energy              =   -1868.88544125 Ry
     Harris-Foulkes estimate   =   -1869.87462959 Ry
     estimated scf accuracy    <       5.83042669 Ry

     iteration #  3     ecut=    60.00 Ry     beta= 0.20
     Davidson diagonalization with overlap
     ethr =  2.55E-03,  avg # of iterations =  1.0

     negative rho (up, down):  8.573E-02 0.000E+00

     total cpu time spent up to now is       59.2 secs

     total energy              =   -1868.70924148 Ry
     Harris-Foulkes estimate   =   -1869.16124828 Ry
     estimated scf accuracy    <       4.25238898 Ry

     iteration #  4     ecut=    60.00 Ry     beta= 0.20
     Davidson diagonalization with overlap
     ethr =  1.86E-03,  avg # of iterations =  1.8

     negative rho (up, down):  8.592E-02 0.000E+00

     total cpu time spent up to now is       75.4 secs

     total energy              =   -1868.85664415 Ry
     Harris-Foulkes estimate   =   -1868.92433561 Ry
     estimated scf accuracy    <       2.29833216 Ry

     iteration #  5     ecut=    60.00 Ry     beta= 0.20
     Davidson diagonalization with overlap
     ethr =  1.00E-03,  avg # of iterations =  1.0

     negative rho (up, down):  8.644E-02 0.000E+00

     total cpu time spent up to now is       90.8 secs

     total energy              =   -1868.82472960 Ry
     Harris-Foulkes estimate   =   -1868.89211588 Ry
     estimated scf accuracy    <       1.26095311 Ry

     iteration #  6     ecut=    60.00 Ry     beta= 0.20
     Davidson diagonalization with overlap
     ethr =  5.51E-04,  avg # of iterations =  1.0

     negative rho (up, down):  8.718E-02 0.000E+00

     total cpu time spent up to now is      106.0 secs

     total energy              =   -1868.77281603 Ry
     Harris-Foulkes estimate   =   -1868.84136107 Ry
     estimated scf accuracy    <       0.52463453 Ry

     iteration #  7     ecut=    60.00 Ry     beta= 0.20
     Davidson diagonalization with overlap
     ethr =  2.29E-04,  avg # of iterations =  5.3

     negative rho (up, down):  8.767E-02 0.000E+00

     total cpu time spent up to now is      126.3 secs

     total energy              =   -1868.77227439 Ry
     Harris-Foulkes estimate   =   -1868.79066434 Ry
     estimated scf accuracy    <       0.38611065 Ry

     iteration #  8     ecut=    60.00 Ry     beta= 0.20
     Davidson diagonalization with overlap
     ethr =  1.69E-04,  avg # of iterations =  2.8

     negative rho (up, down):  8.892E-02 0.000E+00

     total cpu time spent up to now is      143.6 secs

     total energy              =   -1868.75334445 Ry
     Harris-Foulkes estimate   =   -1868.78713563 Ry
     estimated scf accuracy    <       0.59661302 Ry

     iteration #  9     ecut=    60.00 Ry     beta= 0.20
     Davidson diagonalization with overlap
     ethr =  1.69E-04,  avg # of iterations =  3.7

     negative rho (up, down):  8.956E-02 0.000E+00

     total cpu time spent up to now is      162.3 secs

     total energy              =   -1868.75547172 Ry
     Harris-Foulkes estimate   =   -1868.76164043 Ry
     estimated scf accuracy    <       0.39918715 Ry

     iteration # 10     ecut=    60.00 Ry     beta= 0.20
     Davidson diagonalization with overlap
     ethr =  1.69E-04,  avg # of iterations =  1.0

     negative rho (up, down):  9.041E-02 0.000E+00

     total cpu time spent up to now is      177.6 secs

     total energy              =   -1868.73747899 Ry
     Harris-Foulkes estimate   =   -1868.75850078 Ry
     estimated scf accuracy    <       0.38891562 Ry

     iteration # 11     ecut=    60.00 Ry     beta= 0.20
     Davidson diagonalization with overlap
     ethr =  1.69E-04,  avg # of iterations =  2.5

     negative rho (up, down):  9.120E-02 0.000E+00

     total cpu time spent up to now is      194.3 secs

     total energy              =   -1868.73261018 Ry
     Harris-Foulkes estimate   =   -1868.74606554 Ry
     estimated scf accuracy    <       0.73873177 Ry

     iteration # 12     ecut=    60.00 Ry     beta= 0.20
     Davidson diagonalization with overlap
     ethr =  1.69E-04,  avg # of iterations =  2.3

     negative rho (up, down):  9.122E-02 0.000E+00

     total cpu time spent up to now is      211.0 secs

     total energy              =   -1868.73306703 Ry
     Harris-Foulkes estimate   =   -1868.73858860 Ry
     estimated scf accuracy    <       0.69095466 Ry

     iteration # 13     ecut=    60.00 Ry     beta= 0.20
     Davidson diagonalization with overlap
     ethr =  1.69E-04,  avg # of iterations =  1.0

     negative rho (up, down):  9.092E-02 0.000E+00

     total cpu time spent up to now is      226.2 secs

     total energy              =   -1868.72783468 Ry
     Harris-Foulkes estimate   =   -1868.73429531 Ry
     estimated scf accuracy    <       0.27991142 Ry

     iteration # 14     ecut=    60.00 Ry     beta= 0.20
     Davidson diagonalization with overlap
     ethr =  1.22E-04,  avg # of iterations =  3.7

     negative rho (up, down):  9.030E-02 0.000E+00

     total cpu time spent up to now is      244.5 secs

     total energy              =   -1868.72375608 Ry
     Harris-Foulkes estimate   =   -1868.72931688 Ry
     estimated scf accuracy    <       0.04715263 Ry

     iteration # 15     ecut=    60.00 Ry     beta= 0.20
     Davidson diagonalization with overlap
     ethr =  2.06E-05,  avg # of iterations =  8.0

     negative rho (up, down):  9.101E-02 0.000E+00

     total cpu time spent up to now is      269.7 secs

     total energy              =   -1868.72511928 Ry
     Harris-Foulkes estimate   =   -1868.72593195 Ry
     estimated scf accuracy    <       0.02682718 Ry

     iteration # 16     ecut=    60.00 Ry     beta= 0.20
     Davidson diagonalization with overlap
     ethr =  1.17E-05,  avg # of iterations =  1.2

     negative rho (up, down):  9.032E-02 0.000E+00

     total cpu time spent up to now is      285.0 secs

     total energy              =   -1868.72523173 Ry
     Harris-Foulkes estimate   =   -1868.72537240 Ry
     estimated scf accuracy    <       0.01685515 Ry

     iteration # 17     ecut=    60.00 Ry     beta= 0.20
     Davidson diagonalization with overlap
     ethr =  7.36E-06,  avg # of iterations =  2.2

     negative rho (up, down):  9.008E-02 0.000E+00

     total cpu time spent up to now is      301.4 secs

     total energy              =   -1868.72486282 Ry
     Harris-Foulkes estimate   =   -1868.72533658 Ry
     estimated scf accuracy    <       0.01533462 Ry

     iteration # 18     ecut=    60.00 Ry     beta= 0.20
     Davidson diagonalization with overlap
     ethr =  6.70E-06,  avg # of iterations =  5.7

     negative rho (up, down):  9.793E-02 0.000E+00

     total cpu time spent up to now is      322.7 secs

     total energy              =   -1868.72506851 Ry
     Harris-Foulkes estimate   =   -1868.72502255 Ry
     estimated scf accuracy    <       0.01092253 Ry

     iteration # 19     ecut=    60.00 Ry     beta= 0.20
     Davidson diagonalization with overlap
     ethr =  4.77E-06,  avg # of iterations =  6.6

     negative rho (up, down):  9.426E-02 0.000E+00

     total cpu time spent up to now is      345.1 secs

     total energy              =   -1868.72437779 Ry
     Harris-Foulkes estimate   =   -1868.72512395 Ry
     estimated scf accuracy    <       0.01067578 Ry

     iteration # 20     ecut=    60.00 Ry     beta= 0.20
     Davidson diagonalization with overlap
     ethr =  4.66E-06,  avg # of iterations =  2.1

     negative rho (up, down):  9.550E-02 0.000E+00

     total cpu time spent up to now is      361.4 secs

     total energy              =   -1868.72421209 Ry
     Harris-Foulkes estimate   =   -1868.72462141 Ry
     estimated scf accuracy    <       0.01400114 Ry

     iteration # 21     ecut=    60.00 Ry     beta= 0.20
     Davidson diagonalization with overlap
     ethr =  4.66E-06,  avg # of iterations =  3.5

     negative rho (up, down):  1.014E-01 0.000E+00

     total cpu time spent up to now is      379.5 secs

     total energy              =   -1868.72288689 Ry
     Harris-Foulkes estimate   =   -1868.72428193 Ry
     estimated scf accuracy    <       0.01500494 Ry

     iteration # 22     ecut=    60.00 Ry     beta= 0.20
     Davidson diagonalization with overlap
     ethr =  4.66E-06,  avg # of iterations =  4.9

     negative rho (up, down):  1.053E-01 0.000E+00

     total cpu time spent up to now is      399.6 secs

     total energy              =   -1868.72240013 Ry
     Harris-Foulkes estimate   =   -1868.72304505 Ry
     estimated scf accuracy    <       0.00640190 Ry

     iteration # 23     ecut=    60.00 Ry     beta= 0.20
     Davidson diagonalization with overlap
     ethr =  2.80E-06,  avg # of iterations =  6.7

     negative rho (up, down):  1.086E-01 0.000E+00

     total cpu time spent up to now is      422.0 secs

     total energy              =   -1868.72225537 Ry
     Harris-Foulkes estimate   =   -1868.72245562 Ry
     estimated scf accuracy    <       0.00812998 Ry

     iteration # 24     ecut=    60.00 Ry     beta= 0.20
     Davidson diagonalization with overlap
     ethr =  2.80E-06,  avg # of iterations =  6.9

     negative rho (up, down):  1.039E-01 0.000E+00

     total cpu time spent up to now is      444.5 secs

     total energy              =   -1868.72204731 Ry
     Harris-Foulkes estimate   =   -1868.72226862 Ry
     estimated scf accuracy    <       0.00578529 Ry

     iteration # 25     ecut=    60.00 Ry     beta= 0.20
     Davidson diagonalization with overlap
     ethr =  2.53E-06,  avg # of iterations =  4.6

     negative rho (up, down):  9.540E-02 0.000E+00

     total cpu time spent up to now is      463.7 secs

     total energy              =   -1868.72174481 Ry
     Harris-Foulkes estimate   =   -1868.72208202 Ry
     estimated scf accuracy    <       0.00366527 Ry

     iteration # 26     ecut=    60.00 Ry     beta= 0.20
     Davidson diagonalization with overlap
     ethr =  1.60E-06,  avg # of iterations =  7.3

     negative rho (up, down):  9.330E-02 0.000E+00

     total cpu time spent up to now is      487.6 secs

     total energy              =   -1868.72171230 Ry
     Harris-Foulkes estimate   =   -1868.72178736 Ry
     estimated scf accuracy    <       0.00121180 Ry

     iteration # 27     ecut=    60.00 Ry     beta= 0.20
     Davidson diagonalization with overlap
     ethr =  5.29E-07,  avg # of iterations =  5.8

     negative rho (up, down):  9.254E-02 0.000E+00

     total cpu time spent up to now is      508.8 secs

     total energy              =   -1868.72168610 Ry
     Harris-Foulkes estimate   =   -1868.72173064 Ry
     estimated scf accuracy    <       0.00038359 Ry

     iteration # 28     ecut=    60.00 Ry     beta= 0.20
     Davidson diagonalization with overlap
     ethr =  1.68E-07,  avg # of iterations =  4.7

     negative rho (up, down):  9.253E-02 0.000E+00

     total cpu time spent up to now is      528.1 secs

     total energy              =   -1868.72168444 Ry
     Harris-Foulkes estimate   =   -1868.72169171 Ry
     estimated scf accuracy    <       0.00013174 Ry

     iteration # 29     ecut=    60.00 Ry     beta= 0.20
     Davidson diagonalization with overlap
     ethr =  5.75E-08,  avg # of iterations =  3.0

     negative rho (up, down):  9.174E-02 0.000E+00

     total cpu time spent up to now is      545.8 secs

     total energy              =   -1868.72170588 Ry
     Harris-Foulkes estimate   =   -1868.72168597 Ry
     estimated scf accuracy    <       0.00008232 Ry

     iteration # 30     ecut=    60.00 Ry     beta= 0.20
     Davidson diagonalization with overlap
     ethr =  3.59E-08,  avg # of iterations =  2.4

     negative rho (up, down):  9.109E-02 0.000E+00

     total cpu time spent up to now is      562.9 secs

     total energy              =   -1868.72171616 Ry
     Harris-Foulkes estimate   =   -1868.72171048 Ry
     estimated scf accuracy    <       0.00003571 Ry

     iteration # 31     ecut=    60.00 Ry     beta= 0.20
     Davidson diagonalization with overlap
     ethr =  1.56E-08,  avg # of iterations =  6.7

     negative rho (up, down):  9.078E-02 0.000E+00

     total cpu time spent up to now is      585.5 secs

     total energy              =   -1868.72171307 Ry
     Harris-Foulkes estimate   =   -1868.72171839 Ry
     estimated scf accuracy    <       0.00000734 Ry

     iteration # 32     ecut=    60.00 Ry     beta= 0.20
     Davidson diagonalization with overlap
     c_bands:  1 eigenvalues not converged
     ethr =  3.21E-09,  avg # of iterations =  4.2

     negative rho (up, down):  9.070E-02 0.000E+00

     total cpu time spent up to now is      605.3 secs

     total energy              =   -1868.72171381 Ry
     Harris-Foulkes estimate   =   -1868.72171373 Ry
     estimated scf accuracy    <       0.00000311 Ry

     iteration # 33     ecut=    60.00 Ry     beta= 0.20
     Davidson diagonalization with overlap
     ethr =  1.36E-09,  avg # of iterations =  1.8

     negative rho (up, down):  9.071E-02 0.000E+00

     total cpu time spent up to now is      621.9 secs

     total energy              =   -1868.72171396 Ry
     Harris-Foulkes estimate   =   -1868.72171391 Ry
     estimated scf accuracy    <       0.00000151 Ry

     iteration # 34     ecut=    60.00 Ry     beta= 0.20
     Davidson diagonalization with overlap
     ethr =  6.59E-10,  avg # of iterations =  2.0

     negative rho (up, down):  9.077E-02 0.000E+00

     total cpu time spent up to now is      638.2 secs

     total energy              =   -1868.72171414 Ry
     Harris-Foulkes estimate   =   -1868.72171402 Ry
     estimated scf accuracy    <       0.00000101 Ry

     iteration # 35     ecut=    60.00 Ry     beta= 0.20
     Davidson diagonalization with overlap
     ethr =  4.40E-10,  avg # of iterations =  2.0

     negative rho (up, down):  9.060E-02 0.000E+00

     total cpu time spent up to now is      654.3 secs

     End of self-consistent calculation

          k = 0.0000 0.0000 0.0000 ( 38797 PWs)   bands (ev):

   -38.8622 -38.7856 -23.4913 -23.4790 -23.3924 -23.3319 -19.3951 -19.3274
   -18.8675 -18.8587 -18.7916 -18.7786 -16.1862 -16.1361 -15.2285 -15.1748
   -14.9756 -14.9718 -14.9658 -14.9216 -14.8737 -14.7105 -14.6566 -14.4730
   -14.4606 -14.2130 -12.9301  -8.7675  -8.7120  -8.6932  -8.5455  -8.4835
    -8.4718  -8.4567  -8.4451  -8.3051  -8.2822  -8.2641  -8.1822  -2.8178
    -2.7874  -2.7656  -2.7377  -2.6472  -2.5920  -2.5739  -2.5644  -2.5305
    -2.4904  -2.4543  -2.3997  -2.2791  -1.6230  -1.5606  -1.1714  -1.1547
    -1.1038  -0.8398  -0.7823  -0.7822  -0.7732  -0.7448  -0.7380  -0.5837
    -0.5816  -0.5499  -0.5296  -0.5108  -0.5037  -0.4510  -0.4460  -0.4199
    -0.4106  -0.3205  -0.3170  -0.3052  -0.3038  -0.2809  -0.2199  -0.2042
    -0.1662  -0.1619  -0.1525  -0.1382  -0.0877  -0.0522  -0.0484  -0.0311
     0.2518   0.3921   0.4365   0.5016   0.5041   0.5439   0.5744   0.6122
     0.6506   0.6618   0.6684   0.7538   0.7613   0.7738   0.7859   0.7881
     0.8306   1.2091   1.2509   1.2713   1.2789   1.3622   1.4708   1.4777
     1.5590   1.7759   1.9140   1.9619   1.9987   2.0415   2.0697   4.4843
     4.5846   4.6350   5.1564   5.2024   5.6763   5.9531   5.9684   6.1349
     6.1748   6.6755   6.8039   7.4318   7.4432   7.5058   7.6413   7.7244
     7.8731   7.9353

          k = 0.0000 0.1281 0.0000 ( 38797 PWs)   bands (ev):

   -38.8598 -38.7833 -23.4698 -23.4574 -23.3738 -23.3108 -19.3592 -19.2914
   -18.9630 -18.8833 -18.8643 -18.7884 -16.0773 -16.0280 -15.2367 -15.1813
   -14.9849 -14.9739 -14.9415 -14.8906 -14.8564 -14.7559 -14.7043 -14.4788
   -14.4647 -14.2452 -13.0017  -8.7565  -8.6950  -8.6781  -8.5346  -8.4760
    -8.4647  -8.4423  -8.4305  -8.3043  -8.2655  -8.2312  -8.1814  -2.9079
    -2.8999  -2.8820  -2.8263  -2.7682  -2.7172  -2.5760  -2.5691  -2.4603
    -2.4390  -2.4015  -2.3845  -2.2884  -1.6922  -1.6743  -1.6170  -1.5573
    -1.5049  -1.1701  -1.1349  -0.9498  -0.8720  -0.8350  -0.8333  -0.8271
    -0.8177  -0.8111  -0.7828  -0.7415  -0.6181  -0.4912  -0.4416  -0.4176
    -0.4036  -0.3448  -0.3367  -0.2864  -0.2636  -0.1886  -0.1857  -0.1743
    -0.1535  -0.1512  -0.0920  -0.0570  -0.0549  -0.0326   0.1310   0.1603
     0.1965   0.2336   0.3104   0.3723   0.4551   0.4752   0.4958   0.7138
     0.7340   0.7656   0.7841   0.8091   0.9316   0.9719   0.9863   1.0028
     1.0076   1.1870   1.2478   1.2565   1.3131   1.3250   1.4270   1.5578
     1.6121   1.8381   1.8626   2.1016   2.1269   2.2876   2.3013   4.8575
     4.9527   4.9589   5.3992   5.4431   5.8211   6.2751   6.2902   6.4322
     6.4850   6.9394   7.0638   7.3712   7.4451   7.6070   7.7936   7.8717
     8.1248   8.1343

          k = 0.0000 0.2563 0.0000 ( 38804 PWs)   bands (ev):

   -38.8542 -38.7777 -23.4167 -23.4043 -23.3284 -23.2588 -19.2681 -19.2001
   -19.1881 -19.1091 -18.8566 -18.7807 -15.8289 -15.7827 -15.3117 -15.2528
   -15.0485 -15.0237 -14.8949 -14.8241 -14.8211 -14.8073 -14.7759 -14.4568
   -14.4399 -14.2934 -13.1705  -8.7308  -8.6544  -8.6394  -8.5172  -8.5061
    -8.5058  -8.3522  -8.3391  -8.3272  -8.1769  -8.1667  -8.1497  -3.3361
    -3.3021  -3.2021  -3.1365  -2.7231  -2.7165  -2.6258  -2.6132  -2.5787
    -2.4520  -2.4394  -2.3869  -2.3795  -2.3323  -2.3144  -2.2238  -1.6233
    -1.5721  -1.5552  -1.4661  -1.3389  -1.2034  -1.1905  -1.1754  -1.1207
    -1.0615  -1.0560  -0.9971  -0.9825  -0.8100  -0.7619  -0.7479  -0.6971
    -0.6135  -0.5770  -0.4971  -0.4188  -0.3802  -0.3611  -0.1810  -0.1341
    -0.1153  -0.1147  -0.1119  -0.0361  -0.0267  -0.0171   0.0351   0.0862
     0.4622   0.4814   0.5396   0.5942   0.6222   0.6848   0.7287   0.7965
     0.8029   0.8697   0.9029   0.9586   1.0268   1.0507   1.0510   1.1297
     1.1535   1.2859   1.3184   1.4462   1.4842   1.5488   1.5634   1.5729
     1.6277   1.7295   1.7898   2.2071   2.4957   2.5996   2.6232   5.6456
     5.8327   5.8473   6.0459   6.1229   6.2314   7.1362   7.1492   7.2290
     7.2408   7.3147   7.3376   7.5113   7.6313   8.0231   8.0846   8.1774
     8.3334   8.4418

          k = 0.0000 0.3844 0.0000 ( 38732 PWs)   bands (ev):

   -38.8486 -38.7721 -23.3622 -23.3497 -23.2820 -23.2055 -19.3860 -19.3075
   -19.1699 -19.1016 -18.8488 -18.7729 -15.5770 -15.5399 -15.4561 -15.3916
   -15.1620 -15.1162 -14.9158 -14.8213 -14.7834 -14.7691 -14.7545 -14.3982
   -14.3799 -14.2915 -13.3325  -8.7054  -8.6142  -8.5991  -8.5501  -8.5390
    -8.4732  -8.3970  -8.2302  -8.2181  -8.1692  -8.0650  -8.0625  -3.7033
    -3.6730  -3.5142  -3.4417  -3.2804  -3.2655  -3.2624  -2.6298  -2.6257
    -2.4308  -2.4170  -2.3773  -2.3683  -2.3085  -2.2941  -2.2375  -1.9325
    -1.7760  -1.6023  -1.5677  -1.5397  -1.5338  -1.4818  -1.4727  -1.4176
    -1.3029  -1.2983  -1.1437  -1.0953  -1.0321  -1.0058  -0.9915  -0.9399
    -0.8294  -0.8142  -0.7971  -0.7057  -0.4427  -0.3148  -0.2490  -0.1430
    -0.1210  -0.1056  -0.0911  -0.0861  -0.0316   0.0089   0.2555   0.3265
     0.5308   0.5757   0.6475   0.6796   0.7007   0.7250   0.7444   0.7577
     0.8580   0.8723   0.9402   1.0196   1.1531   1.2007   1.2380   1.2478
     1.3411   1.3839   1.3959   1.5116   1.5303   1.7149   1.7690   1.8354
     1.9564   1.9720   2.0435   2.1761   2.4980   2.5783   2.6681   6.4973
     6.6609   6.7167   6.8502   6.9213   7.0392   7.1279   7.2023   7.8487
     7.8605   7.9903   8.0273   8.0937   8.1850   8.2844   8.3471   8.4286
     8.4894   8.9245

          k = 0.0000-0.5125 0.0000 ( 38850 PWs)   bands (ev):

   -38.8463 -38.7697 -23.3392 -23.3267 -23.2624 -23.1830 -19.4620 -19.3836
   -19.1267 -19.0583 -18.8455 -18.7696 -15.5326 -15.4791 -15.4466 -15.4091
   -15.2358 -15.1725 -14.9437 -14.8096 -14.7696 -14.7613 -14.7320 -14.3670
   -14.3485 -14.2769 -13.3971  -8.6948  -8.5978  -8.5822  -8.5616  -8.5507
    -8.4520  -8.4212  -8.1831  -8.1709  -8.1652  -8.0288  -8.0177  -3.8466
    -3.8184  -3.6567  -3.5739  -3.5190  -3.4971  -3.4968  -2.6645  -2.6610
    -2.4902  -2.4309  -2.3313  -2.2676  -2.2348  -2.2247  -2.1685  -2.0546
    -1.8465  -1.7700  -1.7117  -1.6998  -1.6699  -1.6648  -1.4072  -1.4029
    -1.3527  -1.2839  -1.2392  -1.1821  -1.1301  -1.0929  -1.0783  -1.0526
    -1.0250  -0.9925  -0.8309  -0.7711  -0.4780  -0.2292  -0.1745  -0.1653
    -0.1510  -0.1499  -0.0851  -0.0796  -0.0477   0.0149   0.3472   0.3791
     0.5689   0.5862   0.6553   0.6666   0.7328   0.7339   0.7966   0.8135
     0.8245   0.8297   0.8972   0.9362   1.2281   1.3022   1.3136   1.3210
     1.3340   1.3919   1.4346   1.6383   1.6954   1.8198   1.8392   2.0815
     2.0987   2.1188   2.1345   2.2083   2.3623   2.4576   2.5899   7.0059
     7.0757   7.0852   7.1476   7.1598   7.2122   7.2262   7.5336   7.6586
     8.0221   8.1979   8.2386   8.3766   8.4877   8.4922   8.5031   8.5219
     8.8672   8.9276

          k = 0.1250 0.0000 0.0000 ( 38782 PWs)   bands (ev):

   -38.8604 -38.7838 -23.4729 -23.4606 -23.3772 -23.3139 -19.3627 -19.2947
   -18.9675 -18.8927 -18.8562 -18.7760 -16.0710 -16.0194 -15.2530 -15.2030
   -15.0235 -15.0129 -14.9545 -14.9098 -14.9007 -14.7399 -14.6833 -14.4737
   -14.4606 -14.2235 -13.0070  -8.7581  -8.7220  -8.7036  -8.5702  -8.4485
    -8.4367  -8.4224  -8.4108  -8.2669  -8.2494  -8.2274  -8.1550  -2.9027
    -2.8603  -2.8143  -2.7384  -2.7361  -2.6887  -2.5630  -2.5484  -2.5197
    -2.4803  -2.4778  -2.4219  -2.2793  -1.6087  -1.5465  -1.1659  -1.1492
    -1.1438  -1.0576  -0.9904  -0.8796  -0.8623  -0.8597  -0.8486  -0.7989
    -0.7714  -0.7700  -0.7358  -0.6027  -0.5476  -0.5128  -0.4972  -0.3562
    -0.3063  -0.2898  -0.2400  -0.2299  -0.2103  -0.1989  -0.1695  -0.1619
    -0.1547  -0.0866  -0.0739  -0.0639  -0.0526  -0.0498  -0.0257  -0.0157
     0.1869   0.2414   0.2876   0.3217   0.3287   0.5212   0.5290   0.5454
     0.5641   0.5744   0.6331   0.7383   0.7611   0.8058   0.8711   0.9954
     1.0127   1.1502   1.2848   1.3264   1.4172   1.4249   1.4930   1.5688
     1.5898   1.8247   1.8279   1.9247   1.9701   2.0037   2.1163   4.6924
     4.7748   4.7864   5.3649   5.4078   5.8037   6.1935   6.2111   6.3542
     6.4381   6.9048   7.0263   7.4124   7.4859   7.5960   7.7911   7.8557
     8.1661   8.1805

          k = 0.1250 0.1281 0.0000 ( 38802 PWs)   bands (ev):

   -38.8580 -38.7815 -23.4521 -23.4397 -23.3592 -23.2935 -19.3272 -19.2592
   -18.9716 -18.9508 -18.8953 -18.8727 -15.9631 -15.9123 -15.2510 -15.1991
   -15.0196 -15.0094 -14.9239 -14.8909 -14.8725 -14.7933 -14.7375 -14.4734
   -14.4590 -14.2461 -13.0568  -8.7466  -8.7093  -8.6933  -8.5966  -8.5844
    -8.5554  -8.4187  -8.3531  -8.2986  -8.2870  -8.1316  -8.0488  -3.0051
    -2.9692  -2.9581  -2.8743  -2.7672  -2.7235  -2.6136  -2.5779  -2.5517
    -2.5307  -2.4012  -2.3332  -2.2786  -1.6858  -1.6688  -1.6371  -1.5143
    -1.4568  -1.3733  -1.3284  -1.1646  -1.1478  -1.0673  -1.0365  -0.9393
    -0.8276  -0.8188  -0.7071  -0.6226  -0.6077  -0.5381  -0.5262  -0.4310
    -0.4190  -0.3862  -0.3528  -0.2674  -0.2576  -0.2147  -0.2113  -0.1715
    -0.1222  -0.1168  -0.1081  -0.1012   0.0120   0.0133   0.1324   0.1616
     0.2534   0.3062   0.3950   0.4389   0.4565   0.4746   0.5144   0.5693
     0.5736   0.7159   0.7571   0.7872   0.8351   0.8539   0.9043   1.1277
     1.1394   1.1827   1.1930   1.2028   1.3022   1.5033   1.6360   1.7379
     1.8668   1.9305   2.0766   2.1295   2.1453   2.2985   2.3144   5.0019
     5.0883   5.0996   5.5665   5.6233   5.9357   6.5054   6.5231   6.6401
     6.7389   7.1250   7.2325   7.3197   7.4032   7.7562   7.9242   7.9750
     8.2290   8.3045

          k = 0.1250 0.2563 0.0000 ( 38854 PWs)   bands (ev):

   -38.8525 -38.7759 -23.4010 -23.3885 -23.3150 -23.2433 -19.2374 -19.1836
   -19.1691 -19.1046 -18.9518 -18.8769 -15.7170 -15.6697 -15.2968 -15.2383
   -15.0473 -15.0273 -14.8918 -14.8669 -14.8385 -14.8257 -14.7959 -14.4480
   -14.4313 -14.2826 -13.1787  -8.7224  -8.7200  -8.7078  -8.6547  -8.6404
    -8.5391  -8.5120  -8.4313  -8.2546  -8.2429  -8.0957  -8.0112  -3.4419
    -3.3979  -3.2336  -3.1664  -2.7458  -2.7345  -2.6759  -2.6233  -2.6070
    -2.5649  -2.5368  -2.4465  -2.4341  -2.3243  -2.2495  -2.2150  -1.7229
    -1.6626  -1.5639  -1.5216  -1.5096  -1.4975  -1.4557  -1.3933  -1.3538
    -1.0005  -0.9907  -0.9297  -0.8933  -0.7959  -0.7479  -0.7415  -0.6909
    -0.5138  -0.5068  -0.4499  -0.3425  -0.3157  -0.3098  -0.2205  -0.2080
    -0.1757  -0.1183  -0.0827  -0.0681  -0.0174   0.0301   0.2444   0.2884
     0.4824   0.5042   0.5313   0.6065   0.6181   0.7142   0.7154   0.7349
     0.7525   0.8562   0.9124   0.9276   1.0054   1.0106   1.1395   1.1432
     1.1613   1.2009   1.3139   1.5190   1.5331   1.6066   1.7063   1.9754
     2.0245   2.0841   2.1945   2.3079   2.4945   2.6068   2.6294   5.7266
     5.8858   5.9008   6.1503   6.2204   6.3350   7.0897   7.1736   7.3401
     7.3512   7.3945   7.5610   7.6760   7.7925   7.9613   8.0427   8.2241
     8.3335   8.3948

          k = 0.1250 0.3844 0.0000 ( 38857 PWs)   bands (ev):

   -38.8469 -38.7703 -23.3484 -23.3360 -23.2699 -23.1918 -19.3800 -19.3014
   -19.1406 -19.0720 -18.9419 -18.8670 -15.4711 -15.4405 -15.4163 -15.3415
   -15.1294 -15.0925 -14.8958 -14.8814 -14.8446 -14.7493 -14.7444 -14.3942
   -14.3760 -14.2854 -13.3011  -8.7245  -8.7138  -8.6992  -8.6243  -8.6097
    -8.5619  -8.4798  -8.3906  -8.3026  -8.2907  -8.1398  -8.0854  -3.8240
    -3.7839  -3.5601  -3.4893  -3.2701  -3.2551  -3.2503  -2.6646  -2.6557
    -2.5524  -2.4883  -2.4730  -2.4594  -2.3235  -2.2763  -2.2580  -1.9855
    -1.9660  -1.9628  -1.8832  -1.7820  -1.6874  -1.5588  -1.3908  -1.3317
    -1.1851  -1.1796  -1.1587  -1.1375  -1.0162  -0.9926  -0.9451  -0.9333
    -0.6299  -0.6076  -0.5224  -0.4903  -0.3727  -0.2328  -0.2239  -0.1720
    -0.1136  -0.1097  -0.0997  -0.0629  -0.0318   0.0301   0.3497   0.4081
     0.5329   0.5752   0.6662   0.7194   0.7422   0.7899   0.8034   0.8440
     0.8697   0.8746   0.9831   1.0812   1.1559   1.1780   1.1949   1.1965
     1.4486   1.5270   1.5379   1.7978   1.9300   1.9461   2.0052   2.0208
     2.0325   2.0606   2.2316   2.3028   2.4970   2.6080   2.6831   6.5019
     6.5834   6.6181   6.7694   6.7980   6.9630   7.0622   7.1659   7.8053
     7.8882   7.8984   7.9381   8.2111   8.3238   8.4125   8.4687   8.5104
     8.6938   8.9989

          k = 0.1250-0.5125 0.0000 ( 38824 PWs)   bands (ev):

   -38.8446 -38.7680 -23.3263 -23.3138 -23.2509 -23.1701 -19.4556 -19.3772
   -19.0981 -19.0294 -18.9378 -18.8629 -15.4922 -15.4378 -15.3292 -15.2909
   -15.1982 -15.1428 -14.9140 -14.8701 -14.8307 -14.7383 -14.7132 -14.3657
   -14.3472 -14.2758 -13.3513  -8.6991  -8.6907  -8.6882  -8.6103  -8.5952
    -8.5499  -8.4660  -8.3507  -8.3386  -8.3019  -8.1868  -8.1788  -3.9720
    -3.9337  -3.7057  -3.6283  -3.5100  -3.4926  -3.4909  -2.6811  -2.6750
    -2.4981  -2.4238  -2.3723  -2.3442  -2.3236  -2.3221  -2.2508  -2.1669
    -2.1275  -2.1162  -2.1110  -1.8644  -1.7333  -1.6157  -1.3426  -1.3119
    -1.2619  -1.2600  -1.2233  -1.1725  -1.1038  -1.0833  -1.0293  -1.0039
    -0.6757  -0.6375  -0.6085  -0.5621  -0.4757  -0.2268  -0.2100  -0.1421
    -0.1286  -0.0985  -0.0866  -0.0278   0.0166   0.0245   0.4459   0.4801
     0.5786   0.6453   0.6700   0.7015   0.7195   0.8134   0.8350   0.8381
     0.8472   0.8503   0.9386   1.1178   1.2366   1.2577   1.2796   1.3796
     1.4182   1.8130   1.8323   1.9733   1.9901   2.0186   2.0618   2.0978
     2.1135   2.1676   2.2012   2.2038   2.3795   2.5180   2.6109   6.7476
     6.8108   6.8792   6.9051   6.9584   7.0852   7.1700   7.6126   7.6202
     8.0075   8.3925   8.4157   8.4496   8.6208   8.6468   8.6885   8.7258
     8.7824   8.8568

          k = 0.2500 0.0000 0.0000 ( 38902 PWs)   bands (ev):

   -38.8560 -38.7794 -23.4278 -23.4153 -23.3402 -23.2698 -19.2812 -19.2123
   -19.1821 -19.1094 -18.8501 -18.7700 -15.8073 -15.7531 -15.3607 -15.3171
   -15.1424 -15.1214 -15.0216 -14.8988 -14.8640 -14.7755 -14.7126 -14.4684
   -14.4540 -14.2383 -13.1858  -8.7347  -8.7327  -8.7132  -8.5963  -8.3784
    -8.3668  -8.3371  -8.3254  -8.2093  -8.1678  -8.1446  -8.0877  -3.2063
    -3.1712  -3.1311  -3.0360  -2.6037  -2.6005  -2.5962  -2.5453  -2.4829
    -2.4471  -2.3973  -2.3209  -2.3194  -1.6904  -1.6403  -1.3612  -1.2877
    -1.2500  -1.2472  -1.2363  -1.1590  -1.1438  -1.1387  -1.1244  -1.0683
    -1.0603  -0.8745  -0.8171  -0.7624  -0.5932  -0.5387  -0.5127  -0.5046
    -0.4584  -0.4291  -0.4215  -0.2595  -0.2432  -0.2394  -0.1901  -0.1765
    -0.0753  -0.0438  -0.0396  -0.0212  -0.0055   0.0214   0.0505   0.0878
     0.1129   0.1611   0.1785   0.3773   0.3916   0.5296   0.5782   0.6112
     0.6215   0.6793   0.7010   0.8372   0.8672   0.8822   0.8898   0.9442
     0.9780   0.9932   1.3071   1.3178   1.3582   1.3582   1.4828   1.5177
     1.6736   1.8059   1.8486   1.9373   2.0454   2.1382   2.2460   5.1484
     5.2131   5.2251   5.9118   5.9978   6.1542   6.8269   6.8512   6.9495
     7.1870   7.3668   7.3870   7.4393   7.4900   8.0203   8.1529   8.1826
     8.4018   8.4785

          k = 0.2500 0.1281 0.0000 ( 38874 PWs)   bands (ev):

   -38.8537 -38.7771 -23.4088 -23.3964 -23.3235 -23.2511 -19.2471 -19.1781
   -19.1763 -19.1036 -18.9502 -18.8704 -15.7019 -15.6491 -15.3345 -15.2879
   -15.1149 -15.0975 -14.9828 -14.8747 -14.8413 -14.8380 -14.7745 -14.4581
   -14.4432 -14.2435 -13.1894  -8.7400  -8.7295  -8.7190  -8.6242  -8.6114
    -8.6014  -8.4413  -8.3979  -8.2244  -8.2128  -8.0708  -7.9793  -3.3506
    -3.2979  -3.1712  -3.0870  -2.6982  -2.6876  -2.6750  -2.6340  -2.5789
    -2.5726  -2.3118  -2.3027  -2.2316  -1.7320  -1.6844  -1.6744  -1.6702
    -1.6627  -1.5713  -1.5256  -1.5245  -1.4866  -1.3841  -1.3424  -1.0752
    -0.9629  -0.9059  -0.7691  -0.6941  -0.5978  -0.5544  -0.5270  -0.4657
    -0.4591  -0.4416  -0.3985  -0.3435  -0.3213  -0.2913  -0.2303  -0.2169
    -0.1919  -0.1305  -0.0121   0.0095   0.0229   0.1176   0.1420   0.1583
     0.3055   0.3402   0.4747   0.5271   0.5425   0.6053   0.6227   0.6666
     0.7026   0.7294   0.7998   0.8090   0.8175   0.8508   0.8967   1.0335
     1.0423   1.0953   1.2260   1.2395   1.2578   1.3298   1.7678   2.0403
     2.0755   2.1398   2.1925   2.2698   2.3136   2.3772   2.4047   5.3729
     5.4536   5.4670   6.0456   6.1263   6.2783   7.0746   7.1119   7.1554
     7.2044   7.2325   7.4669   7.6149   7.7139   8.0656   8.1166   8.1875
     8.2936   8.3241

          k = 0.2500 0.2563 0.0000 ( 38887 PWs)   bands (ev):

   -38.8482 -38.7716 -23.3623 -23.3499 -23.2824 -23.2053 -19.1839 -19.1611
   -19.1463 -19.1073 -19.0916 -19.0713 -15.4666 -15.4234 -15.2886 -15.2253
   -15.0611 -15.0488 -14.9845 -14.9319 -14.8880 -14.8175 -14.7594 -14.4261
   -14.4096 -14.2562 -13.2029  -8.9262  -8.9146  -8.7453  -8.7034  -8.6733
    -8.6593  -8.6470  -8.5277  -8.3217  -8.3100  -8.1692  -8.0693  -3.7738
    -3.7148  -3.3944  -3.3152  -2.8327  -2.8177  -2.8002  -2.7400  -2.6760
    -2.6685  -2.5510  -2.4545  -2.4424  -2.2675  -2.2105  -2.1649  -2.0973
    -2.0791  -2.0486  -1.9666  -1.5577  -1.5180  -1.4888  -1.4121  -1.3163
    -1.0624  -1.0329  -0.9043  -0.8630  -0.8231  -0.8009  -0.7609  -0.7260
    -0.7178  -0.6081  -0.4958  -0.3038  -0.1778  -0.1658  -0.1276  -0.0464
     0.0001   0.0213   0.0607   0.0695   0.1670   0.1848   0.5192   0.5517
     0.5867   0.6066   0.6369   0.6710   0.6873   0.6906   0.7050   0.7567
     0.7803   0.8026   0.8243   0.8927   1.0995   1.1000   1.1597   1.2400
     1.2590   1.3410   1.3554   1.4443   1.4552   1.5465   1.9940   2.1066
     2.4902   2.5734   2.6001   2.6507   2.6840   2.8386   2.8715   5.9117
     5.9688   5.9792   6.3913   6.4199   6.6842   6.8881   6.9922   7.5956
     7.6334   7.6394   7.9754   8.0590   8.0857   8.1262   8.1742   8.3441
     8.4300   8.4524

          k = 0.2500 0.3844 0.0000 ( 38919 PWs)   bands (ev):

   -38.8426 -38.7660 -23.3148 -23.3023 -23.2405 -23.1584 -19.3655 -19.2869
   -19.1468 -19.0736 -19.0654 -18.9962 -15.3407 -15.3003 -15.2247 -15.1496
   -15.0468 -15.0295 -15.0259 -14.9943 -14.8352 -14.7267 -14.7019 -14.3830
   -14.3650 -14.2682 -13.2232  -9.0328  -9.0214  -8.8534  -8.7238  -8.6856
    -8.6519  -8.6375  -8.5585  -8.5467  -8.5122  -8.3893  -8.3157  -4.1869
    -4.1305  -3.7434  -3.6672  -3.2433  -3.2283  -3.2194  -2.8636  -2.8428
    -2.7821  -2.7186  -2.5679  -2.5612  -2.5561  -2.5286  -2.3354  -2.2866
    -2.2713  -2.0486  -1.9893  -1.5993  -1.5665  -1.5239  -1.4281  -1.4012
    -1.2813  -1.2178  -1.0660  -1.0520  -1.0338  -0.9904  -0.9807  -0.8206
    -0.7794  -0.6686  -0.5274  -0.2865  -0.1120  -0.0690  -0.0274   0.0163
     0.0840   0.1200   0.1961   0.2777   0.3306   0.3812   0.5683   0.5879
     0.5989   0.6328   0.7342   0.8227   0.8574   0.8986   0.9021   0.9556
     1.0307   1.0583   1.1045   1.1075   1.1719   1.1932   1.2702   1.3229
     1.5377   1.5388   1.7849   1.8645   1.8797   1.9007   1.9850   2.0255
     2.4475   2.5069   2.6287   2.9250   2.9589   3.1146   3.1382   6.1220
     6.1434   6.2957   6.3992   6.4529   7.0079   7.2144   7.3804   7.7434
     7.7755   7.9895   8.0109   8.3666   8.5146   8.5911   8.6710   8.8844
     8.9766   8.9947

          k = 0.2500-0.5125 0.0000 ( 38962 PWs)   bands (ev):

   -38.8403 -38.7637 -23.2947 -23.2822 -23.2229 -23.1387 -19.4400 -19.3615
   -19.1410 -19.0677 -19.0248 -18.9554 -15.3900 -15.3325 -15.1038 -15.0697
   -15.0656 -15.0303 -15.0200 -14.9771 -14.8371 -14.6828 -14.6716 -14.3623
   -14.3438 -14.2733 -13.2334  -9.0173  -9.0062  -8.8500  -8.7180  -8.7060
    -8.6842  -8.6377  -8.6279  -8.6225  -8.5401  -8.5350  -8.4892  -4.3492
    -4.2940  -3.9005  -3.8234  -3.4831  -3.4710  -3.4668  -2.8583  -2.8356
    -2.7418  -2.7290  -2.6893  -2.6780  -2.5546  -2.5449  -2.4476  -2.4015
    -2.2732  -2.0485  -1.9948  -1.6062  -1.5791  -1.5475  -1.4312  -1.3780
    -1.3772  -1.3038  -1.1343  -1.1093  -1.1083  -1.0633  -1.0279  -0.8240
    -0.7973  -0.6777  -0.5338  -0.2765  -0.0867  -0.0518  -0.0051   0.0252
     0.0683   0.1244   0.2019   0.2970   0.4604   0.5103   0.6424   0.6511
     0.6778   0.7189   0.8112   0.8625   0.8899   0.9407   0.9572   1.0056
     1.0072   1.0815   1.1038   1.1544   1.1779   1.3488   1.3694   1.5925
     1.6255   1.8078   1.8271   1.9357   2.0317   2.0431   2.0587   2.1670
     2.2882   2.3622   2.5580   2.9826   3.0177   3.1703   3.1929   6.0798
     6.0964   6.3011   6.3336   6.4002   7.2275   7.3716   7.5010   7.8264
     8.1053   8.3944   8.5918   8.6052   8.6279   8.7180   8.8731   8.9781
     9.0299   9.0519

          k = 0.3750 0.0000 0.0000 ( 38920 PWs)   bands (ev):

   -38.8516 -38.7750 -23.3815 -23.3690 -23.3025 -23.2245 -19.3714 -19.2998
   -19.1925 -19.1228 -18.8440 -18.7639 -15.5565 -15.5265 -15.4974 -15.4257
   -15.2739 -15.2360 -15.1234 -14.8831 -14.8625 -14.7690 -14.7024 -14.4569
   -14.4420 -14.2420 -13.3551  -8.7343  -8.7233  -8.6986  -8.5969  -8.3191
    -8.3077  -8.2478  -8.2360  -8.1784  -8.0827  -8.0679  -8.0182  -3.5323
    -3.4924  -3.3957  -3.3089  -2.6720  -2.6697  -2.4408  -2.3949  -2.3839
    -2.3571  -2.3484  -2.3191  -2.2790  -1.7017  -1.6654  -1.6564  -1.6307
    -1.6274  -1.4631  -1.4448  -1.4207  -1.3802  -1.2911  -1.2842  -1.1371
    -1.1204  -0.9673  -0.9068  -0.9029  -0.8566  -0.8307  -0.7665  -0.6482
    -0.5048  -0.4319  -0.3759  -0.3169  -0.2347  -0.2141  -0.2035  -0.1898
    -0.0894   0.0165   0.0211   0.0366   0.0526   0.0751   0.0944   0.1110
     0.1430   0.2035   0.2142   0.3950   0.4176   0.4509   0.6592   0.6842
     0.7090   0.7753   0.7763   0.8215   0.8522   0.8743   1.0418   1.0882
     1.1250   1.1298   1.1948   1.2115   1.2342   1.2497   1.4572   1.5447
     1.5627   1.8273   1.8626   1.9804   2.0574   2.2420   2.3296   5.7835
     5.8496   5.8618   6.5125   6.5226   6.8176   7.3228   7.3388   7.3617
     7.3945   7.4213   7.7704   7.7917   8.0251   8.1497   8.2077   8.2877
     8.3587   8.7078

          k = 0.3750 0.1281 0.0000 ( 38880 PWs)   bands (ev):

   -38.8493 -38.7727 -23.3645 -23.3520 -23.2870 -23.2077 -19.3641 -19.2924
   -19.1595 -19.0898 -18.9424 -18.8626 -15.4920 -15.4681 -15.4175 -15.3368
   -15.2213 -15.1931 -15.0747 -14.8540 -14.8364 -14.8318 -14.7677 -14.4406
   -14.4254 -14.2354 -13.3201  -8.7351  -8.7223  -8.6968  -8.6010  -8.5658
    -8.5541  -8.3935  -8.3234  -8.2804  -8.2688  -8.1338  -8.0331  -3.6847
    -3.6311  -3.4474  -3.3648  -2.7126  -2.6990  -2.6394  -2.6021  -2.5081
    -2.4699  -2.3394  -2.2579  -2.1822  -2.0121  -1.9810  -1.9497  -1.8868
    -1.7147  -1.6800  -1.6672  -1.5567  -1.5024  -1.4966  -1.4141  -1.2422
    -1.1892  -0.9364  -0.8425  -0.7830  -0.6659  -0.6499  -0.6103  -0.5499
    -0.5256  -0.5005  -0.4891  -0.4066  -0.3464  -0.2734  -0.2694  -0.1790
    -0.1025  -0.0833  -0.0674   0.0851   0.1005   0.1967   0.2100   0.2142
     0.3860   0.4324   0.4946   0.5717   0.5752   0.6201   0.6671   0.6916
     0.7433   0.7535   0.8653   0.9143   0.9265   0.9756   1.0655   1.0897
     1.0951   1.1222   1.1470   1.1706   1.2492   1.3162   1.5365   2.0941
     2.1504   2.1965   2.2192   2.3022   2.3311   2.5234   2.5517   5.9278
     5.9735   5.9845   6.5794   6.6108   6.9133   6.9752   7.0737   7.4175
     7.4359   7.4573   7.9048   8.0908   8.1890   8.1983   8.2489   8.2765
     8.4364   8.7321

          k = 0.3750 0.2563 0.0000 ( 38879 PWs)   bands (ev):

   -38.8438 -38.7672 -23.3229 -23.3104 -23.2492 -23.1665 -19.3466 -19.2748
   -19.1576 -19.0785 -19.0763 -19.0063 -15.3748 -15.3468 -15.2251 -15.1626
   -15.0776 -15.0449 -15.0008 -14.9381 -14.9353 -14.7867 -14.7472 -14.4032
   -14.3870 -14.2293 -13.2331  -8.9753  -8.9636  -8.7988  -8.7105  -8.6917
    -8.6786  -8.6667  -8.5492  -8.5451  -8.5375  -8.3928  -8.2897  -4.1281
    -4.0644  -3.6769  -3.5938  -2.9024  -2.8823  -2.8234  -2.7802  -2.6806
    -2.6740  -2.5758  -2.5344  -2.5107  -2.4610  -2.4477  -2.3237  -2.2968
    -2.2718  -1.9748  -1.9048  -1.5462  -1.4949  -1.4501  -1.3875  -1.2769
    -1.1878  -1.1773  -0.9737  -0.9137  -0.8826  -0.8565  -0.8156  -0.7401
    -0.7182  -0.6163  -0.5297  -0.3320  -0.1444  -0.0191   0.0183   0.0308
     0.1751   0.2113   0.2831   0.2973   0.3561   0.3967   0.5664   0.5975
     0.5987   0.6334   0.7092   0.7333   0.7494   0.7763   0.8038   0.8882
     0.9361   0.9711   0.9794   1.0064   1.1376   1.1421   1.2844   1.2938
     1.3141   1.3426   1.3540   1.3592   1.4249   1.4684   1.9417   2.0561
     2.4901   2.5777   2.6121   3.0431   3.0682   3.1885   3.2140   5.9361
     5.9576   6.0774   6.3930   6.4415   6.9414   7.0898   7.2942   7.5539
     7.6707   7.6751   7.7719   8.3737   8.4501   8.4674   8.5144   8.6641
     8.8419   8.8652

          k = 0.3750 0.3844 0.0000 ( 38979 PWs)   bands (ev):

   -38.8383 -38.7617 -23.2805 -23.2680 -23.2107 -23.1245 -19.3522 -19.3263
   -19.2742 -19.2537 -18.9870 -18.9168 -15.2697 -15.2297 -15.1640 -15.1120
   -15.0681 -15.0377 -14.9049 -14.8515 -14.7602 -14.7268 -14.6675 -14.3700
   -14.3523 -14.2477 -13.1419  -9.2417  -9.2301  -9.0565  -8.9317  -8.8780
    -8.8663  -8.7002  -8.6857  -8.6796  -8.6620  -8.6335  -8.5378  -4.5805
    -4.5175  -4.0377  -3.9570  -3.2154  -3.2003  -3.1885  -2.9959  -2.9796
    -2.9702  -2.9296  -2.9142  -2.8647  -2.5694  -2.5669  -2.4631  -2.4158
    -2.2789  -1.8238  -1.7707  -1.6383  -1.5868  -1.4504  -1.4241  -1.3976
    -1.3407  -1.2535  -1.2327  -1.1700  -1.1051  -1.0861  -1.0416  -0.6754
    -0.6695  -0.5534  -0.5508  -0.2779  -0.0077   0.1319   0.2821   0.2985
     0.3152   0.3314   0.5044   0.6466   0.7000   0.7261   0.7383   0.7516
     0.7935   0.8622   0.8716   0.9280   0.9366   0.9568   1.0135   1.0198
     1.0307   1.1080   1.1631   1.2392   1.2652   1.2688   1.4533   1.5494
     1.5692   1.7256   1.7857   1.7919   1.8012   1.9158   1.9247   2.1659
     2.4323   2.5067   2.6423   3.5840   3.6130   3.6987   3.7162   5.5778
     5.5926   5.8240   6.0829   6.1738   7.1662   7.4424   7.5558   7.6995
     7.9880   8.1939   8.2369   8.2729   8.3419   8.6561   8.7437   8.8738
     8.9410   8.9704

          k = 0.3750-0.5125 0.0000 ( 39018 PWs)   bands (ev):

   -38.8360 -38.7594 -23.2627 -23.2502 -23.1945 -23.1068 -19.4245 -19.3459
   -19.3209 -19.2489 -18.9479 -18.8775 -15.2795 -15.2173 -15.1748 -15.1384
   -15.0049 -14.9951 -14.8234 -14.7809 -14.7430 -14.6443 -14.6281 -14.3586
   -14.3401 -14.2708 -13.1028  -9.3206  -9.3092  -9.1389  -9.0333  -9.0213
    -8.9527  -8.8558  -8.8399  -8.6784  -8.6750  -8.6525  -8.5332  -4.7613
    -4.6991  -4.2028  -4.1229  -3.4537  -3.4439  -3.4381  -3.1108  -3.0684
    -3.0112  -2.9973  -2.9254  -2.8742  -2.5649  -2.5629  -2.5107  -2.4647
    -2.2616  -1.8450  -1.7979  -1.5951  -1.5443  -1.5094  -1.4815  -1.4791
    -1.3527  -1.3252  -1.3033  -1.2313  -1.1867  -1.1692  -1.1256  -0.6398
    -0.6369  -0.5548  -0.5153  -0.2524   0.0262   0.1487   0.3416   0.3570
     0.3933   0.4413   0.5802   0.7544   0.7580   0.7685   0.7840   0.8266
     0.9314   0.9378   0.9747   0.9755   1.0149   1.0353   1.0819   1.1750
     1.1877   1.2307   1.2315   1.2892   1.3226   1.3466   1.4314   1.7787
     1.8267   1.8456   1.9822   1.9979   2.0257   2.0546   2.0637   2.1110
     2.2621   2.3518   2.5725   3.7457   3.7770   3.8666   3.8823   5.3824
     5.3953   5.6524   5.9802   6.0851   7.3251   7.3600   7.5733   7.7585
     8.2799   8.3716   8.3932   8.5122   8.5706   8.6886   8.7663   8.7895
     8.8208   9.0027

          k =-0.5000 0.0000 0.0000 ( 38882 PWs)   bands (ev):

   -38.8498 -38.7732 -23.3620 -23.3495 -23.2867 -23.2055 -19.4435 -19.3723
   -19.1542 -19.0841 -18.8415 -18.7613 -15.5949 -15.5641 -15.3807 -15.3577
   -15.3165 -15.2990 -15.1696 -14.8920 -14.8854 -14.7577 -14.6905 -14.4511
   -14.4361 -14.2412 -13.4223  -8.7336  -8.7219  -8.6873  -8.5919  -8.2963
    -8.2850  -8.2095  -8.1977  -8.1714  -8.0462  -8.0375  -7.9887  -3.6557
    -3.6168  -3.5109  -3.4251  -2.6986  -2.6966  -2.4036  -2.3895  -2.3850
    -2.3628  -2.3056  -2.1401  -2.0963  -1.9414  -1.9078  -1.7572  -1.5955
    -1.5766  -1.5553  -1.5443  -1.5395  -1.4505  -1.3868  -1.3803  -1.1467
    -1.1312  -1.1145  -1.0958  -0.9860  -0.8855  -0.8479  -0.8447  -0.7058
    -0.5028  -0.4609  -0.3367  -0.2769  -0.2228  -0.2091  -0.2034  -0.1953
    -0.0952   0.0315   0.0344   0.0472   0.0867   0.1002   0.1157   0.1185
     0.1357   0.1367   0.2217   0.3186   0.5467   0.5753   0.7002   0.7067
     0.7244   0.7409   0.7619   0.7930   0.8582   0.9014   0.9554   1.1647
     1.1725   1.1733   1.1940   1.2287   1.2923   1.3618   1.3653   1.5302
     1.5444   1.8163   1.8427   1.9820   2.0471   2.2556   2.3362   6.5472
     6.5572   6.5802   6.6886   6.7033   6.7177   6.7927   6.8879   7.3050
     7.3612   7.3764   7.6952   7.9433   8.0337   8.4379   8.5281   8.5910
     8.6961   8.7301

          k =-0.5000 0.1281 0.0000 ( 38856 PWs)   bands (ev):

   -38.8475 -38.7709 -23.3458 -23.3333 -23.2718 -23.1894 -19.4357 -19.3645
   -19.1219 -19.0517 -18.9391 -18.8593 -15.5462 -15.5147 -15.3081 -15.2647
   -15.2591 -15.2004 -15.1188 -14.8613 -14.8546 -14.8244 -14.7567 -14.4328
   -14.4176 -14.2308 -13.3733  -8.7294  -8.7168  -8.6857  -8.5894  -8.4315
    -8.4209  -8.4201  -8.4090  -8.2951  -8.2516  -8.1756  -8.1740  -3.8137
    -3.7609  -3.5709  -3.4885  -2.7234  -2.7145  -2.6291  -2.5895  -2.3990
    -2.2828  -2.2694  -2.2668  -2.2459  -2.2231  -2.1785  -2.1069  -2.0368
    -1.6932  -1.6876  -1.6714  -1.5808  -1.4806  -1.4293  -1.4260  -1.3055
    -1.2958  -0.9119  -0.9079  -0.8325  -0.6991  -0.6777  -0.6308  -0.6242
    -0.5963  -0.5525  -0.5030  -0.4560  -0.4444  -0.2705  -0.2588  -0.1756
    -0.0851  -0.0172   0.0123   0.0781   0.0953   0.2312   0.2829   0.2974
     0.4036   0.4226   0.5484   0.5585   0.6570   0.6618   0.7107   0.7134
     0.7284   0.7597   0.8464   0.8779   0.8889   0.9313   1.1111   1.1405
     1.1515   1.1920   1.2000   1.2742   1.2797   1.3428   1.3569   2.0774
     2.1760   2.2049   2.2142   2.2953   2.3234   2.5450   2.5716   6.4128
     6.4307   6.5453   6.7335   6.8587   6.8618   6.8720   6.9831   7.0487
     7.0726   7.4667   7.6903   8.3662   8.4272   8.4680   8.5459   8.6668
     8.7109   8.8323

          k =-0.5000 0.2563 0.0000 ( 38902 PWs)   bands (ev):

   -38.8420 -38.7654 -23.3064 -23.2939 -23.2353 -23.1502 -19.4169 -19.3456
   -19.1532 -19.0740 -19.0402 -18.9698 -15.4238 -15.3900 -15.1809 -15.1543
   -15.0090 -14.9855 -14.9790 -14.9594 -14.9018 -14.7866 -14.7802 -14.3934
   -14.3774 -14.2180 -13.2471  -8.8974  -8.8857  -8.7427  -8.7312  -8.7259
    -8.6978  -8.6907  -8.6805  -8.5806  -8.5742  -8.5515  -8.5062  -4.2703
    -4.2060  -3.8132  -3.7306  -2.9194  -2.8981  -2.8096  -2.7702  -2.7300
    -2.6859  -2.6748  -2.6676  -2.4936  -2.4625  -2.4491  -2.4037  -2.3505
    -2.3152  -1.9459  -1.8760  -1.5281  -1.4776  -1.4091  -1.3074  -1.2994
    -1.2866  -1.1726  -0.9747  -0.9149  -0.9146  -0.9006  -0.8432  -0.7364
    -0.7195  -0.6099  -0.5437  -0.3465  -0.1262   0.0224   0.0477   0.0552
     0.1860   0.2556   0.3124   0.3396   0.5157   0.5565   0.5979   0.6495
     0.6578   0.6885   0.7597   0.8104   0.8349   0.8458   0.8480   0.8531
     0.8814   0.9747   1.0244   1.0779   1.1797   1.2619   1.2881   1.2976
     1.3008   1.3077   1.3156   1.3949   1.4347   1.6291   1.6890   2.0153
     2.4887   2.5743   2.6119   3.1545   3.1780   3.2832   3.3071   5.8993
     5.9156   6.1134   6.2983   6.3919   7.0850   7.2727   7.4466   7.6011
     7.7211   7.7617   7.7794   8.4246   8.4886   8.5744   8.6315   8.7140
     8.8806   8.9190

          k =-0.5000 0.3844 0.0000 ( 39038 PWs)   bands (ev):

   -38.8365 -38.7599 -23.2662 -23.2537 -23.1982 -23.1103 -19.3982 -19.3442
   -19.3267 -19.2655 -18.9526 -18.8820 -15.2950 -15.2590 -15.1588 -15.0943
   -15.0350 -15.0283 -14.8036 -14.7686 -14.7100 -14.7099 -14.6988 -14.3643
   -14.3468 -14.2382 -13.1071  -9.2910  -9.2795  -9.1071  -9.0367  -9.0248
    -8.9499  -8.8499  -8.8378  -8.6934  -8.6855  -8.6629  -8.5523  -4.7416
    -4.6774  -4.1799  -4.0991  -3.2035  -3.1885  -3.1761  -3.1141  -3.0696
    -3.0280  -3.0148  -2.9431  -2.8978  -2.5684  -2.5662  -2.5008  -2.4521
    -2.2790  -1.7381  -1.7028  -1.6815  -1.6569  -1.4218  -1.4035  -1.3862
    -1.3726  -1.3085  -1.2227  -1.1969  -1.1358  -1.1210  -1.0771  -0.6187
    -0.6077  -0.5668  -0.5020  -0.2728   0.0248   0.1728   0.4060   0.4102
     0.4604   0.5069   0.6425   0.7213   0.7283   0.7638   0.7794   0.8820
     0.8850   0.9053   0.9180   0.9645   1.0107   1.0373   1.0961   1.1146
     1.1476   1.2030   1.2033   1.2447   1.2772   1.3561   1.4268   1.5544
     1.5871   1.7478   1.7630   1.8183   1.8535   1.8660   2.0763   2.0780
     2.4300   2.5050   2.6475   3.8083   3.8359   3.9052   3.9203   5.3403
     5.3540   5.6041   5.9714   6.0775   7.2747   7.3970   7.5674   7.7394
     8.0515   8.2059   8.2941   8.4355   8.5933   8.6443   8.7492   8.7699
     8.9022   8.9389

          k =-0.5000-0.5125 0.0000 ( 39028 PWs)   bands (ev):

   -38.8343 -38.7577 -23.2493 -23.2368 -23.1827 -23.0935 -19.4180 -19.3904
   -19.3394 -19.3189 -18.9143 -18.8436 -15.2404 -15.2309 -15.2040 -15.1658
   -14.9639 -14.9630 -14.7286 -14.6854 -14.6758 -14.6600 -14.6060 -14.3568
   -14.3383 -14.2697 -13.0441  -9.4430  -9.4315  -9.2562  -9.1542  -9.1422
    -9.0884  -8.9769  -8.9571  -8.6909  -8.6882  -8.6570  -8.5490  -4.9309
    -4.8672  -4.3472  -4.2672  -3.4413  -3.4323  -3.4259  -3.2445  -3.2009
    -3.0550  -3.0428  -2.9661  -2.9192  -2.5565  -2.5549  -2.5342  -2.4871
    -2.2520  -1.7829  -1.7389  -1.6634  -1.6141  -1.5227  -1.4421  -1.4299
    -1.4208  -1.3212  -1.2967  -1.2925  -1.2189  -1.2042  -1.1623  -0.5753
    -0.5663  -0.5644  -0.4621  -0.2411   0.0618   0.1935   0.4688   0.5338
     0.6737   0.7179   0.7661   0.7829   0.7995   0.8132   0.8215   0.8313
     0.8518   0.9294   1.0297   1.0573   1.1047   1.1169   1.1456   1.3024
     1.3251   1.3312   1.3381   1.3444   1.3495   1.4662   1.5514   1.6585
     1.8469   1.8654   1.9549   1.9705   2.0394   2.0721   2.2378   2.2505
     2.2568   2.3464   2.5813   4.0218   4.0506   4.1353   4.1489   5.0921
     5.1045   5.3741   5.8610   5.9769   7.3057   7.3347   7.6632   7.6858
     8.0039   8.1927   8.4436   8.5194   8.5488   8.5524   8.7412   8.7932
     8.7955   8.9214

     the Fermi energy is     2.2509 ev

!    total energy              =   -1868.72171420 Ry
     Harris-Foulkes estimate   =   -1868.72171420 Ry
     estimated scf accuracy    <       0.00000046 Ry

     The total energy is the sum of the following terms:

     one-electron contribution =  -23145.42764100 Ry
     hartree contribution      =   11721.26833658 Ry
     xc contribution           =    -642.19967046 Ry
     ewald contribution        =   10197.64797073 Ry
     smearing contrib. (-TS)   =      -0.01071006 Ry

     convergence has been achieved in  35 iterations

     negative rho (up, down):  9.060E-02 0.000E+00

     Forces acting on atoms (cartesian axes, Ry/au):

     atom    1 type  3   force =     0.00000000    0.00000000   -0.00058193
     atom    2 type  2   force =     0.00000000    0.00000000    0.00060343
     atom    3 type  3   force =     0.00000000    0.00000000    0.00030054
     atom    4 type  1   force =     0.00000000    0.00000000   -0.00022110
     atom    5 type  2   force =     0.00000000    0.00000000   -0.00049132
     atom    6 type  3   force =     0.00000000    0.00000000    0.00127475
     atom    7 type  3   force =     0.00000000    0.00000000    0.00097935
     atom    8 type  4   force =     0.00000000    0.00000000   -0.00276219
     atom    9 type  3   force =     0.00000000    0.00000000    0.00494937
     atom   10 type  3   force =     0.00000000    0.00000000    0.00338060
     atom   11 type  2   force =     0.00000000    0.00000000   -0.00250593
     atom   12 type  1   force =     0.00000000    0.00000000    0.01658224
     atom   13 type  3   force =     0.00000000    0.00000000   -0.01925463
     atom   14 type  3   force =     0.00000000    0.00000000    0.02137661
     atom   15 type  2   force =     0.00000000    0.00000000   -0.02318209
     atom   16 type  3   force =     0.00000000    0.00000000    0.01751806
     atom   17 type  1   force =     0.00000000    0.00000000   -0.00118423
     atom   18 type  2   force =     0.00000000    0.00000000   -0.02164212
     atom   19 type  3   force =     0.00000000    0.00000000    0.00425618
     atom   20 type  3   force =     0.00000000    0.00000000    0.00306345
     atom   21 type  4   force =     0.00000000    0.00000000   -0.00099197
     atom   22 type  3   force =     0.00000000    0.00000000   -0.00057954
     atom   23 type  3   force =     0.00000000    0.00000000    0.00077455
     atom   24 type  2   force =     0.00000000    0.00000000    0.00004367
     atom   25 type  1   force =     0.00000000    0.00000000    0.00001385
     atom   26 type  3   force =     0.00000000    0.00000000   -0.00193485
     atom   27 type  2   force =     0.00000000    0.00000000    0.00000968
     atom   28 type  3   force =     0.00000000    0.00000000    0.00020555

     Total force =     0.050035     Total SCF correction =     0.002058


     Computing stress (Cartesian axis) and pressure


     negative rho (up, down):  9.060E-02 0.000E+00
          total   stress  (Ry/bohr**3)                   (kbar)     P=       -6.78
  -0.00000412   0.00000000   0.00000000           -0.61        0.00        0.00
   0.00000000  -0.00010702   0.00000000            0.00      -15.74        0.00
   0.00000000   0.00000000  -0.00002711            0.00        0.00       -3.99

 
     init_run     :      9.36s CPU     10.12s WALL (       1 calls)
     electrons    :    602.56s CPU    643.15s WALL (       1 calls)
     forces       :      3.91s CPU      4.28s WALL (       1 calls)
     stress       :     25.40s CPU     26.32s WALL (       1 calls)

     Called by init_run:
     wfcinit      :      6.56s CPU      6.78s WALL (       1 calls)
     potinit      :      0.66s CPU      0.69s WALL (       1 calls)
     hinit0       :      1.14s CPU      1.31s WALL (       1 calls)

     Called by electrons:
     c_bands      :    476.54s CPU    492.98s WALL (      35 calls)
     sum_band     :     84.27s CPU     97.84s WALL (      35 calls)
     v_of_rho     :      2.75s CPU      2.80s WALL (      36 calls)
     newd         :     20.63s CPU     31.25s WALL (      36 calls)
     mix_rho      :     18.76s CPU     18.95s WALL (      35 calls)

     Called by c_bands:
     init_us_2    :      3.90s CPU      3.94s WALL (    1825 calls)
     cegterg      :    448.96s CPU    464.86s WALL (     875 calls)

     Called by sum_band:
     sum_band:bec :      0.24s CPU      0.24s WALL (     875 calls)
     addusdens    :     21.23s CPU     33.91s WALL (      35 calls)

     Called by *egterg:
     h_psi        :    224.76s CPU    234.66s WALL (    3955 calls)
     s_psi        :     23.63s CPU     23.98s WALL (    3955 calls)
     g_psi        :      0.71s CPU      0.71s WALL (    3055 calls)
     cdiaghg      :    116.12s CPU    116.69s WALL (    3930 calls)

     Called by h_psi:
     h_psi:calbec :     27.07s CPU     28.14s WALL (    3955 calls)
     vloc_psi     :    171.38s CPU    174.35s WALL (    3955 calls)
     add_vuspsi   :     24.91s CPU     28.24s WALL (    3955 calls)

     General routines
     calbec       :     47.68s CPU     48.84s WALL (    4955 calls)
     fft          :      2.16s CPU      2.28s WALL (     491 calls)
     ffts         :      9.64s CPU      9.74s WALL (   16117 calls)
     fftw         :    192.71s CPU    195.99s WALL (  628782 calls)
     interpolate  :      0.16s CPU      0.16s WALL (      36 calls)
 
     Parallel routines
     fft_scatt_xy :     25.31s CPU     25.74s WALL (  645390 calls)
     fft_scatt_yz :    114.92s CPU    116.86s WALL (  645390 calls)
 
     PWSCF        :  10m41.95s CPU  11m24.92s WALL

 
   This run was terminated on:  18:11:19   5May2021            

=------------------------------------------------------------------------------=
   JOB DONE.
=------------------------------------------------------------------------------=
[1620252679.441363] [holy7c12407:179490:0]          mpool.c:43   UCX  WARN  object 0x3192140 was not returned to mpool ucp_requests
[1620252679.441611] [holy7c12405:57554:0]          mpool.c:43   UCX  WARN  object 0x37d0c00 was not returned to mpool ucp_requests
[1620252679.442386] [holy7c12209:161368:0]          mpool.c:43   UCX  WARN  object 0x2af9680 was not returned to mpool ucp_requests
[1620252679.443173] [holy7c12401:81445:0]          mpool.c:43   UCX  WARN  object 0x3d06280 was not returned to mpool ucp_requests
[1620252679.445173] [holy7c12402:164578:0]          mpool.c:43   UCX  WARN  object 0x4059d00 was not returned to mpool ucp_requests
[1620252679.445191] [holy7c12402:164578:0]          mpool.c:43   UCX  WARN  object 0x405a080 was not returned to mpool ucp_requests
[1620252679.447042] [holy7c12311:68161:0]          mpool.c:43   UCX  WARN  object 0x28db980 was not returned to mpool ucp_requests
[1620252679.447065] [holy7c12311:68161:0]          mpool.c:43   UCX  WARN  object 0x28dbd00 was not returned to mpool ucp_requests
[1620252679.442293] [holy7c12209:161367:0]          mpool.c:43   UCX  WARN  object 0x33f6840 was not returned to mpool ucp_requests
[1620252679.442313] [holy7c12209:161367:0]          mpool.c:43   UCX  WARN  object 0x33f6bc0 was not returned to mpool ucp_requests
