
     Program PWSCF v.6.5 starts on  5May2021 at 17:29:57 

     This program is part of the open-source Quantum ESPRESSO suite
     for quantum simulation of materials; please cite
         "P. Giannozzi et al., J. Phys.:Condens. Matter 21 395502 (2009);
         "P. Giannozzi et al., J. Phys.:Condens. Matter 29 465901 (2017);
          URL http://www.quantum-espresso.org", 
     in publications or presentations arising from this work. More details at
     http://www.quantum-espresso.org/quote

     Parallel version (MPI), running on    20 processors

     MPI processes distributed on    14 nodes
     R & G space division:  proc/nbgrp/npool/nimage =      20
     Reading input from YBCO_BaO_cleave_5.5_sep_scf.pwi
Warning: card &IONS ignored
Warning: card     ION_DYNAMICS = 'BFGS' ignored
Warning: card / ignored
Warning: card &CELL ignored
Warning: card     CELL_DYNAMICS = 'BFGS' ignored
Warning: card / ignored

     Current dimensions of program PWSCF are:
     Max number of different atomic species (ntypx) = 10
     Max number of k-points (npk) =  40000
     Max angular momentum in pseudopotentials (lmaxx) =  3

     Subspace diagonalization in iterative solution of the eigenvalue problem:
     one sub-group per band group will be used
     scalapack distributed-memory algorithm (size of sub-group:  4*  4 procs)

     Message from routine setup:
     using ibrav=0 with symmetry is DISCOURAGED, use correct ibrav instead
 
     Parallelization info
     --------------------
     sticks:   dense  smooth     PW     G-vecs:    dense   smooth      PW
     Min         150      50     14                79982    15388    2400
     Max         151      51     15                80027    15415    2451
     Sum        3015    1011    293              1600081   307933   48527
 


     bravais-lattice index     =            0
     lattice parameter (alat)  =       7.3477  a.u.
     unit-cell volume          =    4904.1944 (a.u.)^3
     number of atoms/cell      =           28
     number of atomic types    =            4
     number of electrons       =       229.00
     number of Kohn-Sham states=          138
     kinetic-energy cutoff     =      60.0000  Ry
     charge density cutoff     =     720.0000  Ry
     convergence threshold     =      1.0E-06
     mixing beta               =       0.2000
     number of iterations used =           10  local-TF  mixing
     Exchange-correlation= SLA PW PBE PBE
                           (   1   4   3   4   0   0   0)

     celldm(1)=   7.347715  celldm(2)=   0.000000  celldm(3)=   0.000000
     celldm(4)=   0.000000  celldm(5)=   0.000000  celldm(6)=   0.000000

     crystal axes: (cart. coord. in units of alat)
               a(1) = (   1.000000   0.000000   0.000000 )  
               a(2) = (   0.000000   0.975577   0.000000 )  
               a(3) = (   0.000000   0.000000  12.672114 )  

     reciprocal axes: (cart. coord. in units 2 pi/alat)
               b(1) = (  1.000000  0.000000  0.000000 )  
               b(2) = (  0.000000  1.025034  0.000000 )  
               b(3) = (  0.000000  0.000000  0.078913 )  


     PseudoPot. # 1 for Ba read from file:
     /n/holyscratch01/hoffman_lab/ruizhe/YBCO_Project/pseudo/Ba.pbe-nsp-van.UPF
     MD5 check sum: 2b9c31dd849566dd297d80989662b7a0
     Pseudo is Ultrasoft + core correction, Zval = 10.0
     Generated by new atomic code, or converted to UPF format
     Using radial grid of  907 points,  6 beta functions with: 
                l(1) =   0
                l(2) =   0
                l(3) =   1
                l(4) =   1
                l(5) =   2
                l(6) =   2
     Q(r) pseudized with  6 coefficients,  rinner =    1.200   1.200   1.200
                                                       1.200   1.200

     PseudoPot. # 2 for Cu read from file:
     /n/holyscratch01/hoffman_lab/ruizhe/YBCO_Project/pseudo/Cu.pbe-n-van_ak.UPF
     MD5 check sum: 34e3282627ffb533726feb647e090d62
     Pseudo is Ultrasoft + core correction, Zval = 11.0
     Generated by new atomic code, or converted to UPF format
     Using radial grid of  867 points,  6 beta functions with: 
                l(1) =   0
                l(2) =   0
                l(3) =   1
                l(4) =   1
                l(5) =   2
                l(6) =   2
     Q(r) pseudized with  8 coefficients,  rinner =    1.400   1.400   1.400
                                                       1.400   1.400

     PseudoPot. # 3 for O  read from file:
     /n/holyscratch01/hoffman_lab/ruizhe/YBCO_Project/pseudo/O.pbe-van_ak.UPF
     MD5 check sum: 783ce7fe4c79b6a4916957118fed0856
     Pseudo is Ultrasoft, Zval =  6.0
     Generated by new atomic code, or converted to UPF format
     Using radial grid of  737 points,  4 beta functions with: 
                l(1) =   0
                l(2) =   0
                l(3) =   1
                l(4) =   1
     Q(r) pseudized with  8 coefficients,  rinner =    0.800   0.800   0.800


     PseudoPot. # 4 for Y  read from file:
     /n/holyscratch01/hoffman_lab/ruizhe/YBCO_Project/pseudo/Y.pbe-nsp-van.UPF
     MD5 check sum: 4412fed3ab108fed87a1b7d6a69a4a38
     Pseudo is Ultrasoft + core correction, Zval = 11.0
     Generated by new atomic code, or converted to UPF format
     Using radial grid of  885 points,  6 beta functions with: 
                l(1) =   0
                l(2) =   0
                l(3) =   1
                l(4) =   1
                l(5) =   2
                l(6) =   2
     Q(r) pseudized with  6 coefficients,  rinner =    1.200   1.200   1.200
                                                       1.200   1.200

     atomic species   valence    mass     pseudopotential
        Ba            10.00   137.32700     Ba( 1.00)
        Cu            11.00    63.54600     Cu( 1.00)
        O              6.00    15.99900     O ( 1.00)
        Y             11.00    88.90584     Y ( 1.00)

      4 Sym. Ops. (no inversion) found



   Cartesian axes

     site n.     atom                  positions (alat units)
         1           O   tau(   1) = (   0.0000000   0.4877884  -0.0257983  )
         2           Cu  tau(   2) = (   0.0000000   0.0000000   0.0215779  )
         3           O   tau(   3) = (   0.0000000   0.0000000   0.5073114  )
         4           Ba  tau(   4) = (   0.4999996   0.4877884   0.5319677  )
         5           Cu  tau(   5) = (   0.0000000   0.0000000   1.0495845  )
         6           O   tau(   6) = (   0.4999996   0.0000000   1.1181579  )
         7           O   tau(   7) = (   0.0000000   0.4877884   1.1273137  )
         8           Y   tau(   8) = (   0.4999996   0.4877884   1.4938777  )
         9           O   tau(   9) = (   0.0000000   0.4877884   1.8497402  )
        10           O   tau(  10) = (   0.4999996   0.0000000   1.8692709  )
        11           Cu  tau(  11) = (   0.0000000   0.0000000   1.9417560  )
        12           Ba  tau(  12) = (   0.4999996   0.4877884   2.4526063  )
        13           O   tau(  13) = (   0.0000000   0.0000000   2.5103470  )
        14           O   tau(  14) = (   0.0000000   0.4877884   2.9968469  )
        15           Cu  tau(  15) = (   0.0000000   0.0000000   2.9968521  )
        16           O   tau(  16) = (   0.0000000   0.0000000   3.4833288  )
        17           Ba  tau(  17) = (   0.4999996   0.4877884   3.5410618  )
        18           Cu  tau(  18) = (   0.0000000   0.0000000   5.4664557  )
        19           O   tau(  19) = (   0.4999996   0.0000000   5.5389280  )
        20           O   tau(  20) = (   0.0000000   0.4877884   5.5584407  )
        21           Y   tau(  21) = (   0.4999996   0.4877884   5.9143058  )
        22           O   tau(  22) = (   0.0000000   0.4877884   6.2808698  )
        23           O   tau(  23) = (   0.4999996   0.0000000   6.2900384  )
        24           Cu  tau(  24) = (   0.0000000   0.0000000   6.3586170  )
        25           Ba  tau(  25) = (   0.4999996   0.4877884   6.8762183  )
        26           O   tau(  26) = (   0.0000000   0.0000000   6.9008747  )
        27           Cu  tau(  27) = (   0.0000000   0.0000000   7.3865799  )
        28           O   tau(  28) = (   0.0000000   0.4877884   7.4339612  )

     number of k points=    25  Gaussian smearing, width (Ry)=  0.0100
                       cart. coord. in units 2pi/alat
        k(    1) = (   0.0000000   0.0000000   0.0000000), wk =   0.0312500
        k(    2) = (   0.0000000   0.1281293   0.0000000), wk =   0.0625000
        k(    3) = (   0.0000000   0.2562585   0.0000000), wk =   0.0625000
        k(    4) = (   0.0000000   0.3843878   0.0000000), wk =   0.0625000
        k(    5) = (   0.0000000  -0.5125170   0.0000000), wk =   0.0312500
        k(    6) = (   0.1250000   0.0000000   0.0000000), wk =   0.0625000
        k(    7) = (   0.1250000   0.1281293   0.0000000), wk =   0.1250000
        k(    8) = (   0.1250000   0.2562585   0.0000000), wk =   0.1250000
        k(    9) = (   0.1250000   0.3843878   0.0000000), wk =   0.1250000
        k(   10) = (   0.1250000  -0.5125170   0.0000000), wk =   0.0625000
        k(   11) = (   0.2500000   0.0000000   0.0000000), wk =   0.0625000
        k(   12) = (   0.2500000   0.1281293   0.0000000), wk =   0.1250000
        k(   13) = (   0.2500000   0.2562585   0.0000000), wk =   0.1250000
        k(   14) = (   0.2500000   0.3843878   0.0000000), wk =   0.1250000
        k(   15) = (   0.2500000  -0.5125170   0.0000000), wk =   0.0625000
        k(   16) = (   0.3750000   0.0000000   0.0000000), wk =   0.0625000
        k(   17) = (   0.3750000   0.1281293   0.0000000), wk =   0.1250000
        k(   18) = (   0.3750000   0.2562585   0.0000000), wk =   0.1250000
        k(   19) = (   0.3750000   0.3843878   0.0000000), wk =   0.1250000
        k(   20) = (   0.3750000  -0.5125170   0.0000000), wk =   0.0625000
        k(   21) = (  -0.5000000   0.0000000   0.0000000), wk =   0.0312500
        k(   22) = (  -0.5000000   0.1281293   0.0000000), wk =   0.0625000
        k(   23) = (  -0.5000000   0.2562585   0.0000000), wk =   0.0625000
        k(   24) = (  -0.5000000   0.3843878   0.0000000), wk =   0.0625000
        k(   25) = (  -0.5000000  -0.5125170   0.0000000), wk =   0.0312500

     Dense  grid:  1600081 G-vectors     FFT dimensions: (  64,  64, 800)

     Smooth grid:   307933 G-vectors     FFT dimensions: (  40,  36, 480)

     Estimated max dynamical RAM per process >     509.90 MB

     Estimated total dynamical RAM >       9.96 GB

     Initial potential from superposition of free atoms

     starting charge  228.84827, renormalised to  229.00000

     negative rho (up, down):  8.947E-02 0.000E+00
     Starting wfcs are  201 randomized atomic wfcs

     total cpu time spent up to now is       10.5 secs

     Self-consistent Calculation

     iteration #  1     ecut=    60.00 Ry     beta= 0.20
     Davidson diagonalization with overlap
     ethr =  1.00E-02,  avg # of iterations =  2.0

     negative rho (up, down):  8.737E-02 0.000E+00

     total cpu time spent up to now is       27.4 secs

     total energy              =   -1869.57919167 Ry
     Harris-Foulkes estimate   =   -1871.20135106 Ry
     estimated scf accuracy    <      16.34794865 Ry

     iteration #  2     ecut=    60.00 Ry     beta= 0.20
     Davidson diagonalization with overlap
     ethr =  7.14E-03,  avg # of iterations =  1.0

     negative rho (up, down):  8.630E-02 0.000E+00

     total cpu time spent up to now is       42.5 secs

     total energy              =   -1869.19018685 Ry
     Harris-Foulkes estimate   =   -1869.95665128 Ry
     estimated scf accuracy    <       6.00604780 Ry

     iteration #  3     ecut=    60.00 Ry     beta= 0.20
     Davidson diagonalization with overlap
     ethr =  2.62E-03,  avg # of iterations =  1.0

     negative rho (up, down):  8.584E-02 0.000E+00

     total cpu time spent up to now is       57.9 secs

     total energy              =   -1868.72025597 Ry
     Harris-Foulkes estimate   =   -1869.36559762 Ry
     estimated scf accuracy    <       4.30619922 Ry

     iteration #  4     ecut=    60.00 Ry     beta= 0.20
     Davidson diagonalization with overlap
     ethr =  1.88E-03,  avg # of iterations =  1.4

     negative rho (up, down):  8.591E-02 0.000E+00

     total cpu time spent up to now is       73.3 secs

     total energy              =   -1868.95626500 Ry
     Harris-Foulkes estimate   =   -1868.99168630 Ry
     estimated scf accuracy    <       2.72858392 Ry

     iteration #  5     ecut=    60.00 Ry     beta= 0.20
     Davidson diagonalization with overlap
     ethr =  1.19E-03,  avg # of iterations =  1.0

     negative rho (up, down):  8.673E-02 0.000E+00

     total cpu time spent up to now is       88.4 secs

     total energy              =   -1868.86575644 Ry
     Harris-Foulkes estimate   =   -1868.98339133 Ry
     estimated scf accuracy    <       1.99616850 Ry

     iteration #  6     ecut=    60.00 Ry     beta= 0.20
     Davidson diagonalization with overlap
     ethr =  8.72E-04,  avg # of iterations =  1.0

     negative rho (up, down):  8.789E-02 0.000E+00

     total cpu time spent up to now is      103.5 secs

     total energy              =   -1868.83568457 Ry
     Harris-Foulkes estimate   =   -1868.89460154 Ry
     estimated scf accuracy    <       1.14512416 Ry

     iteration #  7     ecut=    60.00 Ry     beta= 0.20
     Davidson diagonalization with overlap
     ethr =  5.00E-04,  avg # of iterations =  1.8

     negative rho (up, down):  8.902E-02 0.000E+00

     total cpu time spent up to now is      119.4 secs

     total energy              =   -1868.80304316 Ry
     Harris-Foulkes estimate   =   -1868.85387127 Ry
     estimated scf accuracy    <       0.71627211 Ry

     iteration #  8     ecut=    60.00 Ry     beta= 0.20
     Davidson diagonalization with overlap
     ethr =  3.13E-04,  avg # of iterations =  6.0

     negative rho (up, down):  8.987E-02 0.000E+00

     total cpu time spent up to now is      140.1 secs

     total energy              =   -1868.80029588 Ry
     Harris-Foulkes estimate   =   -1868.82541042 Ry
     estimated scf accuracy    <       0.42587685 Ry

     iteration #  9     ecut=    60.00 Ry     beta= 0.20
     Davidson diagonalization with overlap
     ethr =  1.86E-04,  avg # of iterations =  4.2

     negative rho (up, down):  9.062E-02 0.000E+00

     total cpu time spent up to now is      158.8 secs

     total energy              =   -1868.79906543 Ry
     Harris-Foulkes estimate   =   -1868.80974633 Ry
     estimated scf accuracy    <       0.39508672 Ry

     iteration # 10     ecut=    60.00 Ry     beta= 0.20
     Davidson diagonalization with overlap
     ethr =  1.73E-04,  avg # of iterations =  1.2

     negative rho (up, down):  9.081E-02 0.000E+00

     total cpu time spent up to now is      174.2 secs

     total energy              =   -1868.79112245 Ry
     Harris-Foulkes estimate   =   -1868.80198709 Ry
     estimated scf accuracy    <       0.30722072 Ry

     iteration # 11     ecut=    60.00 Ry     beta= 0.20
     Davidson diagonalization with overlap
     ethr =  1.34E-04,  avg # of iterations =  3.9

     negative rho (up, down):  9.337E-02 0.000E+00

     total cpu time spent up to now is      192.3 secs

     total energy              =   -1868.76513552 Ry
     Harris-Foulkes estimate   =   -1868.79457673 Ry
     estimated scf accuracy    <       0.18236950 Ry

     iteration # 12     ecut=    60.00 Ry     beta= 0.20
     Davidson diagonalization with overlap
     ethr =  7.96E-05,  avg # of iterations =  6.8

     negative rho (up, down):  9.464E-02 0.000E+00

     total cpu time spent up to now is      215.3 secs

     total energy              =   -1868.77220942 Ry
     Harris-Foulkes estimate   =   -1868.77607506 Ry
     estimated scf accuracy    <       0.12251258 Ry

     iteration # 13     ecut=    60.00 Ry     beta= 0.20
     Davidson diagonalization with overlap
     ethr =  5.35E-05,  avg # of iterations =  1.6

     negative rho (up, down):  9.733E-02 0.000E+00

     total cpu time spent up to now is      230.9 secs

     total energy              =   -1868.77137178 Ry
     Harris-Foulkes estimate   =   -1868.77340207 Ry
     estimated scf accuracy    <       0.05803516 Ry

     iteration # 14     ecut=    60.00 Ry     beta= 0.20
     Davidson diagonalization with overlap
     c_bands:  1 eigenvalues not converged
     ethr =  2.53E-05,  avg # of iterations =  5.5

     negative rho (up, down):  9.431E-02 0.000E+00

     total cpu time spent up to now is      250.8 secs

     total energy              =   -1868.77199098 Ry
     Harris-Foulkes estimate   =   -1868.77243808 Ry
     estimated scf accuracy    <       0.02703751 Ry

     iteration # 15     ecut=    60.00 Ry     beta= 0.20
     Davidson diagonalization with overlap
     c_bands:  1 eigenvalues not converged
     ethr =  1.18E-05,  avg # of iterations =  6.8

     negative rho (up, down):  9.091E-02 0.000E+00

     total cpu time spent up to now is      272.3 secs

     total energy              =   -1868.77176388 Ry
     Harris-Foulkes estimate   =   -1868.77238876 Ry
     estimated scf accuracy    <       0.01123697 Ry

     iteration # 16     ecut=    60.00 Ry     beta= 0.20
     Davidson diagonalization with overlap
     ethr =  4.91E-06,  avg # of iterations =  8.2

     negative rho (up, down):  9.283E-02 0.000E+00

     total cpu time spent up to now is      296.4 secs

     total energy              =   -1868.77172127 Ry
     Harris-Foulkes estimate   =   -1868.77192472 Ry
     estimated scf accuracy    <       0.00763716 Ry

     iteration # 17     ecut=    60.00 Ry     beta= 0.20
     Davidson diagonalization with overlap
     ethr =  3.34E-06,  avg # of iterations =  4.5

     negative rho (up, down):  1.019E-01 0.000E+00

     total cpu time spent up to now is      315.6 secs

     total energy              =   -1868.77146637 Ry
     Harris-Foulkes estimate   =   -1868.77178595 Ry
     estimated scf accuracy    <       0.00647731 Ry

     iteration # 18     ecut=    60.00 Ry     beta= 0.20
     Davidson diagonalization with overlap
     ethr =  2.83E-06,  avg # of iterations =  9.1

     negative rho (up, down):  9.567E-02 0.000E+00

     total cpu time spent up to now is      341.2 secs

     total energy              =   -1868.77104333 Ry
     Harris-Foulkes estimate   =   -1868.77156269 Ry
     estimated scf accuracy    <       0.00566710 Ry

     iteration # 19     ecut=    60.00 Ry     beta= 0.20
     Davidson diagonalization with overlap
     ethr =  2.47E-06,  avg # of iterations =  3.9

     negative rho (up, down):  9.203E-02 0.000E+00

     total cpu time spent up to now is      359.3 secs

     total energy              =   -1868.77044803 Ry
     Harris-Foulkes estimate   =   -1868.77107765 Ry
     estimated scf accuracy    <       0.00527083 Ry

     iteration # 20     ecut=    60.00 Ry     beta= 0.20
     Davidson diagonalization with overlap
     c_bands:  1 eigenvalues not converged
     ethr =  2.30E-06,  avg # of iterations =  7.9

     negative rho (up, down):  8.981E-02 0.000E+00

     total cpu time spent up to now is      382.7 secs

     total energy              =   -1868.77012382 Ry
     Harris-Foulkes estimate   =   -1868.77053405 Ry
     estimated scf accuracy    <       0.00525511 Ry

     iteration # 21     ecut=    60.00 Ry     beta= 0.20
     Davidson diagonalization with overlap
     ethr =  2.29E-06,  avg # of iterations =  7.2

     negative rho (up, down):  8.979E-02 0.000E+00

     total cpu time spent up to now is      405.0 secs

     total energy              =   -1868.76929310 Ry
     Harris-Foulkes estimate   =   -1868.77014343 Ry
     estimated scf accuracy    <       0.00461271 Ry

     iteration # 22     ecut=    60.00 Ry     beta= 0.20
     Davidson diagonalization with overlap
     ethr =  2.01E-06,  avg # of iterations =  9.0

     negative rho (up, down):  8.981E-02 0.000E+00

     total cpu time spent up to now is      430.5 secs

     total energy              =   -1868.76901717 Ry
     Harris-Foulkes estimate   =   -1868.76935602 Ry
     estimated scf accuracy    <       0.00475434 Ry

     iteration # 23     ecut=    60.00 Ry     beta= 0.20
     Davidson diagonalization with overlap
     ethr =  2.01E-06,  avg # of iterations =  4.2

     negative rho (up, down):  8.960E-02 0.000E+00

     total cpu time spent up to now is      449.2 secs

     total energy              =   -1868.76875017 Ry
     Harris-Foulkes estimate   =   -1868.76904116 Ry
     estimated scf accuracy    <       0.00307079 Ry

     iteration # 24     ecut=    60.00 Ry     beta= 0.20
     Davidson diagonalization with overlap
     ethr =  1.34E-06,  avg # of iterations =  5.9

     negative rho (up, down):  8.956E-02 0.000E+00

     total cpu time spent up to now is      470.0 secs

     total energy              =   -1868.76858907 Ry
     Harris-Foulkes estimate   =   -1868.76877602 Ry
     estimated scf accuracy    <       0.00205897 Ry

     iteration # 25     ecut=    60.00 Ry     beta= 0.20
     Davidson diagonalization with overlap
     ethr =  8.99E-07,  avg # of iterations =  6.0

     negative rho (up, down):  9.030E-02 0.000E+00

     total cpu time spent up to now is      490.8 secs

     total energy              =   -1868.76858477 Ry
     Harris-Foulkes estimate   =   -1868.76861839 Ry
     estimated scf accuracy    <       0.00115246 Ry

     iteration # 26     ecut=    60.00 Ry     beta= 0.20
     Davidson diagonalization with overlap
     c_bands:  1 eigenvalues not converged
     ethr =  5.03E-07,  avg # of iterations =  8.5

     negative rho (up, down):  9.014E-02 0.000E+00

     total cpu time spent up to now is      515.5 secs

     total energy              =   -1868.76863184 Ry
     Harris-Foulkes estimate   =   -1868.76861029 Ry
     estimated scf accuracy    <       0.00069420 Ry

     iteration # 27     ecut=    60.00 Ry     beta= 0.20
     Davidson diagonalization with overlap
     ethr =  3.03E-07,  avg # of iterations =  2.5

     negative rho (up, down):  9.014E-02 0.000E+00

     total cpu time spent up to now is      532.4 secs

     total energy              =   -1868.76867024 Ry
     Harris-Foulkes estimate   =   -1868.76863951 Ry
     estimated scf accuracy    <       0.00044355 Ry

     iteration # 28     ecut=    60.00 Ry     beta= 0.20
     Davidson diagonalization with overlap
     ethr =  1.94E-07,  avg # of iterations =  4.3

     negative rho (up, down):  9.002E-02 0.000E+00

     total cpu time spent up to now is      551.3 secs

     total energy              =   -1868.76867781 Ry
     Harris-Foulkes estimate   =   -1868.76868479 Ry
     estimated scf accuracy    <       0.00020070 Ry

     iteration # 29     ecut=    60.00 Ry     beta= 0.20
     Davidson diagonalization with overlap
     ethr =  8.76E-08,  avg # of iterations =  3.0

     negative rho (up, down):  9.046E-02 0.000E+00

     total cpu time spent up to now is      568.7 secs

     total energy              =   -1868.76871123 Ry
     Harris-Foulkes estimate   =   -1868.76868340 Ry
     estimated scf accuracy    <       0.00013210 Ry

     iteration # 30     ecut=    60.00 Ry     beta= 0.20
     Davidson diagonalization with overlap
     ethr =  5.77E-08,  avg # of iterations =  5.0

     negative rho (up, down):  9.097E-02 0.000E+00

     total cpu time spent up to now is      588.9 secs

     total energy              =   -1868.76873411 Ry
     Harris-Foulkes estimate   =   -1868.76871841 Ry
     estimated scf accuracy    <       0.00004111 Ry

     iteration # 31     ecut=    60.00 Ry     beta= 0.20
     Davidson diagonalization with overlap
     ethr =  1.80E-08,  avg # of iterations =  1.6

     negative rho (up, down):  9.099E-02 0.000E+00

     total cpu time spent up to now is      604.6 secs

     total energy              =   -1868.76873788 Ry
     Harris-Foulkes estimate   =   -1868.76873542 Ry
     estimated scf accuracy    <       0.00003851 Ry

     iteration # 32     ecut=    60.00 Ry     beta= 0.20
     Davidson diagonalization with overlap
     ethr =  1.68E-08,  avg # of iterations =  1.1

     negative rho (up, down):  9.042E-02 0.000E+00

     total cpu time spent up to now is      619.9 secs

     total energy              =   -1868.76873531 Ry
     Harris-Foulkes estimate   =   -1868.76873833 Ry
     estimated scf accuracy    <       0.00002267 Ry

     iteration # 33     ecut=    60.00 Ry     beta= 0.20
     Davidson diagonalization with overlap
     ethr =  9.90E-09,  avg # of iterations =  2.8

     negative rho (up, down):  9.054E-02 0.000E+00

     total cpu time spent up to now is      636.9 secs

     total energy              =   -1868.76873507 Ry
     Harris-Foulkes estimate   =   -1868.76873645 Ry
     estimated scf accuracy    <       0.00000579 Ry

     iteration # 34     ecut=    60.00 Ry     beta= 0.20
     Davidson diagonalization with overlap
     ethr =  2.53E-09,  avg # of iterations =  2.0

     negative rho (up, down):  9.056E-02 0.000E+00

     total cpu time spent up to now is      653.4 secs

     total energy              =   -1868.76873622 Ry
     Harris-Foulkes estimate   =   -1868.76873545 Ry
     estimated scf accuracy    <       0.00000118 Ry

     iteration # 35     ecut=    60.00 Ry     beta= 0.20
     Davidson diagonalization with overlap
     ethr =  5.15E-10,  avg # of iterations =  2.5

     negative rho (up, down):  9.050E-02 0.000E+00

     total cpu time spent up to now is      670.2 secs

     End of self-consistent calculation

          k = 0.0000 0.0000 0.0000 ( 38411 PWs)   bands (ev):

   -38.5651 -38.2048 -24.5458 -23.2180 -23.1885 -23.1271 -19.0999 -18.7107
   -18.5693 -18.5601 -18.2283 -18.2110 -15.8946 -15.6043 -15.2096 -14.9355
   -14.7147 -14.7019 -14.6799 -14.5037 -14.4955 -14.4187 -14.2000 -14.1948
   -14.1755 -13.9501 -13.9254  -9.8632  -9.3758  -9.3524  -8.4433  -8.4033
    -8.4017  -8.2102  -8.1835  -8.1831  -8.1553  -8.0807  -8.0574  -2.5232
    -2.4889  -2.3579  -2.3066  -2.3030  -2.3015  -2.2962  -2.2711  -2.2330
    -2.1582  -2.1174  -1.8982  -1.7667  -1.4102  -1.3252  -1.0259  -1.0003
    -0.9737  -0.9075  -0.8995  -0.8771  -0.5524  -0.5105  -0.5085  -0.4738
    -0.4714  -0.3778  -0.3365  -0.3135  -0.3079  -0.2938  -0.2100  -0.1571
    -0.1517  -0.1369  -0.1112  -0.0667  -0.0589  -0.0443  -0.0328   0.0002
     0.0652   0.0919   0.0956   0.1041   0.1160   0.2198   0.2209   0.3849
     0.4335   0.4849   0.6298   0.6434   0.7879   0.7943   0.8119   0.9122
     0.9258   0.9307   0.9600   0.9627   1.0337   1.0623   1.0753   1.1238
     1.2914   1.3123   1.4903   1.5135   1.5442   1.5985   1.6382   1.7427
     1.7592   1.7698   1.8995   1.9030   1.9422   2.2277   2.2281   3.6726
     4.7699   4.8417   4.8606   5.3363   5.4068   5.8987   6.2332   6.2686
     6.4200   6.7931   7.1184   7.2255   7.4858   7.7233   7.7340   7.9158
     8.0443   8.1325

          k = 0.0000 0.1281 0.0000 ( 38395 PWs)   bands (ev):

   -38.5628 -38.2025 -24.5278 -23.1964 -23.1670 -23.1064 -19.0639 -18.6746
   -18.6644 -18.5661 -18.3157 -18.2251 -15.7857 -15.5051 -15.1642 -14.9440
   -14.7297 -14.7114 -14.6493 -14.5135 -14.4646 -14.4599 -14.2445 -14.2052
   -14.2011 -14.0148 -13.9520  -9.8490  -9.3875  -9.3196  -8.4253  -8.3912
    -8.3869  -8.2030  -8.1750  -8.1690  -8.1418  -8.0774  -8.0420  -2.6248
    -2.5990  -2.5480  -2.4738  -2.3034  -2.2900  -2.2820  -2.2659  -2.1939
    -2.1632  -2.1427  -1.9206  -1.9154  -1.7517  -1.4246  -1.4192  -1.3358
    -1.2713  -0.9618  -0.9339  -0.8764  -0.8738  -0.8190  -0.7312  -0.6231
    -0.5621  -0.5589  -0.5425  -0.5110  -0.4531  -0.4423  -0.3619  -0.2940
    -0.1924  -0.1533  -0.1465  -0.0034   0.0004   0.0851   0.1014   0.1015
     0.1040   0.1203   0.1406   0.1830   0.2953   0.3081   0.4051   0.4069
     0.4698   0.4760   0.5947   0.6451   0.6835   0.7047   0.7523   0.8668
     0.8976   1.0012   1.0361   1.0588   1.0868   1.1911   1.2018   1.2305
     1.2776   1.3710   1.3914   1.4990   1.5203   1.5450   1.6065   1.6714
     1.7256   1.7593   2.0011   2.1544   2.4292   2.5491   2.5587   3.8514
     5.0768   5.2131   5.2186   5.6046   5.6718   6.0677   6.5376   6.5683
     6.6483   7.0022   7.2750   7.4681   7.6736   7.6825   7.8447   7.9160
     7.9822   8.0760

          k = 0.0000 0.2563 0.0000 ( 38414 PWs)   bands (ev):

   -38.5572 -38.1968 -24.4837 -23.1433 -23.1138 -23.0553 -18.9728 -18.8895
   -18.5889 -18.5584 -18.5355 -18.2172 -15.5375 -15.2898 -15.0458 -15.0196
   -14.8147 -14.7693 -14.5840 -14.5748 -14.5303 -14.4142 -14.3485 -14.1849
   -14.1824 -14.1671 -13.9888  -9.8088  -9.4153  -9.2385  -8.3835  -8.3625
    -8.3469  -8.2441  -8.2162  -8.1207  -8.0658  -8.0383  -7.9454  -3.0558
    -2.9652  -2.9462  -2.8282  -2.5321  -2.4512  -2.4434  -2.3321  -2.2669
    -2.1840  -2.1804  -2.1491  -2.1051  -2.0899  -1.8663  -1.7759  -1.7034
    -1.3206  -1.2244  -1.2203  -1.1399  -1.0766  -0.9479  -0.9256  -0.8694
    -0.8598  -0.8414  -0.7904  -0.7851  -0.7370  -0.5946  -0.5304  -0.4956
    -0.4904  -0.3761  -0.3117  -0.1852  -0.1199  -0.0592  -0.0399   0.0616
     0.1391   0.1409   0.1582   0.1682   0.2474   0.3210   0.4731   0.5509
     0.5942   0.6572   0.7430   0.7453   0.8643   0.8959   0.9209   1.0147
     1.0617   1.0668   1.0683   1.1130   1.1708   1.2766   1.2808   1.2846
     1.3705   1.3728   1.3799   1.5114   1.6130   1.6901   1.8095   1.8177
     1.8183   1.8220   2.1728   2.2998   2.8421   2.8547   3.2623   4.3300
     5.8416   6.1043   6.1056   6.2415   6.3402   6.3609   6.9355   7.4112
     7.4151   7.4497   7.5435   7.6558   7.8490   7.9626   8.0507   8.2103
     8.3237   8.4015

          k = 0.0000 0.3844 0.0000 ( 38324 PWs)   bands (ev):

   -38.5516 -38.1912 -24.4386 -23.0888 -23.0592 -23.0030 -19.0873 -18.8746
   -18.7430 -18.5506 -18.4808 -18.2094 -15.2874 -15.1625 -15.1195 -14.9180
   -14.9094 -14.8647 -14.6699 -14.5999 -14.5597 -14.5269 -14.3047 -14.2155
   -14.1304 -14.1234 -14.0152  -9.7572  -9.4471  -9.1542  -8.3452  -8.3270
    -8.3067  -8.2771  -8.2494  -8.1603  -7.9568  -7.9290  -7.8439  -3.5817
    -3.4094  -3.3403  -3.1846  -3.0098  -3.0072  -2.8619  -2.3591  -2.3549
    -2.3175  -2.2616  -2.1253  -2.0356  -1.9953  -1.9851  -1.9705  -1.6515
    -1.4971  -1.3939  -1.3685  -1.2844  -1.2593  -1.1922  -1.1887  -1.1609
    -1.0318  -1.0243  -0.9307  -0.9049  -0.8855  -0.8601  -0.7390  -0.7340
    -0.6688  -0.5401  -0.4893  -0.3626  -0.3505  -0.3145  -0.1126  -0.0127
     0.1163   0.1334   0.1630   0.1821   0.1910   0.4547   0.4624   0.6012
     0.6723   0.6964   0.7832   0.8300   0.9434   0.9464   0.9979   1.0191
     1.0866   1.1064   1.1403   1.2316   1.2597   1.3004   1.4641   1.5379
     1.5526   1.6764   1.6936   1.7315   1.7853   1.7937   1.8310   1.8579
     2.1542   2.2248   2.2295   2.2398   2.8147   2.8237   3.8040   4.9753
     6.0062   6.7687   6.9768   6.9986   7.0596   7.1943   7.4310   7.5607
     7.6419   7.7339   8.0122   8.2115   8.2595   8.4120   8.4929   8.6177
     8.6563   8.7586

          k = 0.0000-0.5125 0.0000 ( 38474 PWs)   bands (ev):

   -38.5493 -38.1889 -24.4197 -23.0658 -23.0362 -22.9809 -19.1633 -18.8314
   -18.8189 -18.5474 -18.4375 -18.2061 -15.2427 -15.1556 -15.1049 -14.9458
   -14.9117 -14.7960 -14.7210 -14.7040 -14.5812 -14.5144 -14.3480 -14.1335
   -14.0921 -14.0909 -14.0576  -9.7307  -9.4637  -9.1183  -8.3307  -8.3086
    -8.2900  -8.2887  -8.2611  -8.1774  -7.9097  -7.8819  -7.8002  -3.8241
    -3.5567  -3.4919  -3.3181  -3.2457  -3.2390  -2.9950  -2.3938  -2.3892
    -2.3713  -2.3371  -2.1220  -2.0714  -1.9787  -1.9247  -1.7746  -1.7467
    -1.5631  -1.4943  -1.4728  -1.4121  -1.3741  -1.3190  -1.1869  -1.1361
    -1.1217  -1.1197  -1.0521  -0.9712  -0.8770  -0.8512  -0.8262  -0.8211
    -0.7625  -0.7594  -0.5381  -0.4362  -0.4259  -0.3495  -0.1815   0.0315
     0.0600   0.1042   0.1067   0.1880   0.1966   0.4413   0.5616   0.6570
     0.6950   0.6971   0.7687   0.9135   0.9202   1.0049   1.0619   1.0861
     1.0932   1.0963   1.1042   1.2183   1.2607   1.2966   1.5927   1.6145
     1.6883   1.6984   1.7076   1.8384   1.9364   1.9458   2.0275   2.0884
     2.0937   2.0971   2.3869   2.3919   2.6785   2.6864   3.9916   5.5362
     5.6317   7.0631   7.2760   7.3884   7.4850   7.4946   7.5710   7.5923
     7.6903   7.8794   8.2041   8.4173   8.5623   8.6198   8.7394   8.7791
     8.8282   8.8644

          k = 0.1250 0.0000 0.0000 ( 38388 PWs)   bands (ev):

   -38.5633 -38.2030 -24.5308 -23.1996 -23.1701 -23.1094 -19.0674 -18.6774
   -18.6694 -18.5576 -18.3302 -18.2085 -15.7793 -15.4957 -15.2352 -14.9615
   -14.7698 -14.7499 -14.6579 -14.5407 -14.4603 -14.4484 -14.2302 -14.2005
   -14.1976 -13.9862 -13.9342  -9.8841  -9.3493  -9.3113  -8.4535  -8.4207
    -8.4138  -8.1752  -8.1493  -8.1480  -8.1209  -8.0434  -8.0253  -2.6131
    -2.5273  -2.5062  -2.4395  -2.2922  -2.2654  -2.2594  -2.2569  -2.2222
    -2.1800  -2.1012  -1.9001  -1.8855  -1.4358  -1.3138  -1.0517  -1.0395
    -1.0114  -0.9347  -0.9020  -0.8940  -0.7524  -0.6049  -0.5952  -0.5893
    -0.5833  -0.5398  -0.4983  -0.4903  -0.3674  -0.3664  -0.3235  -0.3046
    -0.2620  -0.0948  -0.0424  -0.0345  -0.0324   0.0331   0.0712   0.0768
     0.0812   0.0995   0.1042   0.1168   0.2151   0.2208   0.2364   0.2583
     0.5184   0.5359   0.5574   0.5731   0.6640   0.7480   0.7654   0.8041
     0.8056   0.8146   0.9656   0.9992   1.0585   1.0733   1.1609   1.2269
     1.2771   1.3280   1.3336   1.5112   1.6362   1.6512   1.6617   1.6895
     1.7347   1.8276   1.8951   1.9903   2.1770   2.2710   2.2717   3.8373
     4.9805   5.0332   5.0467   5.5685   5.6331   6.0308   6.4710   6.4996
     6.6015   6.9687   7.3730   7.4359   7.6788   7.7147   7.8828   8.0227
     8.0709   8.1436

          k = 0.1250 0.1281 0.0000 ( 38416 PWs)   bands (ev):

   -38.5610 -38.2006 -24.5133 -23.1787 -23.1493 -23.0893 -19.0320 -18.6734
   -18.6524 -18.6418 -18.3312 -18.3066 -15.6714 -15.4001 -15.1872 -14.9594
   -14.7696 -14.7465 -14.6302 -14.5016 -14.4979 -14.4797 -14.2799 -14.1998
   -14.1973 -14.0390 -13.9596  -9.8635  -9.4979  -9.1959  -8.4382  -8.4087
    -8.4022  -8.3229  -8.2948  -8.1962  -8.0254  -7.9978  -7.9054  -2.7195
    -2.6638  -2.6355  -2.4716  -2.3402  -2.3222  -2.2915  -2.2592  -2.2589
    -2.1968  -2.1030  -1.9523  -1.9350  -1.8430  -1.4202  -1.4134  -1.3889
    -1.2244  -1.0792  -1.0179  -0.9819  -0.8924  -0.8867  -0.8479  -0.8338
    -0.7712  -0.7514  -0.5731  -0.5566  -0.5279  -0.3744  -0.3050  -0.2748
    -0.2198  -0.1624  -0.1328  -0.0374   0.0058   0.0213   0.0740   0.0745
     0.1190   0.1533   0.1563   0.1693   0.2650   0.3074   0.3298   0.4061
     0.4069   0.5460   0.6233   0.7014   0.7565   0.7668   0.7908   0.8125
     0.8570   0.8898   1.0180   1.0625   1.0692   1.0980   1.1356   1.2751
     1.3290   1.3422   1.4020   1.4286   1.4594   1.4866   1.6277   1.7179
     2.0388   2.0912   2.2485   2.4457   2.4624   2.5672   2.5704   3.9992
     5.2570   5.3567   5.3611   5.8011   5.8550   6.1637   6.6977   6.7887
     6.8378   7.1637   7.3712   7.5564   7.6260   7.8233   7.8603   7.9631
     8.0562   8.2186

          k = 0.1250 0.2563 0.0000 ( 38472 PWs)   bands (ev):

   -38.5554 -38.1950 -24.4704 -23.1276 -23.0980 -23.0400 -18.9421 -18.8850
   -18.6537 -18.5635 -18.5248 -18.3143 -15.4255 -15.1982 -15.0599 -15.0044
   -14.8025 -14.7703 -14.5865 -14.5670 -14.5523 -14.4093 -14.3852 -14.1759
   -14.1739 -14.1669 -13.9902  -9.8145  -9.6035  -9.1615  -8.4468  -8.4186
    -8.3835  -8.3718  -8.3479  -8.3067  -7.9813  -7.9537  -7.8689  -3.1553
    -3.0405  -2.9617  -2.8371  -2.5544  -2.4708  -2.4492  -2.3796  -2.3086
    -2.2703  -2.2412  -2.1743  -2.1724  -2.0440  -1.9151  -1.8050  -1.7812
    -1.4017  -1.2882  -1.2599  -1.2407  -1.1852  -1.1749  -1.1324  -1.0549
    -0.9306  -0.8887  -0.8503  -0.7281  -0.7085  -0.6377  -0.5413  -0.4877
    -0.3394  -0.3082  -0.2621  -0.1150  -0.0540  -0.0361   0.0222   0.0247
     0.0895   0.1504   0.1895   0.1899   0.2827   0.3462   0.3479   0.5421
     0.7584   0.7866   0.7912   0.8043   0.8572   0.9514   0.9589   0.9892
     0.9966   1.0830   1.0903   1.1497   1.1792   1.1991   1.2760   1.2761
     1.3145   1.4120   1.4674   1.5313   1.6130   1.7695   1.7906   1.7933
     2.2803   2.3484   2.5210   2.6888   2.8468   2.8742   3.2660   4.4598
     5.9016   6.1578   6.1608   6.2546   6.4309   6.4556   6.9716   7.3921
     7.4579   7.6105   7.6391   7.6537   7.7572   7.9896   8.1178   8.3114
     8.3659   8.3791

          k = 0.1250 0.3844 0.0000 ( 38457 PWs)   bands (ev):

   -38.5498 -38.1894 -24.4267 -23.0750 -23.0454 -22.9894 -19.0813 -18.8452
   -18.7369 -18.6438 -18.4507 -18.3044 -15.1856 -15.1179 -15.0624 -14.8991
   -14.8405 -14.8403 -14.6508 -14.5953 -14.5652 -14.5367 -14.2859 -14.2476
   -14.1257 -14.1194 -14.0059  -9.7638  -9.6128  -9.2156  -8.4515  -8.4237
    -8.3531  -8.3387  -8.3237  -8.3169  -8.0293  -8.0017  -7.9161  -3.5847
    -3.5058  -3.4288  -3.2372  -3.0031  -2.9971  -2.9027  -2.3913  -2.3740
    -2.3420  -2.2232  -2.2087  -2.1383  -2.1280  -1.9562  -1.8933  -1.8245
    -1.7053  -1.6159  -1.5691  -1.4718  -1.3613  -1.3204  -1.2532  -1.1802
    -1.0950  -0.9438  -0.9197  -0.8791  -0.8325  -0.8252  -0.7686  -0.7337
    -0.6009  -0.3993  -0.3082  -0.2137  -0.1858  -0.0578  -0.0226   0.0469
     0.1338   0.1510   0.1843   0.2118   0.2885   0.2943   0.4789   0.6211
     0.6846   0.8100   0.8276   0.8474   1.0086   1.0144   1.0713   1.0755
     1.1163   1.1466   1.1518   1.2113   1.2681   1.3754   1.4504   1.4909
     1.5807   1.7091   1.7429   1.8038   1.8172   1.8546   2.1997   2.2035
     2.3087   2.3866   2.5419   2.6568   2.8389   2.8789   3.8045   5.0785
     5.8511   6.7300   6.8774   6.9113   6.9887   7.0879   7.3245   7.3626
     7.4358   7.8286   8.1633   8.1916   8.2181   8.4572   8.5645   8.7131
     8.7489   8.8179

          k = 0.1250-0.5125 0.0000 ( 38456 PWs)   bands (ev):

   -38.5475 -38.1871 -24.4083 -23.0528 -23.0232 -22.9680 -19.1569 -18.8124
   -18.8027 -18.6397 -18.4081 -18.3002 -15.2020 -15.0598 -15.0383 -14.9104
   -14.8134 -14.7509 -14.7027 -14.7007 -14.5756 -14.5521 -14.3227 -14.1684
   -14.0947 -14.0908 -14.0311  -9.7388  -9.5927  -9.2634  -8.4262  -8.3986
    -8.3410  -8.3215  -8.3076  -8.3027  -8.0773  -8.0498  -7.9591  -3.8140
    -3.6707  -3.5834  -3.3773  -3.2418  -3.2333  -3.0449  -2.4089  -2.3977
    -2.3515  -2.2470  -2.1611  -2.0868  -2.0256  -1.9760  -1.9615  -1.8577
    -1.8539  -1.8314  -1.5748  -1.5458  -1.4580  -1.4188  -1.3566  -1.2447
    -1.0561  -1.0129  -0.9898  -0.9329  -0.8685  -0.8281  -0.8244  -0.7509
    -0.7200  -0.4358  -0.3205  -0.3118  -0.2125  -0.0673  -0.0569   0.0643
     0.1311   0.1712   0.1720   0.2211   0.2626   0.2988   0.3508   0.7387
     0.7545   0.8104   0.8657   0.8965   0.9833   0.9882   1.0879   1.1098
     1.1291   1.1638   1.1864   1.2167   1.2532   1.4138   1.5500   1.6679
     1.7072   1.8101   1.9107   1.9326   2.0806   2.0868   2.2737   2.3516
     2.3664   2.3709   2.4593   2.5398   2.7355   2.7929   3.9899   5.4520
     5.7523   6.7196   7.0544   7.1013   7.1579   7.1768   7.2582   7.5490
     7.8245   7.9696   8.3218   8.5019   8.6772   8.7126   8.8408   8.8986
     9.0139   9.0526

          k = 0.2500 0.0000 0.0000 ( 38472 PWs)   bands (ev):

   -38.5589 -38.1986 -24.4943 -23.1544 -23.1248 -23.0660 -18.9857 -18.8841
   -18.5945 -18.5515 -18.5473 -18.2023 -15.5154 -15.3101 -15.2683 -15.0687
   -14.9012 -14.8609 -14.6460 -14.6210 -14.4842 -14.3715 -14.3615 -14.1976
   -14.1947 -14.0547 -13.9440  -9.9117  -9.2839  -9.2361  -8.4637  -8.4430
    -8.4252  -8.1052  -8.0783  -8.0640  -8.0354  -7.9806  -7.9455  -2.9209
    -2.8440  -2.8312  -2.3778  -2.3327  -2.3174  -2.2950  -2.2873  -2.1869
    -2.1481  -2.0960  -1.8594  -1.8399  -1.5095  -1.4069  -1.2286  -1.1652
    -1.1449  -1.1270  -0.9799  -0.9796  -0.9070  -0.8824  -0.8807  -0.8571
    -0.7959  -0.7959  -0.7496  -0.6014  -0.5939  -0.4317  -0.4003  -0.3455
    -0.3081  -0.1860  -0.1635  -0.1543  -0.0744  -0.0555   0.0136   0.0185
     0.0721   0.0803   0.1662   0.2309   0.2467   0.2485   0.2559   0.3452
     0.3582   0.4211   0.6027   0.6502   0.6844   0.7058   0.7083   0.8222
     0.8517   0.9582   1.0039   1.0470   1.0995   1.1203   1.1505   1.1531
     1.2374   1.2868   1.3738   1.4587   1.5682   1.5806   1.6735   1.7416
     1.7762   1.8447   2.0370   2.1806   2.3194   2.4085   2.4517   4.2697
     5.4797   5.4834   5.5143   6.1631   6.2182   6.4062   6.9446   7.1148
     7.1496   7.2928   7.5848   7.6692   7.8141   7.9725   8.0661   8.2122
     8.3374   8.4938

          k = 0.2500 0.1281 0.0000 ( 38492 PWs)   bands (ev):

   -38.5566 -38.1963 -24.4780 -23.1354 -23.1059 -23.0476 -18.9516 -18.8784
   -18.6516 -18.5627 -18.5391 -18.3027 -15.4102 -15.2537 -15.1894 -15.0414
   -14.8622 -14.8361 -14.6050 -14.5912 -14.5495 -14.3850 -14.3698 -14.1865
   -14.1844 -14.0833 -13.9666  -9.8920  -9.5359  -9.1326  -8.4669  -8.4434
    -8.4345  -8.3503  -8.3212  -8.2281  -7.9512  -7.9235  -7.8416  -3.0596
    -2.9427  -2.8766  -2.4333  -2.4152  -2.3793  -2.3483  -2.3065  -2.2789
    -2.2716  -2.0348  -2.0247  -1.9607  -1.7769  -1.5072  -1.4252  -1.4156
    -1.4091  -1.2865  -1.2694  -1.2407  -1.1645  -1.1096  -1.0865  -0.9507
    -0.8909  -0.8761  -0.8174  -0.6842  -0.5853  -0.4466  -0.3077  -0.2643
    -0.2108  -0.1953  -0.1792  -0.1041  -0.0542  -0.0492   0.0052   0.0294
     0.0579   0.1051   0.2730   0.2791   0.2856   0.2990   0.3918   0.4150
     0.4177   0.5080   0.6019   0.7915   0.7918   0.8347   0.8673   0.8888
     0.9441   0.9759   0.9877   0.9911   1.0858   1.1106   1.1110   1.2219
     1.3032   1.3049   1.3799   1.5133   1.5563   1.5636   1.6099   1.7459
     2.3339   2.4054   2.4874   2.5647   2.6072   2.6589   2.8112   4.4114
     5.6871   5.7249   5.7262   6.2563   6.3505   6.4357   6.9592   7.3046
     7.3622   7.4080   7.4515   7.6355   7.7740   7.8954   8.1788   8.2653
     8.3993   8.5373

          k = 0.2500 0.2563 0.0000 ( 38499 PWs)   bands (ev):

   -38.5511 -38.1907 -24.4382 -23.0889 -23.0593 -23.0024 -18.8852 -18.8655
   -18.8485 -18.5467 -18.5109 -18.4646 -15.1777 -15.1002 -15.0412 -14.9898
   -14.7863 -14.7739 -14.6921 -14.5327 -14.5248 -14.4135 -14.4032 -14.1621
   -14.1543 -14.1516 -13.9807  -9.8542  -9.7822  -9.2217  -8.6530  -8.6252
    -8.5221  -8.3995  -8.3788  -8.3662  -8.0485  -8.0209  -7.9383  -3.4801
    -3.3159  -3.1032  -2.8294  -2.6822  -2.5550  -2.5028  -2.4853  -2.4036
    -2.3920  -2.2717  -2.1852  -2.1829  -2.1781  -1.9220  -1.8557  -1.8182
    -1.7572  -1.6843  -1.6820  -1.3384  -1.2921  -1.1772  -1.1750  -1.1618
    -1.0478  -0.9621  -0.8323  -0.7609  -0.6551  -0.6079  -0.5834  -0.5093
    -0.4623  -0.3145  -0.2237  -0.1543  -0.1264   0.0189   0.1041   0.1426
     0.2427   0.2696   0.2718   0.3196   0.3677   0.4142   0.6315   0.8033
     0.8113   0.8598   0.9160   0.9493   0.9533   0.9588   0.9669   1.0469
     1.0772   1.1019   1.1220   1.1250   1.1737   1.2735   1.3374   1.3742
     1.4442   1.5191   1.5538   1.5962   1.6996   1.7181   1.7334   1.8387
     2.8165   2.8208   2.9469   3.0272   3.1359   3.2769   3.3232   4.8287
     5.6705   6.2369   6.2481   6.3794   6.7047   6.7519   6.9936   7.1875
     7.5086   7.6851   7.8952   7.9099   7.9259   8.2517   8.3591   8.4893
     8.5255   8.6278

          k = 0.2500 0.3844 0.0000 ( 38531 PWs)   bands (ev):

   -38.5456 -38.1851 -24.3975 -23.0413 -23.0117 -22.9562 -19.0669 -18.8486
   -18.7701 -18.7221 -18.5119 -18.3742 -15.0544 -14.9530 -14.9293 -14.8839
   -14.7652 -14.7422 -14.6992 -14.6094 -14.4918 -14.4812 -14.2842 -14.2404
   -14.1137 -14.1082 -13.9658  -9.9134  -9.7821  -9.4396  -8.7596  -8.7319
    -8.6206  -8.3792  -8.3657  -8.3445  -8.2852  -8.2579  -8.1615  -3.8944
    -3.7286  -3.5303  -3.4112  -3.0690  -2.9707  -2.9698  -2.5809  -2.5249
    -2.4842  -2.2951  -2.2888  -2.2827  -2.2780  -2.1592  -2.1121  -2.0699
    -1.8954  -1.7582  -1.7065  -1.5527  -1.4357  -1.2964  -1.2625  -1.1588
    -1.0554  -1.0013  -0.9525  -0.8214  -0.8046  -0.7618  -0.7451  -0.6886
    -0.5374  -0.5098  -0.2933  -0.1356  -0.0324  -0.0036   0.1766   0.2301
     0.2853   0.3350   0.4095   0.4619   0.5174   0.6206   0.8511   0.8773
     0.8891   0.9115   0.9224   1.1285   1.1296   1.1590   1.1675   1.2409
     1.2638   1.2871   1.3148   1.3264   1.3819   1.3903   1.4651   1.5386
     1.6466   1.6739   1.7135   1.8230   1.8461   1.8642   2.1337   2.1374
     2.7462   2.7475   3.2247   3.3201   3.4036   3.5685   3.7989   5.1473
     5.5378   6.4006   6.4198   6.6030   6.6676   6.7305   7.2617   7.4773
     7.5597   8.0402   8.2597   8.3021   8.3572   8.6357   8.7702   8.8937
     9.0226   9.0381

          k = 0.2500-0.5125 0.0000 ( 38562 PWs)   bands (ev):

   -38.5433 -38.1828 -24.3805 -23.0213 -22.9917 -22.9367 -19.1413 -18.8428
   -18.7966 -18.7294 -18.5062 -18.3331 -15.0988 -14.9408 -14.8228 -14.7770
   -14.7272 -14.6982 -14.6621 -14.6570 -14.6354 -14.4806 -14.2591 -14.2019
   -14.0923 -14.0874 -13.9655  -9.9012  -9.7636  -9.5785  -8.7443  -8.7164
    -8.6123  -8.4446  -8.4171  -8.3697  -8.3558  -8.3304  -8.2984  -4.0581
    -3.8950  -3.7668  -3.5755  -3.2465  -3.2095  -3.1940  -2.5742  -2.5168
    -2.4548  -2.4509  -2.3008  -2.2849  -2.2706  -2.2589  -2.1868  -2.1125
    -1.9237  -1.7887  -1.7744  -1.5831  -1.5052  -1.3166  -1.3012  -1.1345
    -1.0852  -1.0335  -1.0041  -0.8971  -0.8502  -0.8192  -0.7383  -0.7222
    -0.5906  -0.5251  -0.3077  -0.1330   0.0016   0.0314   0.2405   0.2714
     0.2961   0.3504   0.4565   0.4697   0.5908   0.6705   0.7541   0.9574
     0.9649   1.0022   1.0126   1.1588   1.1733   1.2226   1.2350   1.2362
     1.2669   1.3341   1.3489   1.3723   1.4424   1.4654   1.5312   1.6402
     1.6752   1.7714   1.8589   1.8844   2.0766   2.0816   2.3117   2.3160
     2.5885   2.5890   3.2822   3.3823   3.4579   3.6145   3.9756   4.9965
     6.0340   6.3536   6.3620   6.3990   6.6005   6.6368   7.0748   7.6916
     7.9621   8.1651   8.4360   8.6994   8.8666   8.8810   8.9206   9.0896
     9.1884   9.2401

          k = 0.3750 0.0000 0.0000 ( 38500 PWs)   bands (ev):

   -38.5546 -38.1941 -24.4571 -23.1081 -23.0784 -23.0216 -19.0732 -18.8971
   -18.7402 -18.5455 -18.5018 -18.1962 -15.4039 -15.2734 -15.1884 -15.1793
   -14.9774 -14.9202 -14.7667 -14.6327 -14.4831 -14.4734 -14.2799 -14.1858
   -14.1831 -14.0993 -13.9555  -9.9183  -9.2164  -9.1845  -8.4644  -8.4447
    -8.4267  -8.0459  -8.0194  -7.9746  -7.9457  -7.9411  -7.8622  -3.2443
    -3.1587  -3.0954  -2.6919  -2.4007  -2.3916  -2.2984  -2.1322  -2.0693
    -2.0671  -2.0072  -1.8546  -1.7444  -1.6008  -1.4582  -1.3923  -1.3677
    -1.3029  -1.2624  -1.2370  -1.1879  -1.1802  -1.1566  -1.0196  -1.0167
    -0.8960  -0.8738  -0.8652  -0.8557  -0.6657  -0.6425  -0.5440  -0.4586
    -0.4141  -0.3704  -0.3629  -0.2618  -0.0682  -0.0294   0.0323   0.0386
     0.0586   0.0669   0.1496   0.2664   0.2903   0.3035   0.3117   0.3403
     0.3592   0.4710   0.4990   0.6533   0.7504   0.8118   0.8289   0.8420
     0.8983   0.9547   1.0406   1.0532   1.0958   1.1059   1.1411   1.1779
     1.3757   1.4236   1.4806   1.4885   1.4961   1.5494   1.7351   1.7984
     1.8395   1.9043   2.0638   2.2185   2.3012   2.5144   2.5306   4.8855
     5.9511   6.1199   6.1213   6.4717   6.8214   7.0326   7.1459   7.3834
     7.6200   7.6253   7.6332   7.9249   8.0653   8.2816   8.3082   8.3186
     8.5283   8.6881

          k = 0.3750 0.1281 0.0000 ( 38478 PWs)   bands (ev):

   -38.5523 -38.1919 -24.4421 -23.0911 -23.0614 -23.0049 -19.0659 -18.8642
   -18.7328 -18.6438 -18.4692 -18.2945 -15.3369 -15.2088 -15.1287 -15.1051
   -14.9337 -14.8505 -14.7133 -14.5973 -14.5444 -14.4550 -14.2696 -14.1708
   -14.1667 -14.1085 -13.9820  -9.9004  -9.4757  -9.1902  -8.4624  -8.4463
    -8.4285  -8.2927  -8.2646  -8.1710  -8.0072  -7.9795  -7.9030  -3.3924
    -3.2681  -3.1505  -2.7476  -2.4329  -2.4049  -2.3523  -2.2829  -2.2274
    -2.2040  -2.0107  -1.9525  -1.9484  -1.7541  -1.7287  -1.6676  -1.6196
    -1.5764  -1.4134  -1.4131  -1.3106  -1.2298  -1.2237  -1.1719  -1.0781
    -1.0000  -0.9698  -0.9481  -0.7849  -0.7501  -0.5289  -0.4424  -0.3571
    -0.2827  -0.2630  -0.1953  -0.1306  -0.1091  -0.0521  -0.0192   0.0016
     0.0717   0.1651   0.2378   0.3580   0.3581   0.4312   0.4371   0.4639
     0.4702   0.5609   0.6767   0.7312   0.7448   0.8231   0.8594   0.9071
     0.9611   0.9879   1.0288   1.0530   1.1107   1.1792   1.1888   1.2035
     1.3541   1.3989   1.4758   1.5121   1.5243   1.7220   1.7341   1.7686
     2.4422   2.4978   2.5159   2.5929   2.6463   2.8135   2.9262   5.0137
     5.9011   6.2427   6.2480   6.2727   6.9093   7.0153   7.2491   7.2781
     7.2969   7.6710   7.6948   7.7947   8.1266   8.3854   8.4944   8.5539
     8.6233   8.7423

          k = 0.3750 0.2563 0.0000 ( 38505 PWs)   bands (ev):

   -38.5468 -38.1863 -24.4054 -23.0495 -23.0199 -22.9640 -19.0485 -18.8590
   -18.7809 -18.7150 -18.5142 -18.3819 -15.1533 -15.0844 -15.0025 -14.9176
   -14.7959 -14.7389 -14.7097 -14.6025 -14.5122 -14.4027 -14.2539 -14.1458
   -14.1325 -14.1290 -13.9871  -9.8933  -9.8111  -9.4261  -8.7021  -8.6741
    -8.5756  -8.4181  -8.3935  -8.3844  -8.2759  -8.2486  -8.1594  -3.8321
    -3.6519  -3.3809  -2.9715  -2.8003  -2.6186  -2.5602  -2.5149  -2.4083
    -2.4033  -2.2913  -2.2803  -2.2613  -2.1944  -2.1892  -2.1137  -2.0392
    -1.7710  -1.6834  -1.6699  -1.4735  -1.2621  -1.2229  -1.1316  -1.0836
    -1.0588  -1.0308  -0.9071  -0.7924  -0.6947  -0.6602  -0.6211  -0.6002
    -0.4537  -0.4325  -0.3316  -0.0461   0.0179   0.0533   0.1574   0.2804
     0.3372   0.4125   0.4442   0.5107   0.5166   0.6421   0.8109   0.8579
     0.8630   0.9188   0.9444   1.0011   1.0070   1.0166   1.0714   1.0805
     1.1175   1.1661   1.2374   1.2412   1.2579   1.2919   1.3492   1.4460
     1.5624   1.5970   1.6160   1.6217   1.6969   1.7270   1.7660   1.7946
     2.8177   2.8193   3.2790   3.3441   3.4141   3.4903   3.6598   5.2392
     5.3813   6.2159   6.2307   6.3654   6.6677   6.6919   7.3573   7.4651
     7.6124   7.9211   7.9366   8.0166   8.2613   8.5968   8.6402   8.7581
     8.9005   8.9281

          k = 0.3750 0.3844 0.0000 ( 38597 PWs)   bands (ev):

   -38.5413 -38.1808 -24.3680 -23.0071 -22.9774 -22.9224 -19.0536 -19.0281
   -18.7100 -18.6927 -18.6915 -18.2929 -14.9826 -14.8915 -14.8709 -14.8601
   -14.7830 -14.6725 -14.6213 -14.6076 -14.4369 -14.4049 -14.1916 -14.1545
   -14.1003 -14.0954 -13.9305 -10.1290  -9.8058  -9.7193  -8.9685  -8.9404
    -8.8264  -8.6047  -8.5777  -8.4673  -8.4090  -8.3883  -8.3720  -4.2841
    -4.0935  -3.7439  -3.4578  -3.3382  -2.9473  -2.9429  -2.7166  -2.6889
    -2.6681  -2.6030  -2.4737  -2.3552  -2.2991  -2.2941  -2.2856  -2.1876
    -1.8399  -1.8376  -1.5636  -1.4040  -1.3755  -1.3354  -1.2385  -1.1698
    -1.1346  -1.0113  -0.9509  -0.8988  -0.8472  -0.8287  -0.7477  -0.6669
    -0.5745  -0.4010  -0.3958  -0.0205   0.0693   0.1208   0.4022   0.4422
     0.5315   0.5906   0.7084   0.7838   0.8300   0.9961   1.0168   1.0324
     1.0696   1.1056   1.1059   1.2134   1.2636   1.2729   1.2996   1.3099
     1.3290   1.4041   1.4379   1.4871   1.5154   1.5361   1.6036   1.6181
     1.6833   1.6952   1.7810   1.8575   1.8642   1.9366   2.0554   2.0586
     2.7364   2.7397   3.7784   3.8925   3.9737   3.9873   4.1556   4.6239
     5.8515   5.8639   5.8825   6.3256   6.3726   6.4943   7.2591   7.7228
     7.9766   8.1812   8.3224   8.5100   8.5806   8.5857   8.9225   8.9311
     9.0133   9.1395

          k = 0.3750-0.5125 0.0000 ( 38630 PWs)   bands (ev):

   -38.5390 -38.1785 -24.3524 -22.9893 -22.9596 -22.9050 -19.1258 -19.0227
   -18.7808 -18.6887 -18.6524 -18.2536 -14.9870 -14.8844 -14.7934 -14.7321
   -14.7012 -14.6813 -14.6336 -14.5305 -14.5078 -14.4094 -14.1901 -14.0948
   -14.0862 -14.0837 -13.8976 -10.2094  -9.8832  -9.7676  -9.0475  -9.0192
    -8.9069  -8.7599  -8.7331  -8.6083  -8.4074  -8.3806  -8.3664  -4.4651
    -4.2750  -3.9131  -3.7009  -3.5073  -3.1858  -3.1811  -2.8298  -2.7326
    -2.6875  -2.6157  -2.6059  -2.3664  -2.2952  -2.2893  -2.2850  -2.2372
    -1.9008  -1.8576  -1.5845  -1.4727  -1.4186  -1.2988  -1.2242  -1.2235
    -1.1797  -1.0366  -1.0226  -0.9253  -0.9167  -0.9109  -0.7263  -0.7263
    -0.6042  -0.3685  -0.3676  -0.0129   0.0922   0.1511   0.4154   0.5133
     0.6897   0.7067   0.7763   0.8971   0.9446   1.0375   1.0780   1.1212
     1.1283   1.1559   1.2267   1.2853   1.3458   1.3566   1.3659   1.4562
     1.4913   1.4934   1.5105   1.5219   1.5781   1.5838   1.6363   1.7037
     1.7966   1.8023   1.8989   1.9258   2.0974   2.1004   2.2509   2.2552
     2.5643   2.5702   3.9233   4.0595   4.1464   4.1504   4.3127   4.3897
     5.6548   5.6661   6.1987   6.2393   6.3053   6.4195   7.0566   7.8695
     7.9332   8.3492   8.5394   8.5606   8.7729   8.8181   8.8347   9.0153
     9.1431   9.1861

          k =-0.5000 0.0000 0.0000 ( 38486 PWs)   bands (ev):

   -38.5528 -38.1923 -24.4415 -23.0886 -23.0589 -23.0028 -19.1453 -18.8588
   -18.8131 -18.5429 -18.4622 -18.1936 -15.4482 -15.3004 -15.2187 -15.0874
   -15.0423 -14.8633 -14.8109 -14.6702 -14.5172 -14.4653 -14.2473 -14.1775
   -14.1679 -14.1116 -13.9686  -9.9164  -9.1878  -9.1687  -8.4637  -8.4404
    -8.4258  -8.0231  -7.9968  -7.9363  -7.9296  -7.9073  -7.8265  -3.3678
    -3.2836  -3.2101  -2.8208  -2.4275  -2.4192  -2.2944  -2.0990  -2.0983
    -1.9330  -1.9017  -1.8479  -1.6449  -1.6396  -1.6307  -1.5175  -1.4412
    -1.4217  -1.3133  -1.3027  -1.2822  -1.2471  -1.1155  -1.1109  -1.0796
    -0.9857  -0.9701  -0.8787  -0.8677  -0.8594  -0.6841  -0.5707  -0.5623
    -0.4846  -0.4295  -0.3684  -0.3318  -0.0492  -0.0033   0.0462   0.0505
     0.0530   0.0613   0.1134   0.2816   0.3044   0.3184   0.3229   0.3846
     0.3851   0.3921   0.5101   0.7472   0.7751   0.7982   0.8446   0.8954
     0.9270   0.9954   1.0149   1.0867   1.0883   1.1246   1.1355   1.1883
     1.4378   1.4443   1.4640   1.4890   1.5131   1.6044   1.8233   1.8270
     1.8846   1.9193   2.0678   2.2065   2.2587   2.5231   2.5275   5.5219
     5.6569   6.4091   6.8619   6.8950   6.9697   6.9735   7.1394   7.3652
     7.4633   7.6076   7.6377   7.9057   8.2462   8.3723   8.4580   8.5134
     8.7362   8.7937

          k =-0.5000 0.1281 0.0000 ( 38464 PWs)   bands (ev):

   -38.5505 -38.1900 -24.4270 -23.0724 -23.0427 -22.9869 -19.1375 -18.8264
   -18.8052 -18.6405 -18.4304 -18.2910 -15.3766 -15.2505 -15.1636 -15.0007
   -14.9714 -14.8303 -14.7220 -14.6335 -14.5319 -14.4829 -14.2162 -14.1592
   -14.1503 -14.1137 -14.0065  -9.8978  -9.3803  -9.2919  -8.4576  -8.4389
    -8.4221  -8.1583  -8.1477  -8.1320  -8.1187  -8.0549  -8.0304  -3.5213
    -3.3990  -3.2733  -2.8830  -2.4471  -2.4266  -2.3471  -2.2741  -2.1914
    -2.0142  -2.0001  -1.9745  -1.9572  -1.8407  -1.8252  -1.8088  -1.7513
    -1.6124  -1.4204  -1.4150  -1.3613  -1.3371  -1.1979  -1.1723  -1.0404
    -1.0339  -1.0027  -0.9551  -0.8823  -0.8135  -0.5782  -0.4991  -0.3736
    -0.3359  -0.3096  -0.2526  -0.1436  -0.1390  -0.0449  -0.0310   0.0131
     0.0563   0.2083   0.2493   0.3505   0.3518   0.4282   0.4464   0.5466
     0.5537   0.6302   0.6380   0.6849   0.7438   0.8553   0.8742   0.9313
     0.9949   1.0268   1.0321   1.0427   1.1366   1.1499   1.1890   1.1935
     1.3965   1.4446   1.4733   1.5206   1.5915   1.7117   1.7952   1.9083
     2.4672   2.5100   2.5143   2.5868   2.6406   2.8366   2.9261   5.6181
     5.7508   5.9569   6.6911   6.7100   7.0976   7.1107   7.2364   7.3032
     7.3211   7.4471   7.7638   7.8120   8.3713   8.6382   8.6609   8.7568
     8.8046   8.9132

          k =-0.5000 0.2563 0.0000 ( 38510 PWs)   bands (ev):

   -38.5450 -38.1845 -24.3916 -23.0330 -23.0033 -22.9479 -19.1188 -18.8546
   -18.7861 -18.7447 -18.5092 -18.3450 -15.1832 -15.1194 -15.0171 -14.8916
   -14.7520 -14.7129 -14.6956 -14.5959 -14.5454 -14.4011 -14.1411 -14.1354
   -14.1190 -14.1109 -14.0332  -9.8623  -9.7949  -9.5838  -8.6243  -8.5955
    -8.5130  -8.4695  -8.4432  -8.4241  -8.3904  -8.3900  -8.3445  -3.9738
    -3.7929  -3.5165  -3.1160  -2.7869  -2.6336  -2.5715  -2.5055  -2.4456
    -2.4035  -2.4022  -2.2783  -2.2591  -2.2540  -2.1947  -2.1906  -2.1223
    -1.7668  -1.7324  -1.6611  -1.4610  -1.2464  -1.2198  -1.0898  -1.0658
    -1.0287  -1.0277  -0.9537  -0.7895  -0.7470  -0.6607  -0.6469  -0.6431
    -0.4598  -0.4417  -0.3633  -0.0053   0.0187   0.1581   0.2368   0.3571
     0.3593   0.4017   0.5190   0.5495   0.5532   0.7452   0.7985   0.8963
     0.9066   0.9461   0.9641   1.0080   1.1048   1.1048   1.1184   1.1204
     1.1550   1.1773   1.1900   1.2141   1.2439   1.3348   1.4672   1.5312
     1.5598   1.5657   1.5896   1.6189   1.6393   1.7551   1.7608   1.8720
     2.8147   2.8149   3.2863   3.4521   3.5222   3.5856   3.7481   5.0535
     5.9526   5.9772   6.1754   6.1880   6.5797   6.6065   7.4536   7.6844
     7.9684   8.0330   8.0638   8.0655   8.4753   8.5447   8.7792   8.7875
     8.9911   9.0243

          k =-0.5000 0.3844 0.0000 ( 38630 PWs)   bands (ev):

   -38.5395 -38.1790 -24.3557 -22.9928 -22.9631 -22.9083 -19.1001 -19.0455
   -18.7670 -18.7002 -18.6571 -18.2574 -15.0078 -14.8913 -14.8656 -14.8371
   -14.7606 -14.6853 -14.6228 -14.4757 -14.4632 -14.3666 -14.1681 -14.0943
   -14.0897 -14.0517 -13.9343 -10.1907  -9.8707  -9.8012  -9.0178  -8.9893
    -8.8792  -8.7633  -8.7368  -8.6172  -8.4238  -8.3984  -8.3850  -4.4445
    -4.2493  -3.8836  -3.4789  -3.4457  -2.9365  -2.9312  -2.8323  -2.7498
    -2.7056  -2.6314  -2.6051  -2.3981  -2.2980  -2.2942  -2.2811  -2.2243
    -1.8859  -1.8307  -1.4882  -1.3932  -1.3908  -1.3042  -1.2916  -1.1289
    -1.1184  -1.0791  -0.9357  -0.8724  -0.8687  -0.8636  -0.7488  -0.7070
    -0.6152  -0.3494  -0.3482  -0.0207   0.1110   0.2282   0.4422   0.5679
     0.6578   0.8079   0.8278   0.9373   0.9623   1.0089   1.0589   1.1051
     1.1159   1.1491   1.1676   1.2474   1.2604   1.3480   1.3726   1.3990
     1.4388   1.4559   1.4873   1.4898   1.5470   1.5497   1.5629   1.6452
     1.7935   1.8227   1.8539   1.8662   1.8954   1.8994   2.0191   2.0207
     2.7325   2.7379   3.7769   4.1151   4.1921   4.1967   4.3566   4.3828
     5.6136   5.6258   6.1581   6.2110   6.2970   6.3072   7.2800   7.8525
     7.9713   8.3470   8.3707   8.5117   8.5482   8.7658   8.8341   8.9856
     9.1413   9.1442

          k =-0.5000-0.5125 0.0000 ( 38612 PWs)   bands (ev):

   -38.5372 -38.1767 -24.3406 -22.9759 -22.9462 -22.8917 -19.1193 -19.0923
   -18.7743 -18.7591 -18.6188 -18.2189 -14.9501 -14.9377 -14.7228 -14.7026
   -14.6938 -14.6885 -14.6652 -14.4488 -14.4349 -14.3828 -14.1590 -14.0886
   -14.0819 -14.0182 -13.8688 -10.3383  -9.9890  -9.7818  -9.1699  -9.1414
    -9.0269  -8.8808  -8.8542  -8.7256  -8.4250  -8.3915  -8.3815  -4.6339
    -4.4378  -4.0522  -3.6922  -3.6478  -3.1744  -3.1689  -2.9637  -2.7776
    -2.7355  -2.7337  -2.6548  -2.4208  -2.2866  -2.2824  -2.2779  -2.2596
    -1.9360  -1.8476  -1.5116  -1.4694  -1.3876  -1.3674  -1.2551  -1.1837
    -1.1622  -1.1082  -1.0256  -0.9513  -0.9469  -0.8290  -0.7576  -0.7196
    -0.6967  -0.3083  -0.3051  -0.0116   0.1535   0.2479   0.4594   0.6357
     0.8438   0.9449   0.9654   1.0651   1.0990   1.1250   1.1454   1.1524
     1.1644   1.1865   1.2590   1.3194   1.3242   1.3999   1.4106   1.5669
     1.5884   1.5987   1.6133   1.6169   1.6351   1.6516   1.6901   1.6911
     1.7013   1.9411   2.0354   2.0591   2.1155   2.1203   2.2236   2.2278
     2.5564   2.5651   3.9110   4.1265   4.3314   4.4189   4.4254   4.5697
     5.3642   5.3761   6.0650   6.1915   6.2660   6.4439   7.1669   7.8345
     7.9665   8.2821   8.4586   8.5485   8.6357   8.7050   8.7454   8.7932
     9.0522   9.1050

     the Fermi energy is     2.5262 ev

!    total energy              =   -1868.76873688 Ry
     Harris-Foulkes estimate   =   -1868.76873632 Ry
     estimated scf accuracy    <       0.00000056 Ry

     The total energy is the sum of the following terms:

     one-electron contribution =  -24456.73078684 Ry
     hartree contribution      =   12378.55961673 Ry
     xc contribution           =    -642.20332899 Ry
     ewald contribution        =   10851.61424784 Ry
     smearing contrib. (-TS)   =      -0.00848562 Ry

     convergence has been achieved in  35 iterations

     negative rho (up, down):  9.050E-02 0.000E+00

     Forces acting on atoms (cartesian axes, Ry/au):

     atom    1 type  3   force =     0.00000000    0.00000000   -0.00007709
     atom    2 type  2   force =     0.00000000    0.00000000   -0.00063798
     atom    3 type  3   force =     0.00000000    0.00000000   -0.00004613
     atom    4 type  1   force =     0.00000000    0.00000000   -0.00014253
     atom    5 type  2   force =     0.00000000    0.00000000   -0.00018762
     atom    6 type  3   force =     0.00000000    0.00000000    0.00049958
     atom    7 type  3   force =     0.00000000    0.00000000    0.00001237
     atom    8 type  4   force =     0.00000000    0.00000000   -0.00094971
     atom    9 type  3   force =     0.00000000    0.00000000    0.00135192
     atom   10 type  3   force =     0.00000000    0.00000000    0.00167928
     atom   11 type  2   force =     0.00000000    0.00000000   -0.00121642
     atom   12 type  1   force =     0.00000000    0.00000000   -0.00545396
     atom   13 type  3   force =     0.00000000    0.00000000    0.00310490
     atom   14 type  3   force =     0.00000000    0.00000000    0.01724746
     atom   15 type  2   force =     0.00000000    0.00000000   -0.01611215
     atom   16 type  3   force =     0.00000000    0.00000000    0.04283911
     atom   17 type  1   force =     0.00000000    0.00000000   -0.04106828
     atom   18 type  2   force =     0.00000000    0.00000000    0.00077700
     atom   19 type  3   force =     0.00000000    0.00000000    0.01898604
     atom   20 type  3   force =     0.00000000    0.00000000    0.01031733
     atom   21 type  4   force =     0.00000000    0.00000000   -0.04267955
     atom   22 type  3   force =     0.00000000    0.00000000    0.00408575
     atom   23 type  3   force =     0.00000000    0.00000000    0.00692179
     atom   24 type  2   force =     0.00000000    0.00000000    0.00205111
     atom   25 type  1   force =     0.00000000    0.00000000   -0.00187313
     atom   26 type  3   force =     0.00000000    0.00000000    0.00130866
     atom   27 type  2   force =     0.00000000    0.00000000   -0.00119191
     atom   28 type  3   force =     0.00000000    0.00000000    0.00045416

     Total force =     0.080565     Total SCF correction =     0.002877


     Computing stress (Cartesian axis) and pressure


     negative rho (up, down):  9.050E-02 0.000E+00
          total   stress  (Ry/bohr**3)                   (kbar)     P=       -6.44
  -0.00007901   0.00000000   0.00000000          -11.62        0.00        0.00
   0.00000000  -0.00003604   0.00000000            0.00       -5.30        0.00
   0.00000000   0.00000000  -0.00001630            0.00        0.00       -2.40

 
     init_run     :      9.38s CPU      9.70s WALL (       1 calls)
     electrons    :    637.27s CPU    659.70s WALL (       1 calls)
     forces       :      4.04s CPU      4.23s WALL (       1 calls)
     stress       :     20.76s CPU     21.23s WALL (       1 calls)

     Called by init_run:
     wfcinit      :      6.57s CPU      6.68s WALL (       1 calls)
     potinit      :      0.68s CPU      0.69s WALL (       1 calls)
     hinit0       :      1.05s CPU      1.06s WALL (       1 calls)

     Called by electrons:
     c_bands      :    499.33s CPU    510.60s WALL (      35 calls)
     sum_band     :     91.15s CPU     97.15s WALL (      35 calls)
     v_of_rho     :      3.15s CPU      3.19s WALL (      36 calls)
     newd         :     25.70s CPU     30.76s WALL (      36 calls)
     mix_rho      :     18.48s CPU     18.65s WALL (      35 calls)

     Called by c_bands:
     init_us_2    :      7.07s CPU      7.10s WALL (    1825 calls)
     cegterg      :    469.64s CPU    480.33s WALL (     875 calls)

     Called by sum_band:
     sum_band:bec :      0.24s CPU      0.24s WALL (     875 calls)
     addusdens    :     24.94s CPU     30.14s WALL (      35 calls)

     Called by *egterg:
     h_psi        :    226.30s CPU    233.85s WALL (    4506 calls)
     s_psi        :     24.80s CPU     25.02s WALL (    4506 calls)
     g_psi        :      0.72s CPU      0.72s WALL (    3606 calls)
     cdiaghg      :    133.09s CPU    133.61s WALL (    4481 calls)

     Called by h_psi:
     h_psi:calbec :     27.29s CPU     28.38s WALL (    4506 calls)
     vloc_psi     :    172.35s CPU    175.21s WALL (    4506 calls)
     add_vuspsi   :     25.32s CPU     27.42s WALL (    4506 calls)

     General routines
     calbec       :     40.99s CPU     42.15s WALL (    5506 calls)
     fft          :      2.28s CPU      2.30s WALL (     491 calls)
     ffts         :      9.62s CPU      9.69s WALL (   15935 calls)
     fftw         :    195.44s CPU    198.60s WALL (  633492 calls)
     interpolate  :      0.18s CPU      0.19s WALL (      36 calls)
 
     Parallel routines
     fft_scatt_xy :     27.15s CPU     27.55s WALL (  649918 calls)
     fft_scatt_yz :    115.81s CPU    117.68s WALL (  649918 calls)
 
     PWSCF        :  11m12.20s CPU  11m35.66s WALL

 
   This run was terminated on:  17:41:33   5May2021            

=------------------------------------------------------------------------------=
   JOB DONE.
=------------------------------------------------------------------------------=
[1620250893.349924] [holy7c10404:94419:0]          mpool.c:43   UCX  WARN  object 0x40a8c80 was not returned to mpool ucp_requests
[1620250893.349503] [holy7c10410:212169:0]          mpool.c:43   UCX  WARN  object 0x2bc3a00 was not returned to mpool ucp_requests
[1620250893.350117] [holy7c10204:11150:0]          mpool.c:43   UCX  WARN  object 0x320d740 was not returned to mpool ucp_requests
[1620250893.350137] [holy7c10204:11150:0]          mpool.c:43   UCX  WARN  object 0x320d900 was not returned to mpool ucp_requests
[1620250893.357893] [holy7c10311:238136:0]          mpool.c:43   UCX  WARN  object 0x39d2a40 was not returned to mpool ucp_requests
[1620250893.357553] [holy7c04306:60554:0]          mpool.c:43   UCX  WARN  object 0x32a4fc0 was not returned to mpool ucp_requests
[1620250893.356897] [holy7c04306:60555:0]          mpool.c:43   UCX  WARN  object 0x3e37f80 was not returned to mpool ucp_requests
[1620250893.357152] [holy7c10312:7541 :0]          mpool.c:43   UCX  WARN  object 0x35b0b00 was not returned to mpool ucp_requests
[1620250893.357177] [holy7c10312:7541 :0]          mpool.c:43   UCX  WARN  object 0x35b0cc0 was not returned to mpool ucp_requests
