
     Program PWSCF v.6.5 starts on  5May2021 at 17:15: 5 

     This program is part of the open-source Quantum ESPRESSO suite
     for quantum simulation of materials; please cite
         "P. Giannozzi et al., J. Phys.:Condens. Matter 21 395502 (2009);
         "P. Giannozzi et al., J. Phys.:Condens. Matter 29 465901 (2017);
          URL http://www.quantum-espresso.org", 
     in publications or presentations arising from this work. More details at
     http://www.quantum-espresso.org/quote

     Parallel version (MPI), running on    20 processors

     MPI processes distributed on    14 nodes
     R & G space division:  proc/nbgrp/npool/nimage =      20
     Reading input from YBCO_CuO_cleave_1.0_sep_scf.pwi
Warning: card &IONS ignored
Warning: card     ION_DYNAMICS = 'BFGS' ignored
Warning: card / ignored
Warning: card &CELL ignored
Warning: card     CELL_DYNAMICS = 'BFGS' ignored
Warning: card / ignored

     Current dimensions of program PWSCF are:
     Max number of different atomic species (ntypx) = 10
     Max number of k-points (npk) =  40000
     Max angular momentum in pseudopotentials (lmaxx) =  3

     Subspace diagonalization in iterative solution of the eigenvalue problem:
     one sub-group per band group will be used
     scalapack distributed-memory algorithm (size of sub-group:  4*  4 procs)

     Message from routine setup:
     using ibrav=0 with symmetry is DISCOURAGED, use correct ibrav instead
 
     Parallelization info
     --------------------
     sticks:   dense  smooth     PW     G-vecs:    dense   smooth      PW
     Min         150      50     14                72684    13980    2180
     Max         151      51     15                72723    14005    2227
     Sum        3015    1011    293              1454061   279771   44085
 


     bravais-lattice index     =            0
     lattice parameter (alat)  =       7.3477  a.u.
     unit-cell volume          =    4456.2979 (a.u.)^3
     number of atoms/cell      =           28
     number of atomic types    =            4
     number of electrons       =       229.00
     number of Kohn-Sham states=          138
     kinetic-energy cutoff     =      60.0000  Ry
     charge density cutoff     =     720.0000  Ry
     convergence threshold     =      1.0E-06
     mixing beta               =       0.2000
     number of iterations used =           10  local-TF  mixing
     Exchange-correlation= SLA PW PBE PBE
                           (   1   4   3   4   0   0   0)

     celldm(1)=   7.347715  celldm(2)=   0.000000  celldm(3)=   0.000000
     celldm(4)=   0.000000  celldm(5)=   0.000000  celldm(6)=   0.000000

     crystal axes: (cart. coord. in units of alat)
               a(1) = (   1.000000   0.000000   0.000000 )  
               a(2) = (   0.000000   0.975577   0.000000 )  
               a(3) = (   0.000000   0.000000  11.514779 )  

     reciprocal axes: (cart. coord. in units 2 pi/alat)
               b(1) = (  1.000000  0.000000  0.000000 )  
               b(2) = (  0.000000  1.025034  0.000000 )  
               b(3) = (  0.000000  0.000000  0.086845 )  


     PseudoPot. # 1 for Ba read from file:
     /n/holyscratch01/hoffman_lab/ruizhe/YBCO_Project/pseudo/Ba.pbe-nsp-van.UPF
     MD5 check sum: 2b9c31dd849566dd297d80989662b7a0
     Pseudo is Ultrasoft + core correction, Zval = 10.0
     Generated by new atomic code, or converted to UPF format
     Using radial grid of  907 points,  6 beta functions with: 
                l(1) =   0
                l(2) =   0
                l(3) =   1
                l(4) =   1
                l(5) =   2
                l(6) =   2
     Q(r) pseudized with  6 coefficients,  rinner =    1.200   1.200   1.200
                                                       1.200   1.200

     PseudoPot. # 2 for Cu read from file:
     /n/holyscratch01/hoffman_lab/ruizhe/YBCO_Project/pseudo/Cu.pbe-n-van_ak.UPF
     MD5 check sum: 34e3282627ffb533726feb647e090d62
     Pseudo is Ultrasoft + core correction, Zval = 11.0
     Generated by new atomic code, or converted to UPF format
     Using radial grid of  867 points,  6 beta functions with: 
                l(1) =   0
                l(2) =   0
                l(3) =   1
                l(4) =   1
                l(5) =   2
                l(6) =   2
     Q(r) pseudized with  8 coefficients,  rinner =    1.400   1.400   1.400
                                                       1.400   1.400

     PseudoPot. # 3 for O  read from file:
     /n/holyscratch01/hoffman_lab/ruizhe/YBCO_Project/pseudo/O.pbe-van_ak.UPF
     MD5 check sum: 783ce7fe4c79b6a4916957118fed0856
     Pseudo is Ultrasoft, Zval =  6.0
     Generated by new atomic code, or converted to UPF format
     Using radial grid of  737 points,  4 beta functions with: 
                l(1) =   0
                l(2) =   0
                l(3) =   1
                l(4) =   1
     Q(r) pseudized with  8 coefficients,  rinner =    0.800   0.800   0.800


     PseudoPot. # 4 for Y  read from file:
     /n/holyscratch01/hoffman_lab/ruizhe/YBCO_Project/pseudo/Y.pbe-nsp-van.UPF
     MD5 check sum: 4412fed3ab108fed87a1b7d6a69a4a38
     Pseudo is Ultrasoft + core correction, Zval = 11.0
     Generated by new atomic code, or converted to UPF format
     Using radial grid of  885 points,  6 beta functions with: 
                l(1) =   0
                l(2) =   0
                l(3) =   1
                l(4) =   1
                l(5) =   2
                l(6) =   2
     Q(r) pseudized with  6 coefficients,  rinner =    1.200   1.200   1.200
                                                       1.200   1.200

     atomic species   valence    mass     pseudopotential
        Ba            10.00   137.32700     Ba( 1.00)
        Cu            11.00    63.54600     Cu( 1.00)
        O              6.00    15.99900     O ( 1.00)
        Y             11.00    88.90584     Y ( 1.00)

      4 Sym. Ops. (no inversion) found



   Cartesian axes

     site n.     atom                  positions (alat units)
         1           O   tau(   1) = (   0.0000000   0.4877884  -0.0257983  )
         2           Cu  tau(   2) = (   0.0000000   0.0000000   0.0215779  )
         3           O   tau(   3) = (   0.0000000   0.0000000   0.5073114  )
         4           Ba  tau(   4) = (   0.4999996   0.4877884   0.5319677  )
         5           Cu  tau(   5) = (   0.0000000   0.0000000   1.0495845  )
         6           O   tau(   6) = (   0.4999996   0.0000000   1.1181579  )
         7           O   tau(   7) = (   0.0000000   0.4877884   1.1273137  )
         8           Y   tau(   8) = (   0.4999996   0.4877884   1.4938777  )
         9           O   tau(   9) = (   0.0000000   0.4877884   1.8497402  )
        10           O   tau(  10) = (   0.4999996   0.0000000   1.8692709  )
        11           Cu  tau(  11) = (   0.0000000   0.0000000   1.9417560  )
        12           Ba  tau(  12) = (   0.4999996   0.4877884   2.4526063  )
        13           O   tau(  13) = (   0.0000000   0.0000000   2.5103470  )
        14           O   tau(  14) = (   0.0000000   0.4877884   2.9968469  )
        15           Cu  tau(  15) = (   0.0000000   0.0000000   2.9968521  )
        16           O   tau(  16) = (   0.0000000   0.0000000   3.7405144  )
        17           Ba  tau(  17) = (   0.4999996   0.4877884   3.7982474  )
        18           Cu  tau(  18) = (   0.0000000   0.0000000   4.3091207  )
        19           O   tau(  19) = (   0.4999996   0.0000000   4.3815931  )
        20           O   tau(  20) = (   0.0000000   0.4877884   4.4011057  )
        21           Y   tau(  21) = (   0.4999996   0.4877884   4.7569708  )
        22           O   tau(  22) = (   0.0000000   0.4877884   5.1235348  )
        23           O   tau(  23) = (   0.4999996   0.0000000   5.1327035  )
        24           Cu  tau(  24) = (   0.0000000   0.0000000   5.2012820  )
        25           Ba  tau(  25) = (   0.4999996   0.4877884   5.7188833  )
        26           O   tau(  26) = (   0.0000000   0.0000000   5.7435397  )
        27           Cu  tau(  27) = (   0.0000000   0.0000000   6.2292449  )
        28           O   tau(  28) = (   0.0000000   0.4877884   6.2766262  )

     number of k points=    25  Gaussian smearing, width (Ry)=  0.0100
                       cart. coord. in units 2pi/alat
        k(    1) = (   0.0000000   0.0000000   0.0000000), wk =   0.0312500
        k(    2) = (   0.0000000   0.1281293   0.0000000), wk =   0.0625000
        k(    3) = (   0.0000000   0.2562585   0.0000000), wk =   0.0625000
        k(    4) = (   0.0000000   0.3843878   0.0000000), wk =   0.0625000
        k(    5) = (   0.0000000  -0.5125170   0.0000000), wk =   0.0312500
        k(    6) = (   0.1250000   0.0000000   0.0000000), wk =   0.0625000
        k(    7) = (   0.1250000   0.1281293   0.0000000), wk =   0.1250000
        k(    8) = (   0.1250000   0.2562585   0.0000000), wk =   0.1250000
        k(    9) = (   0.1250000   0.3843878   0.0000000), wk =   0.1250000
        k(   10) = (   0.1250000  -0.5125170   0.0000000), wk =   0.0625000
        k(   11) = (   0.2500000   0.0000000   0.0000000), wk =   0.0625000
        k(   12) = (   0.2500000   0.1281293   0.0000000), wk =   0.1250000
        k(   13) = (   0.2500000   0.2562585   0.0000000), wk =   0.1250000
        k(   14) = (   0.2500000   0.3843878   0.0000000), wk =   0.1250000
        k(   15) = (   0.2500000  -0.5125170   0.0000000), wk =   0.0625000
        k(   16) = (   0.3750000   0.0000000   0.0000000), wk =   0.0625000
        k(   17) = (   0.3750000   0.1281293   0.0000000), wk =   0.1250000
        k(   18) = (   0.3750000   0.2562585   0.0000000), wk =   0.1250000
        k(   19) = (   0.3750000   0.3843878   0.0000000), wk =   0.1250000
        k(   20) = (   0.3750000  -0.5125170   0.0000000), wk =   0.0625000
        k(   21) = (  -0.5000000   0.0000000   0.0000000), wk =   0.0312500
        k(   22) = (  -0.5000000   0.1281293   0.0000000), wk =   0.0625000
        k(   23) = (  -0.5000000   0.2562585   0.0000000), wk =   0.0625000
        k(   24) = (  -0.5000000   0.3843878   0.0000000), wk =   0.0625000
        k(   25) = (  -0.5000000  -0.5125170   0.0000000), wk =   0.0312500

     Dense  grid:  1454061 G-vectors     FFT dimensions: (  64,  64, 729)

     Smooth grid:   279771 G-vectors     FFT dimensions: (  40,  36, 432)

     Estimated max dynamical RAM per process >     464.48 MB

     Estimated total dynamical RAM >       9.07 GB

     Initial potential from superposition of free atoms

     starting charge  228.84827, renormalised to  229.00000

     negative rho (up, down):  8.955E-02 0.000E+00
     Starting wfcs are  201 randomized atomic wfcs

     total cpu time spent up to now is       10.5 secs

     Self-consistent Calculation

     iteration #  1     ecut=    60.00 Ry     beta= 0.20
     Davidson diagonalization with overlap
     ethr =  1.00E-02,  avg # of iterations =  2.0

     negative rho (up, down):  8.737E-02 0.000E+00

     total cpu time spent up to now is       26.3 secs

     total energy              =   -1869.49894534 Ry
     Harris-Foulkes estimate   =   -1871.05408706 Ry
     estimated scf accuracy    <      13.03173487 Ry

     iteration #  2     ecut=    60.00 Ry     beta= 0.20
     Davidson diagonalization with overlap
     ethr =  5.69E-03,  avg # of iterations =  1.0

     negative rho (up, down):  8.608E-02 0.000E+00

     total cpu time spent up to now is       40.6 secs

     total energy              =   -1868.83917738 Ry
     Harris-Foulkes estimate   =   -1869.83950718 Ry
     estimated scf accuracy    <       5.59481759 Ry

     iteration #  3     ecut=    60.00 Ry     beta= 0.20
     Davidson diagonalization with overlap
     ethr =  2.44E-03,  avg # of iterations =  1.0

     negative rho (up, down):  8.568E-02 0.000E+00

     total cpu time spent up to now is       55.3 secs

     total energy              =   -1868.74562717 Ry
     Harris-Foulkes estimate   =   -1869.12604186 Ry
     estimated scf accuracy    <       4.96686606 Ry

     iteration #  4     ecut=    60.00 Ry     beta= 0.20
     Davidson diagonalization with overlap
     ethr =  2.17E-03,  avg # of iterations =  1.1

     negative rho (up, down):  8.603E-02 0.000E+00

     total cpu time spent up to now is       69.7 secs

     total energy              =   -1868.82763771 Ry
     Harris-Foulkes estimate   =   -1868.92306880 Ry
     estimated scf accuracy    <       2.98585988 Ry

     iteration #  5     ecut=    60.00 Ry     beta= 0.20
     Davidson diagonalization with overlap
     ethr =  1.30E-03,  avg # of iterations =  1.0

     negative rho (up, down):  8.674E-02 0.000E+00

     total cpu time spent up to now is       83.7 secs

     total energy              =   -1868.79451748 Ry
     Harris-Foulkes estimate   =   -1868.88065112 Ry
     estimated scf accuracy    <       0.92420111 Ry

     iteration #  6     ecut=    60.00 Ry     beta= 0.20
     Davidson diagonalization with overlap
     ethr =  4.04E-04,  avg # of iterations =  1.5

     negative rho (up, down):  8.746E-02 0.000E+00

     total cpu time spent up to now is       98.3 secs

     total energy              =   -1868.78921192 Ry
     Harris-Foulkes estimate   =   -1868.81862888 Ry
     estimated scf accuracy    <       0.30335791 Ry

     iteration #  7     ecut=    60.00 Ry     beta= 0.20
     Davidson diagonalization with overlap
     ethr =  1.32E-04,  avg # of iterations =  5.9

     negative rho (up, down):  8.866E-02 0.000E+00

     total cpu time spent up to now is      118.8 secs

     total energy              =   -1868.77341992 Ry
     Harris-Foulkes estimate   =   -1868.79771981 Ry
     estimated scf accuracy    <       0.17826005 Ry

     iteration #  8     ecut=    60.00 Ry     beta= 0.20
     Davidson diagonalization with overlap
     ethr =  7.78E-05,  avg # of iterations =  5.6

     negative rho (up, down):  8.919E-02 0.000E+00

     total cpu time spent up to now is      138.9 secs

     total energy              =   -1868.77841196 Ry
     Harris-Foulkes estimate   =   -1868.78323588 Ry
     estimated scf accuracy    <       0.13161301 Ry

     iteration #  9     ecut=    60.00 Ry     beta= 0.20
     Davidson diagonalization with overlap
     ethr =  5.75E-05,  avg # of iterations =  1.7

     negative rho (up, down):  8.943E-02 0.000E+00

     total cpu time spent up to now is      153.9 secs

     total energy              =   -1868.77806249 Ry
     Harris-Foulkes estimate   =   -1868.78021087 Ry
     estimated scf accuracy    <       0.17638709 Ry

     iteration # 10     ecut=    60.00 Ry     beta= 0.20
     Davidson diagonalization with overlap
     ethr =  5.75E-05,  avg # of iterations =  1.0

     negative rho (up, down):  8.991E-02 0.000E+00

     total cpu time spent up to now is      168.2 secs

     total energy              =   -1868.77332602 Ry
     Harris-Foulkes estimate   =   -1868.77910995 Ry
     estimated scf accuracy    <       0.12460159 Ry

     iteration # 11     ecut=    60.00 Ry     beta= 0.20
     Davidson diagonalization with overlap
     ethr =  5.44E-05,  avg # of iterations =  2.0

     negative rho (up, down):  8.991E-02 0.000E+00

     total cpu time spent up to now is      183.5 secs

     total energy              =   -1868.77653045 Ry
     Harris-Foulkes estimate   =   -1868.77647648 Ry
     estimated scf accuracy    <       0.08733106 Ry

     iteration # 12     ecut=    60.00 Ry     beta= 0.20
     Davidson diagonalization with overlap
     ethr =  3.81E-05,  avg # of iterations =  1.2

     negative rho (up, down):  8.975E-02 0.000E+00

     total cpu time spent up to now is      198.0 secs

     total energy              =   -1868.77459677 Ry
     Harris-Foulkes estimate   =   -1868.77665453 Ry
     estimated scf accuracy    <       0.08333366 Ry

     iteration # 13     ecut=    60.00 Ry     beta= 0.20
     Davidson diagonalization with overlap
     ethr =  3.64E-05,  avg # of iterations =  1.2

     negative rho (up, down):  8.998E-02 0.000E+00

     total cpu time spent up to now is      212.2 secs

     total energy              =   -1868.77161447 Ry
     Harris-Foulkes estimate   =   -1868.77547187 Ry
     estimated scf accuracy    <       0.04138237 Ry

     iteration # 14     ecut=    60.00 Ry     beta= 0.20
     Davidson diagonalization with overlap
     ethr =  1.81E-05,  avg # of iterations =  4.6

     negative rho (up, down):  8.958E-02 0.000E+00

     total cpu time spent up to now is      230.7 secs

     total energy              =   -1868.76968345 Ry
     Harris-Foulkes estimate   =   -1868.77238022 Ry
     estimated scf accuracy    <       0.02806559 Ry

     iteration # 15     ecut=    60.00 Ry     beta= 0.20
     Davidson diagonalization with overlap
     ethr =  1.23E-05,  avg # of iterations =  6.5

     negative rho (up, down):  8.978E-02 0.000E+00

     total cpu time spent up to now is      251.3 secs

     total energy              =   -1868.76966950 Ry
     Harris-Foulkes estimate   =   -1868.77027323 Ry
     estimated scf accuracy    <       0.02232800 Ry

     iteration # 16     ecut=    60.00 Ry     beta= 0.20
     Davidson diagonalization with overlap
     ethr =  9.75E-06,  avg # of iterations =  1.2

     negative rho (up, down):  9.046E-02 0.000E+00

     total cpu time spent up to now is      265.6 secs

     total energy              =   -1868.76815896 Ry
     Harris-Foulkes estimate   =   -1868.76976252 Ry
     estimated scf accuracy    <       0.01909693 Ry

     iteration # 17     ecut=    60.00 Ry     beta= 0.20
     Davidson diagonalization with overlap
     ethr =  8.34E-06,  avg # of iterations =  3.5

     negative rho (up, down):  9.102E-02 0.000E+00

     total cpu time spent up to now is      282.6 secs

     total energy              =   -1868.76790883 Ry
     Harris-Foulkes estimate   =   -1868.76837455 Ry
     estimated scf accuracy    <       0.01231852 Ry

     iteration # 18     ecut=    60.00 Ry     beta= 0.20
     Davidson diagonalization with overlap
     ethr =  5.38E-06,  avg # of iterations =  4.4

     negative rho (up, down):  1.034E-01 0.000E+00

     total cpu time spent up to now is      300.4 secs

     total energy              =   -1868.76554848 Ry
     Harris-Foulkes estimate   =   -1868.76799268 Ry
     estimated scf accuracy    <       0.01147039 Ry

     iteration # 19     ecut=    60.00 Ry     beta= 0.20
     Davidson diagonalization with overlap
     ethr =  5.01E-06,  avg # of iterations =  8.0

     negative rho (up, down):  1.087E-01 0.000E+00

     total cpu time spent up to now is      324.9 secs

     total energy              =   -1868.76600186 Ry
     Harris-Foulkes estimate   =   -1868.76638447 Ry
     estimated scf accuracy    <       0.00594247 Ry

     iteration # 20     ecut=    60.00 Ry     beta= 0.20
     Davidson diagonalization with overlap
     ethr =  2.59E-06,  avg # of iterations =  5.5

     negative rho (up, down):  1.107E-01 0.000E+00

     total cpu time spent up to now is      344.3 secs

     total energy              =   -1868.76545090 Ry
     Harris-Foulkes estimate   =   -1868.76609964 Ry
     estimated scf accuracy    <       0.00464180 Ry

     iteration # 21     ecut=    60.00 Ry     beta= 0.20
     Davidson diagonalization with overlap
     ethr =  2.03E-06,  avg # of iterations =  6.4

     negative rho (up, down):  1.165E-01 0.000E+00

     total cpu time spent up to now is      364.7 secs

     total energy              =   -1868.76510786 Ry
     Harris-Foulkes estimate   =   -1868.76553126 Ry
     estimated scf accuracy    <       0.00409139 Ry

     iteration # 22     ecut=    60.00 Ry     beta= 0.20
     Davidson diagonalization with overlap
     ethr =  1.79E-06,  avg # of iterations =  8.2

     negative rho (up, down):  1.056E-01 0.000E+00

     total cpu time spent up to now is      388.2 secs

     total energy              =   -1868.76448983 Ry
     Harris-Foulkes estimate   =   -1868.76517883 Ry
     estimated scf accuracy    <       0.00371312 Ry

     iteration # 23     ecut=    60.00 Ry     beta= 0.20
     Davidson diagonalization with overlap
     c_bands:  2 eigenvalues not converged
     ethr =  1.62E-06,  avg # of iterations =  6.0

     negative rho (up, down):  1.039E-01 0.000E+00

     total cpu time spent up to now is      408.8 secs

     total energy              =   -1868.76382918 Ry
     Harris-Foulkes estimate   =   -1868.76460799 Ry
     estimated scf accuracy    <       0.00223871 Ry

     iteration # 24     ecut=    60.00 Ry     beta= 0.20
     Davidson diagonalization with overlap
     ethr =  9.78E-07,  avg # of iterations =  7.2

     negative rho (up, down):  1.071E-01 0.000E+00

     total cpu time spent up to now is      430.9 secs

     total energy              =   -1868.76378530 Ry
     Harris-Foulkes estimate   =   -1868.76393077 Ry
     estimated scf accuracy    <       0.00136064 Ry

     iteration # 25     ecut=    60.00 Ry     beta= 0.20
     Davidson diagonalization with overlap
     ethr =  5.94E-07,  avg # of iterations =  7.2

     negative rho (up, down):  1.029E-01 0.000E+00

     total cpu time spent up to now is      453.0 secs

     total energy              =   -1868.76371057 Ry
     Harris-Foulkes estimate   =   -1868.76382621 Ry
     estimated scf accuracy    <       0.00075640 Ry

     iteration # 26     ecut=    60.00 Ry     beta= 0.20
     Davidson diagonalization with overlap
     ethr =  3.30E-07,  avg # of iterations =  3.8

     negative rho (up, down):  9.571E-02 0.000E+00

     total cpu time spent up to now is      470.5 secs

     total energy              =   -1868.76359025 Ry
     Harris-Foulkes estimate   =   -1868.76372817 Ry
     estimated scf accuracy    <       0.00050308 Ry

     iteration # 27     ecut=    60.00 Ry     beta= 0.20
     Davidson diagonalization with overlap
     ethr =  2.20E-07,  avg # of iterations =  7.0

     negative rho (up, down):  9.321E-02 0.000E+00

     total cpu time spent up to now is      492.0 secs

     total energy              =   -1868.76359139 Ry
     Harris-Foulkes estimate   =   -1868.76360854 Ry
     estimated scf accuracy    <       0.00020131 Ry

     iteration # 28     ecut=    60.00 Ry     beta= 0.20
     Davidson diagonalization with overlap
     ethr =  8.79E-08,  avg # of iterations =  5.6

     negative rho (up, down):  9.157E-02 0.000E+00

     total cpu time spent up to now is      511.5 secs

     total energy              =   -1868.76359617 Ry
     Harris-Foulkes estimate   =   -1868.76359591 Ry
     estimated scf accuracy    <       0.00006980 Ry

     iteration # 29     ecut=    60.00 Ry     beta= 0.20
     Davidson diagonalization with overlap
     c_bands:  1 eigenvalues not converged
     ethr =  3.05E-08,  avg # of iterations =  6.4

     negative rho (up, down):  9.081E-02 0.000E+00

     total cpu time spent up to now is      532.1 secs

     total energy              =   -1868.76360709 Ry
     Harris-Foulkes estimate   =   -1868.76359950 Ry
     estimated scf accuracy    <       0.00004203 Ry

     iteration # 30     ecut=    60.00 Ry     beta= 0.20
     Davidson diagonalization with overlap
     ethr =  1.84E-08,  avg # of iterations =  5.4

     negative rho (up, down):  9.056E-02 0.000E+00

     total cpu time spent up to now is      551.1 secs

     total energy              =   -1868.76360970 Ry
     Harris-Foulkes estimate   =   -1868.76360773 Ry
     estimated scf accuracy    <       0.00002468 Ry

     iteration # 31     ecut=    60.00 Ry     beta= 0.20
     Davidson diagonalization with overlap
     ethr =  1.08E-08,  avg # of iterations =  3.7

     negative rho (up, down):  9.048E-02 0.000E+00

     total cpu time spent up to now is      568.2 secs

     total energy              =   -1868.76360863 Ry
     Harris-Foulkes estimate   =   -1868.76361005 Ry
     estimated scf accuracy    <       0.00002204 Ry

     iteration # 32     ecut=    60.00 Ry     beta= 0.20
     Davidson diagonalization with overlap
     ethr =  9.63E-09,  avg # of iterations =  1.2

     negative rho (up, down):  9.062E-02 0.000E+00

     total cpu time spent up to now is      582.6 secs

     total energy              =   -1868.76361089 Ry
     Harris-Foulkes estimate   =   -1868.76360894 Ry
     estimated scf accuracy    <       0.00000719 Ry

     iteration # 33     ecut=    60.00 Ry     beta= 0.20
     Davidson diagonalization with overlap
     ethr =  3.14E-09,  avg # of iterations =  2.8

     negative rho (up, down):  9.051E-02 0.000E+00

     total cpu time spent up to now is      598.8 secs

     total energy              =   -1868.76360987 Ry
     Harris-Foulkes estimate   =   -1868.76361111 Ry
     estimated scf accuracy    <       0.00000310 Ry

     iteration # 34     ecut=    60.00 Ry     beta= 0.20
     Davidson diagonalization with overlap
     ethr =  1.36E-09,  avg # of iterations =  1.6

     negative rho (up, down):  9.056E-02 0.000E+00

     total cpu time spent up to now is      613.7 secs

     total energy              =   -1868.76361005 Ry
     Harris-Foulkes estimate   =   -1868.76360999 Ry
     estimated scf accuracy    <       0.00000211 Ry

     iteration # 35     ecut=    60.00 Ry     beta= 0.20
     Davidson diagonalization with overlap
     ethr =  9.22E-10,  avg # of iterations =  1.0

     negative rho (up, down):  9.044E-02 0.000E+00

     total cpu time spent up to now is      628.0 secs

     total energy              =   -1868.76360907 Ry
     Harris-Foulkes estimate   =   -1868.76361007 Ry
     estimated scf accuracy    <       0.00000159 Ry

     iteration # 36     ecut=    60.00 Ry     beta= 0.20
     Davidson diagonalization with overlap
     ethr =  6.92E-10,  avg # of iterations =  2.2

     negative rho (up, down):  9.053E-02 0.000E+00

     total cpu time spent up to now is      643.0 secs

     End of self-consistent calculation

          k = 0.0000 0.0000 0.0000 ( 34859 PWs)   bands (ev):

   -38.0927 -38.0398 -22.7319 -22.7249 -22.5293 -22.4514 -18.6259 -18.5783
   -18.0980 -18.0885 -18.0460 -18.0337 -15.4183 -15.3812 -14.4606 -14.4204
   -14.2154 -14.2112 -14.2048 -14.1683 -14.0787 -13.9427 -13.9034 -13.7136
   -13.7074 -13.4075 -12.3178  -7.9522  -7.9442  -7.7905  -7.7487  -7.7241
    -7.7175  -7.6974  -7.6909  -7.4981  -7.4779  -7.3424  -7.2769  -2.0491
    -2.0176  -2.0120  -1.9829  -1.8762  -1.8378  -1.8155  -1.8091  -1.7632
    -1.7351  -1.6857  -1.6475  -1.4574  -0.8530  -0.8090  -0.4132  -0.4043
    -0.3355  -0.0695  -0.0363  -0.0241  -0.0197   0.0126   0.0155   0.1747
     0.1765   0.2336   0.2411   0.2459   0.2501   0.2522   0.3166   0.3182
     0.3348   0.3439   0.4410   0.4426   0.4499   0.4507   0.5534   0.5717
     0.5904   0.5910   0.5977   0.6100   0.6380   0.6807   0.7059   0.7174
     1.0618   1.1586   1.1872   1.2693   1.2731   1.2962   1.3294   1.3621
     1.3756   1.4081   1.4306   1.5197   1.5290   1.5376   1.5416   1.5431
     1.5798   1.9774   2.0067   2.0299   2.0338   2.1671   2.2292   2.2328
     2.3714   2.5472   2.6593   2.6824   2.7211   2.7399   2.8089   5.2870
     5.3361   5.5302   5.9400   6.0940   6.7185   6.7310   6.9664   7.0804
     7.4537   7.5556   8.2026   8.2097   8.2521   8.3909   8.6344   8.7249
     8.7587   8.9926

          k = 0.0000 0.1281 0.0000 ( 34895 PWs)   bands (ev):

   -38.0904 -38.0375 -22.7103 -22.7033 -22.5082 -22.4324 -18.5900 -18.5423
   -18.1928 -18.1383 -18.0948 -18.0428 -15.3096 -15.2731 -14.4684 -14.4272
   -14.2251 -14.2191 -14.1736 -14.1376 -14.0554 -13.9887 -13.9505 -13.7192
   -13.7119 -13.4462 -12.3853  -7.9353  -7.9273  -7.7811  -7.7373  -7.7165
    -7.7103  -7.6829  -7.6762  -7.4998  -7.4587  -7.3084  -7.2820  -2.1439
    -2.1273  -2.1261  -2.0708  -1.9996  -1.9634  -1.8168  -1.8132  -1.6902
    -1.6704  -1.6483  -1.6324  -1.4686  -0.9335  -0.9237  -0.8596  -0.7889
    -0.7528  -0.4073  -0.3825  -0.1946  -0.1247  -0.0757  -0.0736  -0.0730
    -0.0595  -0.0542  -0.0094   0.0140   0.1691   0.2471   0.2788   0.3124
     0.3397   0.3471   0.3872   0.4770   0.4897   0.5699   0.5710   0.5873
     0.5967   0.6237   0.6734   0.6831   0.6893   0.6969   0.8905   0.9077
     0.9619   0.9873   1.0814   1.1252   1.2212   1.2477   1.2603   1.4560
     1.4970   1.5285   1.5370   1.5703   1.6760   1.7240   1.7376   1.7501
     1.7642   1.9713   2.0062   2.0109   2.0682   2.1167   2.2008   2.3132
     2.3842   2.5380   2.5517   2.8448   2.9446   3.0480   3.0660   5.6823
     5.7056   5.8326   6.1815   6.2894   7.0394   7.0506   7.2739   7.3891
     7.7207   7.8234   8.1421   8.1914   8.3722   8.5478   8.8752   8.8885
     8.9871   9.1351

          k = 0.0000 0.2563 0.0000 ( 34926 PWs)   bands (ev):

   -38.0848 -38.0319 -22.6573 -22.6502 -22.4563 -22.3857 -18.4990 -18.4512
   -18.4178 -18.3639 -18.0871 -18.0350 -15.0617 -15.0272 -14.5425 -14.4999
   -14.2857 -14.2692 -14.1167 -14.0689 -14.0572 -14.0202 -14.0009 -13.6968
   -13.6878 -13.5136 -12.5448  -7.8948  -7.8867  -7.7580  -7.7558  -7.7515
    -7.7073  -7.5797  -7.5729  -7.5474  -7.3601  -7.2911  -7.2239  -2.5713
    -2.5469  -2.4308  -2.3811  -1.9649  -1.9617  -1.8576  -1.8498  -1.8242
    -1.6939  -1.6874  -1.6182  -1.6078  -1.5803  -1.5607  -1.4251  -0.8590
    -0.8209  -0.7848  -0.7149  -0.5777  -0.4440  -0.4346  -0.4017  -0.3658
    -0.3039  -0.3017  -0.2473  -0.2102  -0.0161  -0.0043   0.0032   0.0237
     0.1304   0.1542   0.1857   0.3500   0.3872   0.3982   0.5194   0.6237
     0.6336   0.6424   0.6441   0.6994   0.7036   0.7617   0.8046   0.8362
     1.2234   1.2348   1.3160   1.3591   1.3770   1.4347   1.5010   1.5562
     1.5579   1.6332   1.6575   1.7581   1.7895   1.7996   1.8138   1.8844
     1.9107   1.9248   2.1374   2.2072   2.2267   2.2676   2.3077   2.3157
     2.3543   2.4838   2.5653   2.9411   3.3063   3.3484   3.5014   6.5907
     6.5986   6.6008   6.8187   6.8772   7.8966   7.9048   8.0118   8.0611
     8.0794   8.2314   8.2937   8.4104   8.7997   8.8536   9.0479   9.0962
     9.1961   9.3268

          k = 0.0000 0.3844 0.0000 ( 34832 PWs)   bands (ev):

   -38.0792 -38.0263 -22.6028 -22.5957 -22.4031 -22.3380 -18.6157 -18.5621
   -18.4008 -18.3528 -18.0793 -18.0272 -14.8112 -14.7836 -14.6856 -14.6390
   -14.3949 -14.3625 -14.1183 -14.0557 -14.0276 -14.0172 -13.9527 -13.6380
   -13.6282 -13.5294 -12.6985  -7.8546  -7.8466  -7.7909  -7.7848  -7.7273
    -7.6738  -7.5919  -7.4707  -7.4638  -7.2961  -7.2563  -7.1358  -2.9400
    -2.9177  -2.7439  -2.6865  -2.5224  -2.5139  -2.5123  -1.8722  -1.8710
    -1.6633  -1.6498  -1.6216  -1.6136  -1.5248  -1.4976  -1.4863  -1.1656
    -1.0238  -0.8381  -0.8038  -0.7854  -0.7635  -0.7266  -0.7017  -0.6659
    -0.5452  -0.5435  -0.3914  -0.3255  -0.2481  -0.2404  -0.2365  -0.2149
    -0.0786  -0.0623  -0.0180   0.0439   0.1662   0.4525   0.5031   0.6139
     0.6213   0.6296   0.6666   0.6691   0.7044   0.7863   1.0245   1.0751
     1.2938   1.3283   1.4138   1.4343   1.4752   1.4894   1.5008   1.5446
     1.6186   1.6273   1.7200   1.7666   1.9208   1.9500   1.9798   2.0132
     2.0681   2.1383   2.1527   2.2694   2.2776   2.3126   2.5660   2.5976
     2.7153   2.7236   2.7603   2.8894   3.2837   3.3200   3.6946   7.3487
     7.4595   7.5172   7.6810   7.7163   7.8991   7.9486   8.5520   8.6532
     8.7517   8.8621   8.9151   8.9767   9.0883   9.1332   9.2832   9.3421
     9.7204   9.8050

          k = 0.0000-0.5125 0.0000 ( 34942 PWs)   bands (ev):

   -38.0769 -38.0240 -22.5797 -22.5726 -22.3806 -22.3179 -18.6916 -18.6382
   -18.3577 -18.3096 -18.0761 -18.0240 -14.7641 -14.7268 -14.6806 -14.6514
   -14.4653 -14.4195 -14.1411 -14.0437 -14.0123 -14.0116 -13.9324 -13.6068
   -13.5968 -13.5196 -12.7599  -7.8381  -7.8302  -7.8024  -7.7964  -7.7142
    -7.6547  -7.6144  -7.4236  -7.4167  -7.2972  -7.2117  -7.0982  -3.0841
    -3.0632  -2.8901  -2.8197  -2.7633  -2.7460  -2.7414  -1.9069  -1.9060
    -1.7238  -1.6760  -1.5196  -1.5018  -1.4772  -1.4549  -1.4182  -1.2858
    -1.0941  -1.0007  -0.9617  -0.9342  -0.9115  -0.9013  -0.6494  -0.6480
    -0.5792  -0.5334  -0.4865  -0.4120  -0.3352  -0.3273  -0.3251  -0.3072
    -0.2813  -0.2377  -0.0584  -0.0380   0.1258   0.5406   0.5721   0.5827
     0.5914   0.6000   0.6726   0.6754   0.6878   0.7918   1.1112   1.1328
     1.3377   1.3542   1.4107   1.4186   1.5052   1.5156   1.5620   1.5715
     1.5822   1.5844   1.6764   1.6931   1.9441   2.0666   2.0798   2.0798
     2.0895   2.1608   2.1900   2.3044   2.4663   2.5792   2.5896   2.6497
     2.8481   2.8777   2.8861   2.9252   3.1465   3.1850   3.7206   7.8173
     7.8564   7.8882   7.8968   7.9061   7.9709   7.9789   8.7318   8.7598
     8.9313   9.0073   9.2294   9.2361   9.2635   9.2778   9.5578   9.6773
     9.8359   9.9241

          k = 0.1250 0.0000 0.0000 ( 34894 PWs)   bands (ev):

   -38.0909 -38.0380 -22.7135 -22.7065 -22.5113 -22.4359 -18.5935 -18.5457
   -18.1980 -18.1467 -18.0860 -18.0312 -15.3029 -15.2650 -14.4855 -14.4479
   -14.2639 -14.2581 -14.1846 -14.1472 -14.1129 -13.9717 -13.9307 -13.7143
   -13.7075 -13.4224 -12.3893  -7.9622  -7.9541  -7.7841  -7.7713  -7.6891
    -7.6824  -7.6631  -7.6566  -7.4599  -7.4453  -7.3107  -7.2489  -2.1352
    -2.1067  -2.0433  -1.9843  -1.9683  -1.9338  -1.8021  -1.7930  -1.7526
    -1.7251  -1.7087  -1.6688  -1.4599  -0.8387  -0.7942  -0.4077  -0.3988
    -0.3727  -0.2877  -0.2390  -0.1156  -0.1068  -0.1009  -0.0939  -0.0295
    -0.0140  -0.0091   0.0157   0.1729   0.2082   0.2193   0.2458   0.2529
     0.4516   0.4603   0.5203   0.5228   0.5512   0.5571   0.5884   0.5961
     0.6140   0.6226   0.6675   0.6777   0.7011   0.7011   0.7195   0.7257
     0.9876   1.0133   1.0402   1.0796   1.1141   1.2882   1.2898   1.2982
     1.3160   1.3258   1.3578   1.4964   1.5217   1.5790   1.6212   1.7566
     1.7670   1.9364   2.0380   2.0999   2.1758   2.1799   2.3029   2.3138
     2.3599   2.5318   2.5966   2.6277   2.7174   2.7638   2.8519   5.5037
     5.5252   5.7039   6.1471   6.2495   6.9595   6.9717   7.1983   7.3461
     7.6823   7.7825   8.1832   8.2324   8.3646   8.5393   8.8792   8.9358
     9.0138   9.1448

          k = 0.1250 0.1281 0.0000 ( 34902 PWs)   bands (ev):

   -38.0886 -38.0357 -22.6927 -22.6856 -22.4909 -22.4174 -18.5581 -18.5102
   -18.2019 -18.1809 -18.1495 -18.1275 -15.1952 -15.1579 -14.4831 -14.4443
   -14.2603 -14.2545 -14.1551 -14.1193 -14.0870 -14.0258 -13.9843 -13.7137
   -13.7063 -13.4504 -12.4368  -7.9497  -7.9417  -7.8371  -7.8304  -7.7717
    -7.7585  -7.6132  -7.5392  -7.5327  -7.4399  -7.3255  -7.1428  -2.2386
    -2.2151  -2.1855  -2.1202  -1.9990  -1.9693  -1.8472  -1.8232  -1.7910
    -1.7767  -1.6294  -1.5804  -1.4609  -0.9274  -0.9181  -0.8778  -0.7452
    -0.7037  -0.6064  -0.5751  -0.4040  -0.3939  -0.3012  -0.2813  -0.1830
    -0.0700  -0.0653   0.0531   0.1328   0.1613   0.2151   0.2306   0.2422
     0.3262   0.3323   0.3703   0.4929   0.4995   0.5424   0.5443   0.6065
     0.6234   0.6417   0.6478   0.6637   0.7199   0.7442   0.8909   0.9068
     1.0221   1.0595   1.1649   1.1922   1.2281   1.2472   1.2699   1.3180
     1.3560   1.4713   1.5132   1.5472   1.5900   1.6153   1.6375   1.8868
     1.8931   1.9429   1.9483   1.9734   2.1036   2.2081   2.3780   2.5060
     2.6128   2.6955   2.7842   2.8740   2.9610   3.0595   3.0766   5.8377
     5.8491   5.9702   6.3485   6.4266   7.2700   7.2807   7.4947   7.6452
     7.9048   7.9903   8.0946   8.1531   8.5233   8.6818   8.9609   9.0514
     9.0988   9.2659

          k = 0.1250 0.2563 0.0000 ( 34954 PWs)   bands (ev):

   -38.0830 -38.0301 -22.6415 -22.6344 -22.4408 -22.3721 -18.4682 -18.4202
   -18.4133 -18.3593 -18.1824 -18.1310 -14.9497 -14.9147 -14.5275 -14.4849
   -14.2859 -14.2727 -14.1142 -14.0968 -14.0838 -14.0431 -14.0206 -13.6880
   -13.6791 -13.5026 -12.5530  -7.9607  -7.9541  -7.8951  -7.8871  -7.7484
    -7.7354  -7.7115  -7.5243  -7.4952  -7.4886  -7.2891  -7.1074  -2.6753
    -2.6434  -2.4630  -2.4114  -1.9865  -1.9796  -1.9049  -1.8698  -1.8435
    -1.8033  -1.7841  -1.6882  -1.6818  -1.5496  -1.4961  -1.4166  -0.9563
    -0.9091  -0.7952  -0.7622  -0.7536  -0.7440  -0.6857  -0.6407  -0.5855
    -0.2427  -0.2373  -0.1740  -0.1363  -0.0296   0.0024   0.0129   0.0562
     0.1444   0.2623   0.2776   0.4209   0.4429   0.4635   0.5281   0.5525
     0.5658   0.6468   0.6744   0.6825   0.6932   0.7629   1.0144   1.0431
     1.2439   1.2571   1.3026   1.3593   1.3877   1.4622   1.4772   1.4877
     1.5279   1.6249   1.6668   1.6989   1.7633   1.7654   1.8747   1.9033
     1.9226   1.9602   2.0306   2.2775   2.2848   2.3160   2.4521   2.7226
     2.7587   2.8252   2.9739   3.0605   3.3059   3.3552   3.4999   6.6392
     6.6448   6.6522   6.9245   6.9731   7.8617   7.9193   8.0995   8.1059
     8.2682   8.4428   8.4560   8.5813   8.7632   8.8189   9.0243   9.0963
     9.2209   9.2765

          k = 0.1250 0.3844 0.0000 ( 34953 PWs)   bands (ev):

   -38.0774 -38.0245 -22.5890 -22.5819 -22.3895 -22.3258 -18.6097 -18.5561
   -18.3715 -18.3232 -18.1725 -18.1211 -14.7072 -14.6853 -14.6435 -14.5883
   -14.3642 -14.3384 -14.1185 -14.0936 -14.0876 -13.9986 -13.9439 -13.6340
   -13.6243 -13.5220 -12.6696  -7.9652  -7.9590  -7.8647  -7.8565  -7.7577
    -7.7188  -7.6846  -7.5432  -7.5364  -7.4967  -7.3330  -7.1769  -3.0587
    -3.0293  -2.7901  -2.7345  -2.5120  -2.5035  -2.5010  -1.9060  -1.9011
    -1.7756  -1.7276  -1.7202  -1.7056  -1.5529  -1.5035  -1.4708  -1.2226
    -1.2082  -1.1937  -1.1277  -1.0146  -0.9353  -0.7937  -0.6196  -0.5798
    -0.4335  -0.4208  -0.4015  -0.3794  -0.2653  -0.2402  -0.2101  -0.1412
     0.0821   0.1412   0.1822   0.2816   0.3478   0.5214   0.5285   0.5870
     0.6116   0.6520   0.6597   0.7029   0.7207   0.7700   1.1197   1.1591
     1.2944   1.3270   1.4391   1.4845   1.4975   1.5539   1.5607   1.6143
     1.6231   1.6452   1.7765   1.8138   1.9209   1.9340   1.9455   1.9669
     2.1350   2.2738   2.2898   2.4227   2.6887   2.6977   2.7176   2.7750
     2.7851   2.8258   3.0044   3.0493   3.2960   3.3484   3.6855   7.2508
     7.3518   7.3934   7.5543   7.6059   7.8256   7.8616   8.5769   8.6528
     8.6589   8.8713   9.0040   9.1042   9.2238   9.2432   9.3662   9.5703
     9.8168   9.8759

          k = 0.1250-0.5125 0.0000 ( 34944 PWs)   bands (ev):

   -38.0751 -38.0222 -22.5668 -22.5597 -22.3678 -22.3063 -18.6852 -18.6317
   -18.3290 -18.2807 -18.1683 -18.1169 -14.7235 -14.6856 -14.5632 -14.5337
   -14.4292 -14.3895 -14.1114 -14.1042 -14.0733 -13.9886 -13.9120 -13.6055
   -13.5955 -13.5182 -12.7174  -7.9399  -7.9339  -7.8507  -7.8426  -7.7434
    -7.7101  -7.6707  -7.5912  -7.5843  -7.4317  -7.3720  -7.2583  -3.2074
    -3.1791  -2.9372  -2.8740  -2.7549  -2.7414  -2.7382  -1.9229  -1.9201
    -1.7230  -1.6726  -1.6084  -1.5882  -1.5550  -1.5251  -1.4950  -1.3999
    -1.3615  -1.3574  -1.3490  -1.0963  -0.9816  -0.8515  -0.5771  -0.5582
    -0.5179  -0.4892  -0.4565  -0.4213  -0.3526  -0.3312  -0.2997  -0.2050
     0.0707   0.0966   0.1608   0.1709   0.1930   0.5225   0.5377   0.5861
     0.6510   0.6612   0.6644   0.7414   0.7553   0.7813   1.2123   1.2333
     1.3433   1.3973   1.4385   1.4678   1.4739   1.5940   1.5991   1.6031
     1.6078   1.6115   1.7159   1.8609   1.9434   2.0225   2.0379   2.1481
     2.1740   2.4770   2.5724   2.5827   2.7408   2.7676   2.8196   2.8566
     2.8651   2.9240   2.9333   2.9519   3.1870   3.2450   3.7068   7.5182
     7.5217   7.6157   7.6400   7.6718   7.9115   7.9876   8.6932   8.8272
     9.1512   9.1664   9.3464   9.3997   9.4003   9.4983   9.5020   9.6194
     9.8408  10.0292

          k = 0.2500 0.0000 0.0000 ( 34996 PWs)   bands (ev):

   -38.0865 -38.0336 -22.6683 -22.6613 -22.4673 -22.3980 -18.5119 -18.4635
   -18.4128 -18.3628 -18.0799 -18.0251 -15.0389 -14.9998 -14.5939 -14.5611
   -14.3799 -14.3661 -14.2213 -14.1275 -14.1100 -14.0063 -13.9612 -13.7087
   -13.7013 -13.4460 -12.5559  -7.9731  -7.9649  -7.8058  -7.7515  -7.6190
    -7.6125  -7.5778  -7.5712  -7.4018  -7.3640  -7.2391  -7.1796  -2.4410
    -2.4179  -2.3580  -2.2863  -1.8458  -1.8449  -1.8250  -1.7904  -1.7171
    -1.6919  -1.6253  -1.5685  -1.5006  -0.9212  -0.8862  -0.5871  -0.5172
    -0.4914  -0.4862  -0.4777  -0.3959  -0.3869  -0.3792  -0.3700  -0.3099
    -0.3060  -0.1096  -0.0636   0.0181   0.0710   0.1949   0.2318   0.2432
     0.3063   0.3333   0.3392   0.3960   0.4988   0.5079   0.5666   0.5738
     0.6539   0.7146   0.7173   0.7224   0.7383   0.7465   0.8282   0.8371
     0.8799   0.8974   1.0118   1.1365   1.1444   1.2560   1.3464   1.3640
     1.3909   1.4468   1.4538   1.5963   1.6284   1.6426   1.6432   1.7150
     1.7452   1.7612   2.0670   2.0727   2.0740   2.1613   2.2482   2.2675
     2.3868   2.5760   2.6001   2.7079   2.7938   2.9012   2.9833   5.9685
     5.9761   6.1495   6.6887   6.7499   7.5940   7.6051   7.8331   8.0794
     8.1375   8.1608   8.1861   8.2544   8.8143   8.9116   9.0962   9.2303
     9.2488   9.4398

          k = 0.2500 0.1281 0.0000 ( 34972 PWs)   bands (ev):

   -38.0842 -38.0313 -22.6494 -22.6423 -22.4486 -22.3809 -18.4778 -18.4293
   -18.4070 -18.3571 -18.1800 -18.1255 -14.9338 -14.8957 -14.5671 -14.5319
   -14.3536 -14.3421 -14.1785 -14.1027 -14.0843 -14.0727 -14.0230 -13.6984
   -13.6906 -13.4540 -12.5607  -7.9804  -7.9727  -7.8646  -7.8575  -7.8090
    -7.7433  -7.6385  -7.4879  -7.4650  -7.4585  -7.2644  -7.0770  -2.5824
    -2.5452  -2.4001  -2.3360  -1.9337  -1.9200  -1.9169  -1.8791  -1.8205
    -1.8169  -1.5373  -1.4866  -1.4796  -0.9633  -0.9254  -0.9206  -0.9108
    -0.9062  -0.8027  -0.7696  -0.7592  -0.7312  -0.6197  -0.5906  -0.3087
    -0.2131  -0.1553  -0.0210   0.0516   0.1460   0.1852   0.2146   0.2478
     0.2841   0.3113   0.3341   0.4179   0.4340   0.4753   0.5187   0.5324
     0.5424   0.6429   0.7099   0.7665   0.7733   0.8497   0.9004   0.9090
     1.0728   1.0934   1.2463   1.2917   1.3045   1.3637   1.3767   1.4314
     1.4613   1.4817   1.5457   1.5681   1.5841   1.6034   1.6618   1.7918
     1.7959   1.8529   1.9434   2.0063   2.0146   2.1288   2.4743   2.8068
     2.8267   2.8676   2.9994   3.0370   3.0656   3.1407   3.1632   6.2110
     6.2183   6.3199   6.8187   6.8766   7.8451   7.8648   7.9270   7.9761
     8.1054   8.3567   8.3887   8.4954   8.8588   8.8754   9.0286   9.0852
     9.1810   9.3222

          k = 0.2500 0.2563 0.0000 ( 34971 PWs)   bands (ev):

   -38.0787 -38.0258 -22.6029 -22.5958 -22.4029 -22.3389 -18.4138 -18.3920
   -18.3767 -18.3612 -18.3434 -18.3252 -14.7001 -14.6695 -14.5183 -14.4700
   -14.3015 -14.2936 -14.2160 -14.1791 -14.0695 -14.0495 -14.0068 -13.6661
   -13.6575 -13.4757 -12.5765  -8.1669  -8.1603  -7.9415  -7.9138  -7.9056
    -7.7484  -7.7323  -7.7170  -7.5623  -7.5557  -7.3621  -7.1700  -3.0051
    -2.9621  -2.6238  -2.5626  -2.0731  -2.0624  -2.0259  -1.9871  -1.9176
    -1.9140  -1.7918  -1.6965  -1.6903  -1.4644  -1.4378  -1.4106  -1.3339
    -1.3242  -1.2756  -1.2089  -0.7946  -0.7649  -0.7198  -0.6599  -0.5531
    -0.3075  -0.2797  -0.1447  -0.1110  -0.0771  -0.0329  -0.0089   0.0035
     0.0293   0.1553   0.1761   0.4620   0.5424   0.6055   0.6238   0.7217
     0.7651   0.7741   0.8080   0.8286   0.8977   0.9134   1.2795   1.3024
     1.3514   1.3632   1.4113   1.4322   1.4406   1.4562   1.4652   1.5243
     1.5426   1.5566   1.5739   1.6655   1.8411   1.8630   1.8768   1.9702
     2.0228   2.0898   2.1580   2.2032   2.2081   2.2587   2.6927   2.8270
     3.2853   3.3202   3.4166   3.4371   3.4833   3.6050   3.6271   6.6716
     6.7262   6.7361   7.1764   7.2213   7.6612   7.7337   8.3788   8.3900
     8.5553   8.8317   8.8579   8.8633   8.9161   9.0275   9.1719   9.2114
     9.2655   9.5299

          k = 0.2500 0.3844 0.0000 ( 35015 PWs)   bands (ev):

   -38.0731 -38.0202 -22.5553 -22.5482 -22.3561 -22.2960 -18.5952 -18.5416
   -18.3774 -18.3270 -18.2964 -18.2477 -14.5743 -14.5472 -14.4529 -14.3959
   -14.2830 -14.2706 -14.2663 -14.2372 -14.0322 -13.9509 -13.9292 -13.6228
   -13.6132 -13.5013 -12.5982  -8.2735  -8.2671  -8.0484  -7.8923  -7.8843
    -7.8226  -7.7991  -7.7924  -7.7212  -7.7049  -7.5811  -7.4131  -3.4190
    -3.3777  -2.9735  -2.9141  -2.4850  -2.4767  -2.4703  -2.1015  -2.0880
    -2.0103  -1.9663  -1.8034  -1.8012  -1.8010  -1.7717  -1.5668  -1.5287
    -1.4589  -1.2806  -1.2333  -0.8373  -0.8143  -0.7601  -0.6640  -0.6469
    -0.5225  -0.4635  -0.3050  -0.2941  -0.2822  -0.2496  -0.2369  -0.0548
    -0.0369   0.1099   0.1300   0.4818   0.6052   0.7007   0.7250   0.7794
     0.8289   0.8751   0.9444   1.0069   1.0993   1.1348   1.3366   1.3496
     1.3541   1.3841   1.5093   1.5907   1.6123   1.6569   1.6638   1.7333
     1.7957   1.8147   1.8599   1.8651   1.9181   1.9632   2.0365   2.0794
     2.2562   2.3021   2.4001   2.5986   2.6232   2.6314   2.6613   2.8135
     3.2203   3.2494   3.6283   3.6941   3.7151   3.8804   3.8954   6.8335
     6.8910   6.9186   7.1615   7.2326   7.9722   7.9899   8.5510   8.7444
     8.7640   8.8297   9.2317   9.2875   9.4028   9.4689   9.7084   9.7525
     9.7619   9.9429

          k = 0.2500-0.5125 0.0000 ( 35022 PWs)   bands (ev):

   -38.0708 -38.0179 -22.5353 -22.5281 -22.3364 -22.2780 -18.6697 -18.6161
   -18.3716 -18.3212 -18.2557 -18.2070 -14.6207 -14.5807 -14.3391 -14.3155
   -14.3003 -14.2748 -14.2534 -14.2184 -14.0353 -13.9330 -13.8648 -13.6020
   -13.5921 -13.5146 -12.6086  -8.2580  -8.2519  -8.0443  -7.9586  -7.9517
    -7.8781  -7.8700  -7.7510  -7.7438  -7.7088  -7.6828  -7.6077  -3.5816
    -3.5411  -3.1309  -3.0703  -2.7273  -2.7206  -2.7152  -2.0955  -2.0811
    -1.9706  -1.9626  -1.9315  -1.9266  -1.7959  -1.7900  -1.6806  -1.6421
    -1.4600  -1.2813  -1.2382  -0.8454  -0.8277  -0.7874  -0.6614  -0.6255
    -0.6162  -0.5489  -0.3838  -0.3575  -0.3345  -0.3341  -0.2777  -0.0607
    -0.0546   0.0966   0.1278   0.4927   0.6305   0.7181   0.7495   0.7858
     0.8137   0.8753   0.9569   1.0290   1.2287   1.2661   1.4116   1.4158
     1.4324   1.4691   1.5810   1.6275   1.6446   1.7058   1.7155   1.7577
     1.7702   1.8840   1.8912   1.9229   1.9353   2.1169   2.1251   2.3033
     2.3120   2.4371   2.5671   2.5774   2.7831   2.8019   2.8102   2.8960
     3.0607   3.0949   3.6354   3.7536   3.7744   3.9354   3.9503   6.8330
     6.8411   6.8624   7.0865   7.1643   8.1038   8.1767   8.5055   9.0312
     9.2643   9.3623   9.3774   9.3929   9.6055   9.6146   9.6939   9.7584
     9.8734   9.9414

          k = 0.3750 0.0000 0.0000 ( 34996 PWs)   bands (ev):

   -38.0822 -38.0292 -22.6220 -22.6149 -22.4222 -22.3594 -18.6021 -18.5528
   -18.4232 -18.3744 -18.0739 -18.0190 -14.7930 -14.7723 -14.7248 -14.6713
   -14.5067 -14.4804 -14.3213 -14.1139 -14.1078 -13.9994 -13.9517 -13.6972
   -13.6894 -13.4563 -12.7141  -7.9747  -7.9664  -7.8101  -7.7206  -7.5597
    -7.5533  -7.4885  -7.4818  -7.3698  -7.2792  -7.1733  -7.1079  -2.7666
    -2.7395  -2.6241  -2.5597  -1.9142  -1.9140  -1.6688  -1.6397  -1.5983
    -1.5919  -1.5642  -1.5425  -1.5277  -0.9325  -0.9013  -0.8979  -0.8752
    -0.8490  -0.6977  -0.6949  -0.6648  -0.5961  -0.5329  -0.5298  -0.3790
    -0.3701  -0.1976  -0.1605  -0.1361  -0.0901  -0.0748  -0.0155   0.0856
     0.1277   0.2396   0.3866   0.4351   0.5240   0.5348   0.5532   0.5605
     0.6380   0.7744   0.7778   0.7842   0.8021   0.8171   0.8172   0.8773
     0.9318   0.9588   0.9791   1.1484   1.1715   1.2130   1.4260   1.4392
     1.4758   1.5294   1.5360   1.5870   1.6101   1.6379   1.7770   1.8592
     1.8830   1.8967   1.9413   1.9770   1.9885   2.0419   2.1791   2.3096
     2.3191   2.5986   2.6135   2.7492   2.8044   3.0075   3.0692   6.6054
     6.6126   6.7090   7.2938   7.3496   8.0935   8.1048   8.1125   8.1416
     8.4023   8.5343   8.5571   8.7790   8.9712   9.0161   9.1194   9.4682
     9.5681   9.5856

          k = 0.3750 0.1281 0.0000 ( 34944 PWs)   bands (ev):

   -38.0799 -38.0270 -22.6050 -22.5979 -22.4054 -22.3436 -18.5948 -18.5455
   -18.3903 -18.3414 -18.1722 -18.1176 -14.7299 -14.7130 -14.6429 -14.5828
   -14.4568 -14.4379 -14.2693 -14.0836 -14.0772 -14.0672 -14.0170 -13.6808
   -13.6729 -13.4506 -12.6827  -7.9756  -7.9676  -7.8138  -7.8055  -7.8001
    -7.7163  -7.5892  -7.5210  -7.5145  -7.4191  -7.3272  -7.1333  -2.9169
    -2.8790  -2.6770  -2.6151  -1.9513  -1.9435  -1.8708  -1.8466  -1.7427
    -1.7146  -1.5224  -1.4866  -1.4305  -1.2449  -1.2261  -1.1807  -1.1287
    -0.9481  -0.9201  -0.9163  -0.7895  -0.7478  -0.7254  -0.6637  -0.4800
    -0.4381  -0.1977  -0.0919  -0.0339   0.0862   0.1144   0.1402   0.1542
     0.1997   0.2370   0.2528   0.3383   0.3578   0.4851   0.4878   0.6012
     0.6544   0.6748   0.6836   0.8428   0.8514   0.9552   0.9642   0.9687
     1.1398   1.1798   1.2452   1.3131   1.3452   1.3683   1.4335   1.4464
     1.4955   1.5121   1.6223   1.6736   1.6797   1.7324   1.8318   1.8473
     1.8517   1.8627   1.8986   1.9513   2.0090   2.0935   2.2481   2.8273
     2.9201   2.9470   3.0196   3.0668   3.0844   3.2894   3.3075   6.7190
     6.7332   6.7519   7.3796   7.4339   7.7456   7.8041   8.1807   8.1885
     8.4653   8.8093   8.8709   8.9360   8.9758   9.0367   9.2340   9.3183
     9.5426   9.6863

          k = 0.3750 0.2563 0.0000 ( 34989 PWs)   bands (ev):

   -38.0744 -38.0215 -22.5635 -22.5564 -22.3642 -22.3051 -18.5773 -18.5279
   -18.3873 -18.3333 -18.3071 -18.2580 -14.6112 -14.5910 -14.4531 -14.4064
   -14.3139 -14.2917 -14.2323 -14.1873 -14.1231 -14.0147 -13.9934 -13.6433
   -13.6348 -13.4484 -12.6048  -8.2159  -8.2094  -7.9951  -7.9321  -7.9240
    -7.7965  -7.7897  -7.7831  -7.7544  -7.6971  -7.5850  -7.3912  -3.3590
    -3.3128  -2.9067  -2.8433  -2.1402  -2.1268  -2.0529  -2.0253  -1.9222
    -1.9189  -1.8093  -1.7777  -1.7528  -1.7029  -1.6959  -1.5554  -1.5137
    -1.4861  -1.2049  -1.1513  -0.7790  -0.7399  -0.6827  -0.6363  -0.5174
    -0.4408  -0.4280  -0.2070  -0.1599  -0.1278  -0.1049  -0.0942   0.0127
     0.0318   0.1237   0.1677   0.4407   0.5720   0.7498   0.7719   0.8024
     0.9090   0.9702   1.0198   1.0520   1.1228   1.1530   1.3272   1.3491
     1.3630   1.3858   1.4794   1.4995   1.5041   1.5429   1.5589   1.6407
     1.7048   1.7258   1.7421   1.7579   1.8786   1.9092   1.9801   2.0517
     2.0654   2.1015   2.1058   2.1225   2.1685   2.2195   2.6372   2.7821
     3.2823   3.3243   3.4783   3.8099   3.8247   3.9546   3.9706   6.6301
     6.7064   6.7214   7.1565   7.2124   7.8478   7.9022   8.4162   8.4304
     8.5336   8.9160   9.2015   9.2238   9.2473   9.2870   9.4881   9.5476
     9.6465   9.7091

          k = 0.3750 0.3844 0.0000 ( 35061 PWs)   bands (ev):

   -38.0689 -38.0160 -22.5211 -22.5139 -22.3222 -22.2658 -18.5819 -18.5569
   -18.5287 -18.5070 -18.2178 -18.1686 -14.5034 -14.4745 -14.3957 -14.3584
   -14.3038 -14.2827 -14.1359 -14.0968 -13.9620 -13.9293 -13.9159 -13.6099
   -13.6005 -13.4768 -12.5239  -8.4823  -8.4759  -8.2521  -8.1186  -8.1119
    -8.0312  -7.9204  -7.9122  -7.8940  -7.7511  -7.7396  -7.6847  -3.8117
    -3.7658  -3.2677  -3.2057  -2.4570  -2.4489  -2.4389  -2.2351  -2.2237
    -2.2045  -2.1708  -2.1421  -2.1111  -1.8118  -1.8116  -1.6964  -1.6560
    -1.4628  -1.0563  -1.0153  -0.8707  -0.8335  -0.6905  -0.6734  -0.6480
    -0.5718  -0.5018  -0.4598  -0.4152  -0.3515  -0.3348  -0.3219   0.0640
     0.0828   0.1231   0.2254   0.4957   0.7102   0.8969   1.0318   1.0498
     1.0702   1.0848   1.2665   1.3764   1.4642   1.4907   1.4937   1.5033
     1.5648   1.6147   1.6456   1.6972   1.7064   1.7129   1.7626   1.7817
     1.7872   1.8807   1.9075   2.0134   2.0240   2.0285   2.2417   2.2634
     2.3334   2.4099   2.4227   2.5444   2.5527   2.5936   2.7102   2.8872
     3.2078   3.2481   3.6162   4.3532   4.3696   4.4611   4.4728   6.3148
     6.3427   6.3605   6.8533   6.9265   8.1568   8.1995   8.5867   8.7317
     9.0027   9.0123   9.0565   9.1235   9.4189   9.5516   9.6381   9.6532
     9.7899   9.8776

          k = 0.3750-0.5125 0.0000 ( 35078 PWs)   bands (ev):

   -38.0666 -38.0137 -22.5033 -22.4961 -22.3046 -22.2494 -18.6541 -18.6005
   -18.5516 -18.5021 -18.1787 -18.1294 -14.5097 -14.4662 -14.4092 -14.3811
   -14.2452 -14.2395 -14.0571 -14.0242 -13.9487 -13.8784 -13.8245 -13.5983
   -13.5884 -13.5112 -12.4893  -8.5613  -8.5550  -8.3342  -8.2738  -8.2670
    -8.0665  -8.0369  -7.9320  -7.9152  -7.9066  -7.7456  -7.6858  -3.9926
    -3.9473  -3.4329  -3.3714  -2.6969  -2.6935  -2.6868  -2.3441  -2.3085
    -2.2513  -2.2417  -2.1535  -2.1210  -1.8074  -1.8073  -1.7442  -1.7043
    -1.4454  -1.0790  -1.0417  -0.8255  -0.7912  -0.7525  -0.7312  -0.7241
    -0.5883  -0.5491  -0.5432  -0.4824  -0.4326  -0.4178  -0.4068   0.0782
     0.1176   0.1379   0.2598   0.5214   0.7490   0.9129   1.0867   1.0930
     1.1636   1.1955   1.3436   1.4999   1.5228   1.5259   1.5404   1.5701
     1.7034   1.7048   1.7319   1.7467   1.7713   1.8020   1.8363   1.9364
     1.9441   1.9840   1.9896   2.0567   2.0792   2.1441   2.2447   2.2984
     2.5858   2.5959   2.6700   2.7409   2.7461   2.7494   2.7881   2.8954
     3.0356   3.0830   3.6093   4.5158   4.5335   4.6282   4.6389   6.1398
     6.1468   6.1621   6.7507   6.8357   8.2876   8.3519   8.3584   8.7489
     9.0549   9.1593   9.3428   9.3827   9.4683   9.5308   9.5616   9.6275
     9.7284   9.7934

          k =-0.5000 0.0000 0.0000 ( 34974 PWs)   bands (ev):

   -38.0803 -38.0274 -22.6025 -22.5954 -22.4032 -22.3432 -18.6742 -18.6252
   -18.3849 -18.3357 -18.0713 -18.0165 -14.8306 -14.8079 -14.6104 -14.5854
   -14.5655 -14.5426 -14.3693 -14.1306 -14.1225 -13.9879 -13.9399 -13.6914
   -13.6836 -13.4577 -12.7768  -7.9739  -7.9656  -7.8069  -7.7069  -7.5369
    -7.5306  -7.4502  -7.4435  -7.3620  -7.2429  -7.1473  -7.0775  -2.8903
    -2.8639  -2.7395  -2.6762  -1.9408  -1.9408  -1.6339  -1.6183  -1.6077
    -1.5642  -1.5542  -1.3723  -1.3416  -1.1743  -1.1520  -0.9786  -0.8247
    -0.8098  -0.8092  -0.7894  -0.7835  -0.6628  -0.6286  -0.6258  -0.3810
    -0.3731  -0.3642  -0.3374  -0.2142  -0.1258  -0.0975  -0.0958   0.0507
     0.0702   0.2394   0.4154   0.4817   0.5357   0.5456   0.5476   0.5549
     0.6317   0.7835   0.7895   0.7959   0.8129   0.8706   0.8774   0.8829
     0.8852   0.9212   0.9454   1.0924   1.3104   1.3251   1.4662   1.4728
     1.4803   1.4983   1.5135   1.5567   1.6166   1.6658   1.6987   1.9243
     1.9280   1.9615   1.9727   1.9843   2.0652   2.0877   2.1107   2.2947
     2.3015   2.5866   2.5949   2.7504   2.7944   3.0217   3.0751   7.1354
     7.3406   7.3713   7.4605   7.4680   7.6009   7.6916   7.9061   8.0757
     8.1236   8.7178   8.7525   9.0724   9.2934   9.3235   9.4141   9.4758
     9.5376   9.7802

          k =-0.5000 0.1281 0.0000 ( 34968 PWs)   bands (ev):

   -38.0781 -38.0252 -22.5864 -22.5793 -22.3872 -22.3280 -18.6664 -18.6174
   -18.3526 -18.3034 -18.1689 -18.1143 -14.7818 -14.7584 -14.5381 -14.5026
   -14.4944 -14.4496 -14.3159 -14.0996 -14.0910 -14.0546 -14.0062 -13.6731
   -13.6651 -13.4476 -12.7321  -7.9698  -7.9617  -7.8040  -7.7043  -7.6721
    -7.6657  -7.6615  -7.6547  -7.4862  -7.4482  -7.2822  -7.2666  -3.0461
    -3.0089  -2.8006  -2.7392  -1.9635  -1.9588  -1.8601  -1.8339  -1.6045
    -1.5270  -1.4984  -1.4793  -1.4770  -1.4684  -1.4266  -1.3384  -1.2789
    -0.9293  -0.9266  -0.9203  -0.8047  -0.7109  -0.6814  -0.6713  -0.5475
    -0.5426  -0.1946  -0.1408  -0.0813   0.0791   0.0821   0.1236   0.1291
     0.1368   0.1571   0.1922   0.2506   0.2853   0.4895   0.4965   0.6059
     0.6653   0.7472   0.7710   0.8361   0.8458   1.0090   1.0402   1.0478
     1.1580   1.1733   1.2531   1.3248   1.4095   1.4177   1.4548   1.4782
     1.4946   1.5144   1.6058   1.6372   1.6423   1.6911   1.8705   1.8922
     1.9186   1.9438   1.9580   2.0471   2.0522   2.0787   2.0926   2.8084
     2.9445   2.9602   3.0127   3.0597   3.0769   3.3102   3.3278   7.0161
     7.1778   7.1886   7.5574   7.6054   7.7047   7.7931   7.8007   7.8178
     8.1509   9.1370   9.1470   9.1867   9.2131   9.3721   9.4519   9.4745
     9.5169   9.6194

          k =-0.5000 0.2563 0.0000 ( 34990 PWs)   bands (ev):

   -38.0726 -38.0197 -22.5469 -22.5398 -22.3480 -22.2909 -18.6477 -18.5986
   -18.3829 -18.3288 -18.2709 -18.2216 -14.6588 -14.6334 -14.4166 -14.3978
   -14.2354 -14.2190 -14.2079 -14.1714 -14.1526 -14.0247 -14.0115 -13.6335
   -13.6251 -13.4369 -12.6177  -8.1381  -8.1315  -7.9833  -7.9768  -7.9385
    -7.9302  -7.9236  -7.7732  -7.7663  -7.7204  -7.6556  -7.6034  -3.5012
    -3.4547  -3.0432  -2.9806  -2.1566  -2.1425  -2.0401  -2.0147  -1.9634
    -1.9284  -1.9162  -1.9124  -1.7368  -1.7044  -1.6975  -1.6366  -1.5920
    -1.5021  -1.1755  -1.1230  -0.7612  -0.7224  -0.6353  -0.5577  -0.5416
    -0.5349  -0.4408  -0.2023  -0.1571  -0.1562  -0.1494  -0.1369   0.0222
     0.0324   0.1121   0.1674   0.4297   0.5880   0.7901   0.8108   0.8197
     0.9196   1.0158   1.0565   1.1059   1.2823   1.3138   1.3599   1.3986
     1.4218   1.4415   1.5359   1.5775   1.5940   1.6001   1.6003   1.6101
     1.6349   1.7257   1.7933   1.8321   1.9223   2.0122   2.0291   2.0411
     2.0570   2.0671   2.0953   2.1161   2.1934   2.3363   2.3952   2.7451
     3.2788   3.3213   3.4736   3.9211   3.9348   4.0492   4.0638   6.5939
     6.6653   6.6744   7.0715   7.1314   7.9822   8.0687   8.4902   8.5209
     8.5401   9.0181   9.1836   9.2929   9.3234   9.4355   9.5009   9.5462
     9.6624   9.7624

          k =-0.5000 0.3844 0.0000 ( 35110 PWs)   bands (ev):

   -38.0671 -38.0142 -22.5067 -22.4996 -22.3080 -22.2532 -18.6289 -18.5797
   -18.5738 -18.5201 -18.1834 -18.1339 -14.5296 -14.5019 -14.3886 -14.3437
   -14.2756 -14.2719 -14.0108 -13.9988 -13.9537 -13.9490 -13.9052 -13.6042
   -13.5949 -13.4654 -12.4922  -8.5317  -8.5252  -8.3031  -8.2772  -8.2705
    -8.0566  -8.0452  -7.9337  -7.9253  -7.9215  -7.7667  -7.6844  -3.9727
    -3.9260  -3.4100  -3.3483  -2.4451  -2.4371  -2.4261  -2.3476  -2.3098
    -2.2683  -2.2588  -2.1714  -2.1435  -1.8109  -1.8108  -1.7345  -1.6916
    -1.4621  -0.9684  -0.9376  -0.9284  -0.9013  -0.6677  -0.6359  -0.6294
    -0.6203  -0.5591  -0.4572  -0.4299  -0.3787  -0.3705  -0.3690   0.0948
     0.1384   0.1438   0.2705   0.5026   0.7436   0.9396   1.1371   1.1654
     1.2295   1.2602   1.4087   1.4691   1.4951   1.5287   1.5372   1.6171
     1.6469   1.6599   1.6977   1.7359   1.7609   1.8044   1.8490   1.8787
     1.9022   1.9535   1.9634   2.0056   2.0317   2.1453   2.1994   2.2464
     2.3501   2.4054   2.5064   2.5145   2.5643   2.6673   2.7674   2.8096
     3.2052   3.2470   3.6110   4.5781   4.5930   4.6667   4.6770   6.0841
     6.1049   6.1213   6.7453   6.8200   8.2319   8.3462   8.5068   8.6277
     8.8585   8.9841   9.2742   9.3386   9.4385   9.4828   9.5165   9.6574
     9.7228   9.7616

          k =-0.5000-0.5125 0.0000 ( 35092 PWs)   bands (ev):

   -38.0648 -38.0119 -22.4899 -22.4827 -22.2913 -22.2374 -18.6477 -18.6211
   -18.5941 -18.5719 -18.1451 -18.0955 -14.4748 -14.4606 -14.4466 -14.4152
   -14.2075 -14.2054 -13.9622 -13.9290 -13.9060 -13.8564 -13.8135 -13.5965
   -13.5866 -13.5096 -12.4363  -8.6837  -8.6773  -8.4520  -8.3947  -8.3879
    -8.1973  -8.1546  -8.0530  -7.9311  -7.9226  -7.7636  -7.6835  -4.1620
    -4.1158  -3.5774  -3.5161  -2.6842  -2.6817  -2.6746  -2.4780  -2.4401
    -2.2957  -2.2869  -2.1943  -2.1653  -1.7994  -1.7990  -1.7682  -1.7260
    -1.4348  -1.0182  -0.9833  -0.8940  -0.8607  -0.7662  -0.6919  -0.6724
    -0.6444  -0.5724  -0.5438  -0.5143  -0.4625  -0.4564  -0.4529   0.0937
     0.1816   0.1869   0.3082   0.5339   0.7858   0.9597   1.2201   1.2601
     1.4419   1.4728   1.5393   1.5513   1.5623   1.5673   1.5745   1.5967
     1.6101   1.7039   1.7739   1.8275   1.8586   1.8838   1.9030   2.0680
     2.0841   2.0875   2.0949   2.1025   2.1049   2.1631   2.2675   2.3710
     2.6059   2.6158   2.7135   2.7219   2.7329   2.7703   2.9296   2.9976
     3.0291   3.0791   3.5988   4.7921   4.8077   4.8962   4.9056   5.8498
     5.8568   5.8739   6.6327   6.7218   8.3043   8.4501   8.4551   8.4628
     8.7881   8.9970   9.2047   9.2786   9.3392   9.3827   9.5105   9.5788
     9.6038   9.9735

     the Fermi energy is     3.0105 ev

!    total energy              =   -1868.76360865 Ry
     Harris-Foulkes estimate   =   -1868.76360913 Ry
     estimated scf accuracy    <       0.00000073 Ry

     The total energy is the sum of the following terms:

     one-electron contribution =  -30376.55876993 Ry
     hartree contribution      =   15343.33691739 Ry
     xc contribution           =    -642.21573072 Ry
     ewald contribution        =   13806.68419720 Ry
     smearing contrib. (-TS)   =      -0.01022258 Ry

     convergence has been achieved in  36 iterations

     negative rho (up, down):  9.053E-02 0.000E+00

     Forces acting on atoms (cartesian axes, Ry/au):

     atom    1 type  3   force =     0.00000000    0.00000000   -0.00005161
     atom    2 type  2   force =     0.00000000    0.00000000    0.00006134
     atom    3 type  3   force =     0.00000000    0.00000000    0.00019594
     atom    4 type  1   force =     0.00000000    0.00000000   -0.00013686
     atom    5 type  2   force =     0.00000000    0.00000000   -0.00138732
     atom    6 type  3   force =     0.00000000    0.00000000    0.00095396
     atom    7 type  3   force =     0.00000000    0.00000000    0.00062038
     atom    8 type  4   force =     0.00000000    0.00000000   -0.00157978
     atom    9 type  3   force =     0.00000000    0.00000000    0.00276520
     atom   10 type  3   force =     0.00000000    0.00000000    0.00217652
     atom   11 type  2   force =     0.00000000    0.00000000   -0.00121610
     atom   12 type  1   force =     0.00000000    0.00000000    0.01494097
     atom   13 type  3   force =     0.00000000    0.00000000   -0.01356304
     atom   14 type  3   force =     0.00000000    0.00000000    0.02009339
     atom   15 type  2   force =     0.00000000    0.00000000    0.00792612
     atom   16 type  3   force =     0.00000000    0.00000000   -0.00110554
     atom   17 type  1   force =     0.00000000    0.00000000   -0.02030441
     atom   18 type  2   force =     0.00000000    0.00000000   -0.01807647
     atom   19 type  3   force =     0.00000000    0.00000000    0.00473198
     atom   20 type  3   force =     0.00000000    0.00000000    0.00266516
     atom   21 type  4   force =     0.00000000    0.00000000   -0.00089463
     atom   22 type  3   force =     0.00000000    0.00000000   -0.00002292
     atom   23 type  3   force =     0.00000000    0.00000000    0.00059536
     atom   24 type  2   force =     0.00000000    0.00000000    0.00097937
     atom   25 type  1   force =     0.00000000    0.00000000    0.00006777
     atom   26 type  3   force =     0.00000000    0.00000000   -0.00117609
     atom   27 type  2   force =     0.00000000    0.00000000    0.00057407
     atom   28 type  3   force =     0.00000000    0.00000000    0.00016725

     Total force =     0.040829     Total SCF correction =     0.003767


     Computing stress (Cartesian axis) and pressure


     negative rho (up, down):  9.053E-02 0.000E+00
          total   stress  (Ry/bohr**3)                   (kbar)     P=       -5.49
   0.00000905   0.00000000   0.00000000            1.33        0.00        0.00
   0.00000000  -0.00006882   0.00000000            0.00      -10.12        0.00
   0.00000000   0.00000000  -0.00005211            0.00        0.00       -7.67

 
     init_run     :      8.66s CPU      9.42s WALL (       1 calls)
     electrons    :    591.42s CPU    632.51s WALL (       1 calls)
     forces       :      3.55s CPU      3.90s WALL (       1 calls)
     stress       :     19.76s CPU     20.70s WALL (       1 calls)

     Called by init_run:
     wfcinit      :      6.17s CPU      6.38s WALL (       1 calls)
     potinit      :      0.62s CPU      0.64s WALL (       1 calls)
     hinit0       :      1.03s CPU      1.19s WALL (       1 calls)

     Called by electrons:
     c_bands      :    472.23s CPU    489.23s WALL (      36 calls)
     sum_band     :     79.97s CPU     93.19s WALL (      36 calls)
     v_of_rho     :      2.92s CPU      2.96s WALL (      37 calls)
     newd         :     18.74s CPU     29.65s WALL (      37 calls)
     mix_rho      :     17.89s CPU     18.07s WALL (      36 calls)

     Called by c_bands:
     init_us_2    :      3.70s CPU      3.77s WALL (    1875 calls)
     cegterg      :    446.10s CPU    462.53s WALL (     900 calls)

     Called by sum_band:
     sum_band:bec :      0.25s CPU      0.25s WALL (     900 calls)
     addusdens    :     20.05s CPU     32.47s WALL (      36 calls)

     Called by *egterg:
     h_psi        :    212.91s CPU    222.75s WALL (    4320 calls)
     s_psi        :     22.95s CPU     23.32s WALL (    4320 calls)
     g_psi        :      0.68s CPU      0.69s WALL (    3395 calls)
     cdiaghg      :    132.99s CPU    133.63s WALL (    4295 calls)

     Called by h_psi:
     h_psi:calbec :     25.33s CPU     26.52s WALL (    4320 calls)
     vloc_psi     :    162.30s CPU    165.27s WALL (    4320 calls)
     add_vuspsi   :     24.08s CPU     27.29s WALL (    4320 calls)

     General routines
     calbec       :     41.20s CPU     42.45s WALL (    5345 calls)
     fft          :      2.34s CPU      2.46s WALL (     504 calls)
     ffts         :      9.64s CPU      9.75s WALL (   16710 calls)
     fftw         :    186.26s CPU    189.58s WALL (  646252 calls)
     interpolate  :      0.16s CPU      0.17s WALL (      37 calls)
 
     Parallel routines
     fft_scatt_xy :     24.04s CPU     24.45s WALL (  663466 calls)
     fft_scatt_yz :    114.49s CPU    116.49s WALL (  663466 calls)
 
     PWSCF        :  10m24.19s CPU  11m 7.65s WALL

 
   This run was terminated on:  17:26:13   5May2021            

=------------------------------------------------------------------------------=
   JOB DONE.
=------------------------------------------------------------------------------=
[1620249973.504935] [holy7c10410:211291:0]          mpool.c:43   UCX  WARN  object 0x3501900 was not returned to mpool ucp_requests
[1620249973.505677] [holy7c10101:156755:0]          mpool.c:43   UCX  WARN  object 0x2bdf880 was not returned to mpool ucp_requests
[1620249973.505691] [holy7c10101:156755:0]          mpool.c:43   UCX  WARN  object 0x2bdff80 was not returned to mpool ucp_requests
[1620249973.509081] [holy7c10204:9263 :0]          mpool.c:43   UCX  WARN  object 0x4454700 was not returned to mpool ucp_requests
[1620249973.509099] [holy7c10204:9263 :0]          mpool.c:43   UCX  WARN  object 0x4454c40 was not returned to mpool ucp_requests
[1620249973.504738] [holy7c10404:93153:0]          mpool.c:43   UCX  WARN  object 0x387bf80 was not returned to mpool ucp_requests
[1620249973.511682] [holy7c10312:6660 :0]          mpool.c:43   UCX  WARN  object 0x39b8f00 was not returned to mpool ucp_requests
[1620249973.511709] [holy7c10312:6660 :0]          mpool.c:43   UCX  WARN  object 0x39b9280 was not returned to mpool ucp_requests
[1620249973.511793] [holy7c10106:36418:0]          mpool.c:43   UCX  WARN  object 0x4559540 was not returned to mpool ucp_requests
[1620249973.514264] [holy7c10311:237247:0]          mpool.c:43   UCX  WARN  object 0x3e54b00 was not returned to mpool ucp_requests
