
     Program PWSCF v.6.5 starts on  5May2021 at 17:29:20 

     This program is part of the open-source Quantum ESPRESSO suite
     for quantum simulation of materials; please cite
         "P. Giannozzi et al., J. Phys.:Condens. Matter 21 395502 (2009);
         "P. Giannozzi et al., J. Phys.:Condens. Matter 29 465901 (2017);
          URL http://www.quantum-espresso.org", 
     in publications or presentations arising from this work. More details at
     http://www.quantum-espresso.org/quote

     Parallel version (MPI), running on    20 processors

     MPI processes distributed on     9 nodes
     R & G space division:  proc/nbgrp/npool/nimage =      20
     Reading input from YBCO_BaO_cleave_4.5_sep_scf.pwi
Warning: card &IONS ignored
Warning: card     ION_DYNAMICS = 'BFGS' ignored
Warning: card / ignored
Warning: card &CELL ignored
Warning: card     CELL_DYNAMICS = 'BFGS' ignored
Warning: card / ignored

     Current dimensions of program PWSCF are:
     Max number of different atomic species (ntypx) = 10
     Max number of k-points (npk) =  40000
     Max angular momentum in pseudopotentials (lmaxx) =  3

     Subspace diagonalization in iterative solution of the eigenvalue problem:
     one sub-group per band group will be used
     scalapack distributed-memory algorithm (size of sub-group:  4*  4 procs)

     Message from routine setup:
     using ibrav=0 with symmetry is DISCOURAGED, use correct ibrav instead
 
     Parallelization info
     --------------------
     sticks:   dense  smooth     PW     G-vecs:    dense   smooth      PW
     Min         150      50     14                78364    15076    2348
     Max         151      51     15                78407    15103    2397
     Sum        3015    1011    293              1567709   301719   47495
 


     bravais-lattice index     =            0
     lattice parameter (alat)  =       7.3477  a.u.
     unit-cell volume          =    4804.6619 (a.u.)^3
     number of atoms/cell      =           28
     number of atomic types    =            4
     number of electrons       =       229.00
     number of Kohn-Sham states=          138
     kinetic-energy cutoff     =      60.0000  Ry
     charge density cutoff     =     720.0000  Ry
     convergence threshold     =      1.0E-06
     mixing beta               =       0.2000
     number of iterations used =           10  local-TF  mixing
     Exchange-correlation= SLA PW PBE PBE
                           (   1   4   3   4   0   0   0)

     celldm(1)=   7.347715  celldm(2)=   0.000000  celldm(3)=   0.000000
     celldm(4)=   0.000000  celldm(5)=   0.000000  celldm(6)=   0.000000

     crystal axes: (cart. coord. in units of alat)
               a(1) = (   1.000000   0.000000   0.000000 )  
               a(2) = (   0.000000   0.975577   0.000000 )  
               a(3) = (   0.000000   0.000000  12.414928 )  

     reciprocal axes: (cart. coord. in units 2 pi/alat)
               b(1) = (  1.000000  0.000000  0.000000 )  
               b(2) = (  0.000000  1.025034  0.000000 )  
               b(3) = (  0.000000  0.000000  0.080548 )  


     PseudoPot. # 1 for Ba read from file:
     /n/holyscratch01/hoffman_lab/ruizhe/YBCO_Project/pseudo/Ba.pbe-nsp-van.UPF
     MD5 check sum: 2b9c31dd849566dd297d80989662b7a0
     Pseudo is Ultrasoft + core correction, Zval = 10.0
     Generated by new atomic code, or converted to UPF format
     Using radial grid of  907 points,  6 beta functions with: 
                l(1) =   0
                l(2) =   0
                l(3) =   1
                l(4) =   1
                l(5) =   2
                l(6) =   2
     Q(r) pseudized with  6 coefficients,  rinner =    1.200   1.200   1.200
                                                       1.200   1.200

     PseudoPot. # 2 for Cu read from file:
     /n/holyscratch01/hoffman_lab/ruizhe/YBCO_Project/pseudo/Cu.pbe-n-van_ak.UPF
     MD5 check sum: 34e3282627ffb533726feb647e090d62
     Pseudo is Ultrasoft + core correction, Zval = 11.0
     Generated by new atomic code, or converted to UPF format
     Using radial grid of  867 points,  6 beta functions with: 
                l(1) =   0
                l(2) =   0
                l(3) =   1
                l(4) =   1
                l(5) =   2
                l(6) =   2
     Q(r) pseudized with  8 coefficients,  rinner =    1.400   1.400   1.400
                                                       1.400   1.400

     PseudoPot. # 3 for O  read from file:
     /n/holyscratch01/hoffman_lab/ruizhe/YBCO_Project/pseudo/O.pbe-van_ak.UPF
     MD5 check sum: 783ce7fe4c79b6a4916957118fed0856
     Pseudo is Ultrasoft, Zval =  6.0
     Generated by new atomic code, or converted to UPF format
     Using radial grid of  737 points,  4 beta functions with: 
                l(1) =   0
                l(2) =   0
                l(3) =   1
                l(4) =   1
     Q(r) pseudized with  8 coefficients,  rinner =    0.800   0.800   0.800


     PseudoPot. # 4 for Y  read from file:
     /n/holyscratch01/hoffman_lab/ruizhe/YBCO_Project/pseudo/Y.pbe-nsp-van.UPF
     MD5 check sum: 4412fed3ab108fed87a1b7d6a69a4a38
     Pseudo is Ultrasoft + core correction, Zval = 11.0
     Generated by new atomic code, or converted to UPF format
     Using radial grid of  885 points,  6 beta functions with: 
                l(1) =   0
                l(2) =   0
                l(3) =   1
                l(4) =   1
                l(5) =   2
                l(6) =   2
     Q(r) pseudized with  6 coefficients,  rinner =    1.200   1.200   1.200
                                                       1.200   1.200

     atomic species   valence    mass     pseudopotential
        Ba            10.00   137.32700     Ba( 1.00)
        Cu            11.00    63.54600     Cu( 1.00)
        O              6.00    15.99900     O ( 1.00)
        Y             11.00    88.90584     Y ( 1.00)

      4 Sym. Ops. (no inversion) found



   Cartesian axes

     site n.     atom                  positions (alat units)
         1           O   tau(   1) = (   0.0000000   0.4877884  -0.0257983  )
         2           Cu  tau(   2) = (   0.0000000   0.0000000   0.0215779  )
         3           O   tau(   3) = (   0.0000000   0.0000000   0.5073114  )
         4           Ba  tau(   4) = (   0.4999996   0.4877884   0.5319677  )
         5           Cu  tau(   5) = (   0.0000000   0.0000000   1.0495845  )
         6           O   tau(   6) = (   0.4999996   0.0000000   1.1181579  )
         7           O   tau(   7) = (   0.0000000   0.4877884   1.1273137  )
         8           Y   tau(   8) = (   0.4999996   0.4877884   1.4938777  )
         9           O   tau(   9) = (   0.0000000   0.4877884   1.8497402  )
        10           O   tau(  10) = (   0.4999996   0.0000000   1.8692709  )
        11           Cu  tau(  11) = (   0.0000000   0.0000000   1.9417560  )
        12           Ba  tau(  12) = (   0.4999996   0.4877884   2.4526063  )
        13           O   tau(  13) = (   0.0000000   0.0000000   2.5103470  )
        14           O   tau(  14) = (   0.0000000   0.4877884   2.9968469  )
        15           Cu  tau(  15) = (   0.0000000   0.0000000   2.9968521  )
        16           O   tau(  16) = (   0.0000000   0.0000000   3.4833288  )
        17           Ba  tau(  17) = (   0.4999996   0.4877884   3.5410618  )
        18           Cu  tau(  18) = (   0.0000000   0.0000000   5.2092702  )
        19           O   tau(  19) = (   0.4999996   0.0000000   5.2817425  )
        20           O   tau(  20) = (   0.0000000   0.4877884   5.3012552  )
        21           Y   tau(  21) = (   0.4999996   0.4877884   5.6571202  )
        22           O   tau(  22) = (   0.0000000   0.4877884   6.0236842  )
        23           O   tau(  23) = (   0.4999996   0.0000000   6.0328529  )
        24           Cu  tau(  24) = (   0.0000000   0.0000000   6.1014314  )
        25           Ba  tau(  25) = (   0.4999996   0.4877884   6.6190328  )
        26           O   tau(  26) = (   0.0000000   0.0000000   6.6436891  )
        27           Cu  tau(  27) = (   0.0000000   0.0000000   7.1293943  )
        28           O   tau(  28) = (   0.0000000   0.4877884   7.1767756  )

     number of k points=    25  Gaussian smearing, width (Ry)=  0.0100
                       cart. coord. in units 2pi/alat
        k(    1) = (   0.0000000   0.0000000   0.0000000), wk =   0.0312500
        k(    2) = (   0.0000000   0.1281293   0.0000000), wk =   0.0625000
        k(    3) = (   0.0000000   0.2562585   0.0000000), wk =   0.0625000
        k(    4) = (   0.0000000   0.3843878   0.0000000), wk =   0.0625000
        k(    5) = (   0.0000000  -0.5125170   0.0000000), wk =   0.0312500
        k(    6) = (   0.1250000   0.0000000   0.0000000), wk =   0.0625000
        k(    7) = (   0.1250000   0.1281293   0.0000000), wk =   0.1250000
        k(    8) = (   0.1250000   0.2562585   0.0000000), wk =   0.1250000
        k(    9) = (   0.1250000   0.3843878   0.0000000), wk =   0.1250000
        k(   10) = (   0.1250000  -0.5125170   0.0000000), wk =   0.0625000
        k(   11) = (   0.2500000   0.0000000   0.0000000), wk =   0.0625000
        k(   12) = (   0.2500000   0.1281293   0.0000000), wk =   0.1250000
        k(   13) = (   0.2500000   0.2562585   0.0000000), wk =   0.1250000
        k(   14) = (   0.2500000   0.3843878   0.0000000), wk =   0.1250000
        k(   15) = (   0.2500000  -0.5125170   0.0000000), wk =   0.0625000
        k(   16) = (   0.3750000   0.0000000   0.0000000), wk =   0.0625000
        k(   17) = (   0.3750000   0.1281293   0.0000000), wk =   0.1250000
        k(   18) = (   0.3750000   0.2562585   0.0000000), wk =   0.1250000
        k(   19) = (   0.3750000   0.3843878   0.0000000), wk =   0.1250000
        k(   20) = (   0.3750000  -0.5125170   0.0000000), wk =   0.0625000
        k(   21) = (  -0.5000000   0.0000000   0.0000000), wk =   0.0312500
        k(   22) = (  -0.5000000   0.1281293   0.0000000), wk =   0.0625000
        k(   23) = (  -0.5000000   0.2562585   0.0000000), wk =   0.0625000
        k(   24) = (  -0.5000000   0.3843878   0.0000000), wk =   0.0625000
        k(   25) = (  -0.5000000  -0.5125170   0.0000000), wk =   0.0312500

     Dense  grid:  1567709 G-vectors     FFT dimensions: (  64,  64, 800)

     Smooth grid:   301719 G-vectors     FFT dimensions: (  40,  36, 450)

     Estimated max dynamical RAM per process >     500.02 MB

     Estimated total dynamical RAM >       9.77 GB

     Initial potential from superposition of free atoms

     starting charge  228.84827, renormalised to  229.00000

     negative rho (up, down):  8.956E-02 0.000E+00
     Starting wfcs are  201 randomized atomic wfcs

     total cpu time spent up to now is       11.8 secs

     Self-consistent Calculation

     iteration #  1     ecut=    60.00 Ry     beta= 0.20
     Davidson diagonalization with overlap
     ethr =  1.00E-02,  avg # of iterations =  2.0

     negative rho (up, down):  8.743E-02 0.000E+00

     total cpu time spent up to now is       31.3 secs

     total energy              =   -1869.58370554 Ry
     Harris-Foulkes estimate   =   -1871.19851093 Ry
     estimated scf accuracy    <      15.68119038 Ry

     iteration #  2     ecut=    60.00 Ry     beta= 0.20
     Davidson diagonalization with overlap
     ethr =  6.85E-03,  avg # of iterations =  1.0

     negative rho (up, down):  8.631E-02 0.000E+00

     total cpu time spent up to now is       49.5 secs

     total energy              =   -1869.15309897 Ry
     Harris-Foulkes estimate   =   -1869.95457198 Ry
     estimated scf accuracy    <       5.91377462 Ry

     iteration #  3     ecut=    60.00 Ry     beta= 0.20
     Davidson diagonalization with overlap
     ethr =  2.58E-03,  avg # of iterations =  1.0

     negative rho (up, down):  8.585E-02 0.000E+00

     total cpu time spent up to now is       67.4 secs

     total energy              =   -1868.73508452 Ry
     Harris-Foulkes estimate   =   -1869.34064288 Ry
     estimated scf accuracy    <       4.17082745 Ry

     iteration #  4     ecut=    60.00 Ry     beta= 0.20
     Davidson diagonalization with overlap
     ethr =  1.82E-03,  avg # of iterations =  1.5

     negative rho (up, down):  8.601E-02 0.000E+00

     total cpu time spent up to now is       85.5 secs

     total energy              =   -1868.93814597 Ry
     Harris-Foulkes estimate   =   -1868.99056147 Ry
     estimated scf accuracy    <       2.61717225 Ry

     iteration #  5     ecut=    60.00 Ry     beta= 0.20
     Davidson diagonalization with overlap
     ethr =  1.14E-03,  avg # of iterations =  1.0

     negative rho (up, down):  8.672E-02 0.000E+00

     total cpu time spent up to now is      102.9 secs

     total energy              =   -1868.87001857 Ry
     Harris-Foulkes estimate   =   -1868.97161298 Ry
     estimated scf accuracy    <       1.71216025 Ry

     iteration #  6     ecut=    60.00 Ry     beta= 0.20
     Davidson diagonalization with overlap
     ethr =  7.48E-04,  avg # of iterations =  1.0

     negative rho (up, down):  8.811E-02 0.000E+00

     total cpu time spent up to now is      120.3 secs

     total energy              =   -1868.81976001 Ry
     Harris-Foulkes estimate   =   -1868.89242286 Ry
     estimated scf accuracy    <       1.03149228 Ry

     iteration #  7     ecut=    60.00 Ry     beta= 0.20
     Davidson diagonalization with overlap
     ethr =  4.50E-04,  avg # of iterations =  2.8

     negative rho (up, down):  8.954E-02 0.000E+00

     total cpu time spent up to now is      140.2 secs

     total energy              =   -1868.78815025 Ry
     Harris-Foulkes estimate   =   -1868.83786547 Ry
     estimated scf accuracy    <       0.57215286 Ry

     iteration #  8     ecut=    60.00 Ry     beta= 0.20
     Davidson diagonalization with overlap
     ethr =  2.50E-04,  avg # of iterations =  6.2

     negative rho (up, down):  9.030E-02 0.000E+00

     total cpu time spent up to now is      165.6 secs

     total energy              =   -1868.79404148 Ry
     Harris-Foulkes estimate   =   -1868.81805836 Ry
     estimated scf accuracy    <       0.38508446 Ry

     iteration #  9     ecut=    60.00 Ry     beta= 0.20
     Davidson diagonalization with overlap
     ethr =  1.68E-04,  avg # of iterations =  2.8

     negative rho (up, down):  9.102E-02 0.000E+00

     total cpu time spent up to now is      185.1 secs

     total energy              =   -1868.79000877 Ry
     Harris-Foulkes estimate   =   -1868.80346813 Ry
     estimated scf accuracy    <       0.39073602 Ry

     iteration # 10     ecut=    60.00 Ry     beta= 0.20
     Davidson diagonalization with overlap
     ethr =  1.68E-04,  avg # of iterations =  1.2

     negative rho (up, down):  9.105E-02 0.000E+00

     total cpu time spent up to now is      202.7 secs

     total energy              =   -1868.77824133 Ry
     Harris-Foulkes estimate   =   -1868.79569976 Ry
     estimated scf accuracy    <       0.27631064 Ry

     iteration # 11     ecut=    60.00 Ry     beta= 0.20
     Davidson diagonalization with overlap
     ethr =  1.21E-04,  avg # of iterations =  4.1

     negative rho (up, down):  9.188E-02 0.000E+00

     total cpu time spent up to now is      224.5 secs

     total energy              =   -1868.77243992 Ry
     Harris-Foulkes estimate   =   -1868.78717033 Ry
     estimated scf accuracy    <       0.12213287 Ry

     iteration # 12     ecut=    60.00 Ry     beta= 0.20
     Davidson diagonalization with overlap
     ethr =  5.33E-05,  avg # of iterations =  7.7

     negative rho (up, down):  9.146E-02 0.000E+00

     total cpu time spent up to now is      253.1 secs

     total energy              =   -1868.77624775 Ry
     Harris-Foulkes estimate   =   -1868.78000930 Ry
     estimated scf accuracy    <       0.07458877 Ry

     iteration # 13     ecut=    60.00 Ry     beta= 0.20
     Davidson diagonalization with overlap
     ethr =  3.26E-05,  avg # of iterations =  1.1

     negative rho (up, down):  9.098E-02 0.000E+00

     total cpu time spent up to now is      270.7 secs

     total energy              =   -1868.77432993 Ry
     Harris-Foulkes estimate   =   -1868.77746819 Ry
     estimated scf accuracy    <       0.04611133 Ry

     iteration # 14     ecut=    60.00 Ry     beta= 0.20
     Davidson diagonalization with overlap
     ethr =  2.01E-05,  avg # of iterations =  5.6

     negative rho (up, down):  9.199E-02 0.000E+00

     total cpu time spent up to now is      294.3 secs

     total energy              =   -1868.77476527 Ry
     Harris-Foulkes estimate   =   -1868.77622209 Ry
     estimated scf accuracy    <       0.03223795 Ry

     iteration # 15     ecut=    60.00 Ry     beta= 0.20
     Davidson diagonalization with overlap
     ethr =  1.41E-05,  avg # of iterations =  2.8

     negative rho (up, down):  8.990E-02 0.000E+00

     total cpu time spent up to now is      314.2 secs

     total energy              =   -1868.77514709 Ry
     Harris-Foulkes estimate   =   -1868.77566836 Ry
     estimated scf accuracy    <       0.01120000 Ry

     iteration # 16     ecut=    60.00 Ry     beta= 0.20
     Davidson diagonalization with overlap
     ethr =  4.89E-06,  avg # of iterations =  6.0

     negative rho (up, down):  9.245E-02 0.000E+00

     total cpu time spent up to now is      338.8 secs

     total energy              =   -1868.77443923 Ry
     Harris-Foulkes estimate   =   -1868.77537457 Ry
     estimated scf accuracy    <       0.00997032 Ry

     iteration # 17     ecut=    60.00 Ry     beta= 0.20
     Davidson diagonalization with overlap
     c_bands:  1 eigenvalues not converged
     ethr =  4.35E-06,  avg # of iterations =  6.4

     negative rho (up, down):  9.295E-02 0.000E+00

     total cpu time spent up to now is      364.2 secs

     total energy              =   -1868.77401789 Ry
     Harris-Foulkes estimate   =   -1868.77460403 Ry
     estimated scf accuracy    <       0.00827992 Ry

     iteration # 18     ecut=    60.00 Ry     beta= 0.20
     Davidson diagonalization with overlap
     c_bands:  1 eigenvalues not converged
     ethr =  3.62E-06,  avg # of iterations =  2.9

     negative rho (up, down):  8.968E-02 0.000E+00

     total cpu time spent up to now is      384.1 secs

     total energy              =   -1868.77341098 Ry
     Harris-Foulkes estimate   =   -1868.77411444 Ry
     estimated scf accuracy    <       0.00724336 Ry

     iteration # 19     ecut=    60.00 Ry     beta= 0.20
     Davidson diagonalization with overlap
     ethr =  3.16E-06,  avg # of iterations =  5.7

     negative rho (up, down):  8.953E-02 0.000E+00

     total cpu time spent up to now is      408.3 secs

     total energy              =   -1868.77330353 Ry
     Harris-Foulkes estimate   =   -1868.77361653 Ry
     estimated scf accuracy    <       0.00742533 Ry

     iteration # 20     ecut=    60.00 Ry     beta= 0.20
     Davidson diagonalization with overlap
     ethr =  3.16E-06,  avg # of iterations =  1.9

     negative rho (up, down):  8.972E-02 0.000E+00

     total cpu time spent up to now is      426.6 secs

     total energy              =   -1868.77296228 Ry
     Harris-Foulkes estimate   =   -1868.77339434 Ry
     estimated scf accuracy    <       0.00626061 Ry

     iteration # 21     ecut=    60.00 Ry     beta= 0.20
     Davidson diagonalization with overlap
     ethr =  2.73E-06,  avg # of iterations =  4.5

     negative rho (up, down):  9.016E-02 0.000E+00

     total cpu time spent up to now is      448.9 secs

     total energy              =   -1868.77219553 Ry
     Harris-Foulkes estimate   =   -1868.77301467 Ry
     estimated scf accuracy    <       0.00635295 Ry

     iteration # 22     ecut=    60.00 Ry     beta= 0.20
     Davidson diagonalization with overlap
     ethr =  2.73E-06,  avg # of iterations =  5.7

     negative rho (up, down):  9.014E-02 0.000E+00

     total cpu time spent up to now is      473.8 secs

     total energy              =   -1868.77204751 Ry
     Harris-Foulkes estimate   =   -1868.77230175 Ry
     estimated scf accuracy    <       0.00409824 Ry

     iteration # 23     ecut=    60.00 Ry     beta= 0.20
     Davidson diagonalization with overlap
     ethr =  1.79E-06,  avg # of iterations =  4.0

     negative rho (up, down):  9.001E-02 0.000E+00

     total cpu time spent up to now is      495.6 secs

     total energy              =   -1868.77178943 Ry
     Harris-Foulkes estimate   =   -1868.77208619 Ry
     estimated scf accuracy    <       0.00298658 Ry

     iteration # 24     ecut=    60.00 Ry     beta= 0.20
     Davidson diagonalization with overlap
     ethr =  1.30E-06,  avg # of iterations =  5.4

     negative rho (up, down):  8.966E-02 0.000E+00

     total cpu time spent up to now is      519.2 secs

     total energy              =   -1868.77157591 Ry
     Harris-Foulkes estimate   =   -1868.77181425 Ry
     estimated scf accuracy    <       0.00244273 Ry

     iteration # 25     ecut=    60.00 Ry     beta= 0.20
     Davidson diagonalization with overlap
     ethr =  1.07E-06,  avg # of iterations =  4.5

     negative rho (up, down):  8.945E-02 0.000E+00

     total cpu time spent up to now is      541.8 secs

     total energy              =   -1868.77152617 Ry
     Harris-Foulkes estimate   =   -1868.77160788 Ry
     estimated scf accuracy    <       0.00150764 Ry

     iteration # 26     ecut=    60.00 Ry     beta= 0.20
     Davidson diagonalization with overlap
     ethr =  6.58E-07,  avg # of iterations =  3.4

     negative rho (up, down):  9.032E-02 0.000E+00

     total cpu time spent up to now is      562.6 secs

     total energy              =   -1868.77139601 Ry
     Harris-Foulkes estimate   =   -1868.77154277 Ry
     estimated scf accuracy    <       0.00083328 Ry

     iteration # 27     ecut=    60.00 Ry     beta= 0.20
     Davidson diagonalization with overlap
     ethr =  3.64E-07,  avg # of iterations =  6.6

     negative rho (up, down):  9.024E-02 0.000E+00

     total cpu time spent up to now is      588.2 secs

     total energy              =   -1868.77143727 Ry
     Harris-Foulkes estimate   =   -1868.77143876 Ry
     estimated scf accuracy    <       0.00055846 Ry

     iteration # 28     ecut=    60.00 Ry     beta= 0.20
     Davidson diagonalization with overlap
     ethr =  2.44E-07,  avg # of iterations =  1.0

     negative rho (up, down):  8.983E-02 0.000E+00

     total cpu time spent up to now is      605.5 secs

     total energy              =   -1868.77148593 Ry
     Harris-Foulkes estimate   =   -1868.77144358 Ry
     estimated scf accuracy    <       0.00037250 Ry

     iteration # 29     ecut=    60.00 Ry     beta= 0.20
     Davidson diagonalization with overlap
     ethr =  1.63E-07,  avg # of iterations =  1.9

     negative rho (up, down):  8.980E-02 0.000E+00

     total cpu time spent up to now is      624.5 secs

     total energy              =   -1868.77152029 Ry
     Harris-Foulkes estimate   =   -1868.77149101 Ry
     estimated scf accuracy    <       0.00023140 Ry

     iteration # 30     ecut=    60.00 Ry     beta= 0.20
     Davidson diagonalization with overlap
     ethr =  1.01E-07,  avg # of iterations =  2.8

     negative rho (up, down):  9.019E-02 0.000E+00

     total cpu time spent up to now is      645.0 secs

     total energy              =   -1868.77153254 Ry
     Harris-Foulkes estimate   =   -1868.77152221 Ry
     estimated scf accuracy    <       0.00025483 Ry

     iteration # 31     ecut=    60.00 Ry     beta= 0.20
     Davidson diagonalization with overlap
     ethr =  1.01E-07,  avg # of iterations =  2.1

     negative rho (up, down):  9.021E-02 0.000E+00

     total cpu time spent up to now is      664.3 secs

     total energy              =   -1868.77152230 Ry
     Harris-Foulkes estimate   =   -1868.77153523 Ry
     estimated scf accuracy    <       0.00016878 Ry

     iteration # 32     ecut=    60.00 Ry     beta= 0.20
     Davidson diagonalization with overlap
     ethr =  7.37E-08,  avg # of iterations =  1.5

     negative rho (up, down):  9.010E-02 0.000E+00

     total cpu time spent up to now is      682.6 secs

     total energy              =   -1868.77152394 Ry
     Harris-Foulkes estimate   =   -1868.77152814 Ry
     estimated scf accuracy    <       0.00004589 Ry

     iteration # 33     ecut=    60.00 Ry     beta= 0.20
     Davidson diagonalization with overlap
     ethr =  2.00E-08,  avg # of iterations =  2.3

     negative rho (up, down):  9.015E-02 0.000E+00

     total cpu time spent up to now is      701.9 secs

     total energy              =   -1868.77152766 Ry
     Harris-Foulkes estimate   =   -1868.77152627 Ry
     estimated scf accuracy    <       0.00002717 Ry

     iteration # 34     ecut=    60.00 Ry     beta= 0.20
     Davidson diagonalization with overlap
     ethr =  1.19E-08,  avg # of iterations =  1.2

     negative rho (up, down):  9.034E-02 0.000E+00

     total cpu time spent up to now is      719.7 secs

     total energy              =   -1868.77152995 Ry
     Harris-Foulkes estimate   =   -1868.77152848 Ry
     estimated scf accuracy    <       0.00001297 Ry

     iteration # 35     ecut=    60.00 Ry     beta= 0.20
     Davidson diagonalization with overlap
     ethr =  5.66E-09,  avg # of iterations =  2.7

     negative rho (up, down):  9.049E-02 0.000E+00

     total cpu time spent up to now is      739.7 secs

     total energy              =   -1868.77152974 Ry
     Harris-Foulkes estimate   =   -1868.77153057 Ry
     estimated scf accuracy    <       0.00000432 Ry

     iteration # 36     ecut=    60.00 Ry     beta= 0.20
     Davidson diagonalization with overlap
     ethr =  1.89E-09,  avg # of iterations =  1.7

     negative rho (up, down):  9.057E-02 0.000E+00

     total cpu time spent up to now is      758.1 secs

     total energy              =   -1868.77152962 Ry
     Harris-Foulkes estimate   =   -1868.77152996 Ry
     estimated scf accuracy    <       0.00000199 Ry

     iteration # 37     ecut=    60.00 Ry     beta= 0.20
     Davidson diagonalization with overlap
     ethr =  8.68E-10,  avg # of iterations =  1.6

     negative rho (up, down):  9.057E-02 0.000E+00

     total cpu time spent up to now is      775.7 secs

     End of self-consistent calculation

          k = 0.0000 0.0000 0.0000 ( 37611 PWs)   bands (ev):

   -38.4509 -38.1034 -24.3632 -23.1045 -23.0759 -23.0086 -18.9859 -18.6090
   -18.4552 -18.4459 -18.1266 -18.1095 -15.7812 -15.4983 -15.0769 -14.8219
   -14.6022 -14.5888 -14.5665 -14.4013 -14.3878 -14.3053 -14.0868 -14.0824
   -14.0178 -13.8301 -13.8283  -9.6751  -9.1943  -9.1717  -8.3290  -8.2909
    -8.2836  -8.0968  -8.0704  -8.0701  -8.0426  -7.9621  -7.9392  -2.4098
    -2.3756  -2.2430  -2.1978  -2.1902  -2.1885  -2.1868  -2.1458  -2.1199
    -2.0449  -2.0149  -1.7979  -1.6667  -1.2809  -1.2117  -0.9205  -0.8818
    -0.8315  -0.7948  -0.7864  -0.7510  -0.4379  -0.3977  -0.3957  -0.3611
    -0.3586  -0.2596  -0.2346  -0.1987  -0.1953  -0.1810  -0.0976  -0.0443
    -0.0386  -0.0297   0.0189   0.0441   0.0537   0.0686   0.0807   0.1121
     0.1712   0.2049   0.2083   0.2168   0.2309   0.3319   0.3337   0.4849
     0.5334   0.6112   0.7295   0.7486   0.9014   0.9054   0.9330   1.0257
     1.0347   1.0572   1.0705   1.0716   1.1494   1.1751   1.1997   1.2345
     1.4248   1.4663   1.5937   1.6283   1.6571   1.7060   1.7375   1.8556
     1.8808   1.8820   2.0003   2.0202   2.0580   2.3395   2.3411   3.9431
     4.9125   4.9569   5.0181   5.4779   5.5690   6.0620   6.3521   6.3898
     6.6657   7.0156   7.3432   7.3985   7.6510   7.8452   7.8480   8.0348
     8.1467   8.2730

          k = 0.0000 0.1281 0.0000 ( 37645 PWs)   bands (ev):

   -38.4486 -38.1011 -24.3451 -23.0829 -23.0543 -22.9878 -18.9500 -18.5729
   -18.5502 -18.4520 -18.2142 -18.1234 -15.6723 -15.3988 -15.0310 -14.8304
   -14.6174 -14.5983 -14.5359 -14.4082 -14.3549 -14.3512 -14.0920 -14.0887
   -14.0864 -13.8953 -13.8553  -9.6610  -9.2062  -9.1390  -8.3111  -8.2745
    -8.2729  -8.0896  -8.0623  -8.0556  -8.0291  -7.9592  -7.9234  -2.5118
    -2.4848  -2.4374  -2.3604  -2.1899  -2.1697  -2.1634  -2.1570  -2.0934
    -2.0497  -2.0294  -1.8126  -1.7960  -1.6517  -1.3119  -1.3062  -1.2113
    -1.1575  -0.8562  -0.8066  -0.7619  -0.7340  -0.7082  -0.6101  -0.5097
    -0.4493  -0.4460  -0.4298  -0.3988  -0.3403  -0.3390  -0.2421  -0.1885
    -0.0792  -0.0406  -0.0336   0.1060   0.1131   0.1978   0.2137   0.2138
     0.2168   0.2275   0.2596   0.2960   0.3945   0.4340   0.5172   0.5199
     0.5703   0.5897   0.7092   0.7518   0.8076   0.8236   0.8428   0.9999
     1.0074   1.1305   1.1677   1.1774   1.1952   1.3026   1.3045   1.3445
     1.3928   1.4768   1.5186   1.6078   1.6333   1.6641   1.7100   1.7934
     1.8357   1.8751   2.1192   2.2563   2.5485   2.6610   2.6724   4.1276
     5.2466   5.3270   5.3431   5.7585   5.8282   6.2392   6.6688   6.7016
     6.9024   7.2203   7.4356   7.6401   7.7875   7.8282   7.9967   8.0847
     8.1389   8.1932

          k = 0.0000 0.2563 0.0000 ( 37646 PWs)   bands (ev):

   -38.4430 -38.0954 -24.3010 -23.0299 -23.0012 -22.9368 -18.8588 -18.7753
   -18.4870 -18.4443 -18.4342 -18.1155 -15.4241 -15.1825 -14.9114 -14.9054
   -14.7034 -14.6561 -14.4704 -14.4676 -14.4169 -14.2566 -14.2454 -14.0724
   -14.0691 -14.0485 -13.8923  -9.6210  -9.2343  -9.0577  -8.2693  -8.2443
    -8.2345  -8.1307  -8.1035  -8.0025  -7.9524  -7.9257  -7.8268  -2.9418
    -2.8544  -2.8275  -2.7089  -2.4314  -2.3383  -2.3307  -2.2188  -2.1423
    -2.0713  -2.0676  -2.0396  -1.9902  -1.9765  -1.7608  -1.6509  -1.6031
    -1.2068  -1.1152  -1.1065  -1.0166  -0.9487  -0.8418  -0.8128  -0.7582
    -0.7279  -0.7170  -0.6776  -0.6723  -0.6229  -0.4909  -0.4289  -0.3828
    -0.3774  -0.2568  -0.1973  -0.0751  -0.0065   0.0557   0.0898   0.1643
     0.2506   0.2520   0.2706   0.2806   0.3521   0.4360   0.6013   0.6941
     0.6973   0.7615   0.8456   0.8582   0.9604   1.0098   1.0348   1.1251
     1.1793   1.1805   1.1809   1.2414   1.2843   1.3847   1.3932   1.3950
     1.4776   1.4903   1.4948   1.6303   1.7372   1.7925   1.9192   1.9311
     1.9352   1.9367   2.2888   2.4032   2.9553   2.9667   3.3908   4.6070
     6.0075   6.2173   6.2182   6.4430   6.4655   6.5766   7.1887   7.5248
     7.5576   7.6286   7.6574   7.8183   7.9515   8.1347   8.2460   8.3362
     8.4419   8.5193

          k = 0.0000 0.3844 0.0000 ( 37566 PWs)   bands (ev):

   -38.4374 -38.0898 -24.2559 -22.9753 -22.9466 -22.8844 -18.9732 -18.7606
   -18.6412 -18.4365 -18.3793 -18.1077 -15.1742 -15.0489 -15.0098 -14.8090
   -14.7789 -14.7412 -14.5616 -14.4500 -14.4454 -14.4114 -14.1863 -14.1144
   -14.0182 -14.0100 -13.9176  -9.5696  -9.2665  -8.9733  -8.2304  -8.2094
    -8.1943  -8.1636  -8.1368  -8.0422  -7.8433  -7.8164  -7.7253  -3.4580
    -3.2962  -3.2292  -3.0715  -2.8974  -2.8942  -2.7606  -2.2464  -2.2421
    -2.1919  -2.1392  -2.0121  -1.9169  -1.8819  -1.8759  -1.8607  -1.5485
    -1.3829  -1.2719  -1.2617  -1.1702  -1.1341  -1.0743  -1.0729  -1.0526
    -0.9190  -0.9115  -0.8239  -0.8022  -0.7653  -0.7233  -0.6263  -0.6210
    -0.5674  -0.4250  -0.3751  -0.2430  -0.2427  -0.1797  -0.0118   0.1011
     0.2284   0.2463   0.2945   0.3035   0.3100   0.5630   0.5802   0.7167
     0.7712   0.7937   0.8884   0.9429   1.0464   1.0595   1.1078   1.1321
     1.1985   1.2253   1.2533   1.3412   1.3770   1.4220   1.5773   1.6524
     1.6744   1.7899   1.7973   1.8418   1.8976   1.8998   1.9413   1.9859
     2.2688   2.3375   2.3428   2.3453   2.9276   2.9357   3.9390   5.2449
     6.2165   6.9521   7.0977   7.1518   7.2443   7.3133   7.5449   7.6872
     7.8343   7.8365   8.2181   8.3660   8.3725   8.5500   8.6021   8.7345
     8.8315   8.9006

          k = 0.0000-0.5125 0.0000 ( 37738 PWs)   bands (ev):

   -38.4351 -38.0875 -24.2369 -22.9523 -22.9235 -22.8623 -19.0492 -18.7174
   -18.7170 -18.4333 -18.3361 -18.1045 -15.1292 -15.0424 -14.9936 -14.8317
   -14.8046 -14.6356 -14.6119 -14.5747 -14.4640 -14.4009 -14.2300 -14.0322
   -13.9798 -13.9788 -13.9595  -9.5430  -9.2834  -8.9373  -8.2156  -8.1912
    -8.1776  -8.1753  -8.1484  -8.0592  -7.7963  -7.7692  -7.6816  -3.7005
    -3.4437  -3.3807  -3.2051  -3.1333  -3.1260  -2.8936  -2.2811  -2.2764
    -2.2465  -2.2113  -2.0053  -1.9612  -1.8655  -1.8114  -1.6659  -1.6382
    -1.4485  -1.3740  -1.3592  -1.3056  -1.2589  -1.1861  -1.0833  -1.0232
    -1.0160  -1.0101  -0.9379  -0.8567  -0.7436  -0.7338  -0.7135  -0.7080
    -0.6581  -0.6486  -0.4222  -0.3197  -0.3004  -0.2303  -0.0815   0.1699
     0.1838   0.2167   0.2194   0.3005   0.3090   0.5659   0.6594   0.7712
     0.7957   0.8065   0.8595   1.0265   1.0358   1.1121   1.1697   1.2034
     1.2060   1.2089   1.2169   1.3274   1.3816   1.4141   1.7058   1.7272
     1.7976   1.8112   1.8310   1.9428   2.0481   2.0667   2.1406   2.2009
     2.2045   2.2067   2.4996   2.5052   2.7914   2.7984   4.1255   5.7690
     5.9133   7.1824   7.4126   7.5023   7.5981   7.6073   7.7338   7.7755
     7.7929   7.9835   8.4330   8.5522   8.6886   8.8198   8.8611   8.9223
     8.9731   9.0368

          k = 0.1250 0.0000 0.0000 ( 37614 PWs)   bands (ev):

   -38.4491 -38.1016 -24.3482 -23.0861 -23.0575 -22.9909 -18.9535 -18.5757
   -18.5553 -18.4434 -18.2285 -18.1070 -15.6658 -15.3893 -15.1018 -14.8481
   -14.6574 -14.6367 -14.5445 -14.4362 -14.3549 -14.3349 -14.0873 -14.0852
   -14.0742 -13.8648 -13.8374  -9.6963  -9.1678  -9.1308  -8.3390  -8.3026
    -8.3014  -8.0618  -8.0358  -8.0354  -8.0083  -7.9248  -7.9071  -2.4997
    -2.4129  -2.3955  -2.3262  -2.1773  -2.1536  -2.1473  -2.1357  -2.1092
    -2.0664  -2.0001  -1.7984  -1.7853  -1.3060  -1.2001  -0.9205  -0.9120
    -0.9057  -0.8058  -0.7893  -0.7810  -0.6361  -0.4965  -0.4824  -0.4765
    -0.4705  -0.4280  -0.3835  -0.3775  -0.2626  -0.2470  -0.2085  -0.1993
    -0.1481   0.0334   0.0685   0.0763   0.0785   0.1459   0.1839   0.1871
     0.1938   0.2144   0.2169   0.2290   0.3279   0.3327   0.3494   0.3584
     0.6353   0.6369   0.6768   0.6926   0.7719   0.8562   0.8895   0.9180
     0.9201   0.9263   1.0742   1.1129   1.1666   1.1919   1.2610   1.3770
     1.3907   1.4373   1.4672   1.6302   1.7391   1.7697   1.7717   1.8024
     1.8427   1.9444   2.0086   2.1062   2.2789   2.3830   2.3846   4.1115
     5.1246   5.1473   5.1993   5.7116   5.7994   6.1962   6.5925   6.6253
     6.8692   7.1816   7.5555   7.6333   7.8211   7.8286   8.0034   8.1252
     8.1923   8.3424

          k = 0.1250 0.1281 0.0000 ( 37634 PWs)   bands (ev):

   -38.4468 -38.0992 -24.3307 -23.0653 -23.0366 -22.9708 -18.9180 -18.5592
   -18.5401 -18.5382 -18.2295 -18.2050 -15.5579 -15.2934 -15.0534 -14.8460
   -14.6573 -14.6334 -14.5168 -14.3945 -14.3881 -14.3732 -14.1234 -14.0865
   -14.0849 -13.9184 -13.8632  -9.6756  -9.3168  -9.0151  -8.3242  -8.2901
    -8.2898  -8.2095  -8.1822  -8.0777  -7.9120  -7.8851  -7.7870  -2.6062
    -2.5496  -2.5249  -2.3584  -2.2298  -2.2087  -2.1719  -2.1473  -2.1389
    -2.0970  -1.9893  -1.8515  -1.8100  -1.7401  -1.3075  -1.3003  -1.2639
    -1.1108  -0.9633  -0.8863  -0.8730  -0.7867  -0.7736  -0.7229  -0.7133
    -0.6573  -0.6305  -0.4666  -0.4438  -0.4176  -0.2590  -0.1872  -0.1607
    -0.1106  -0.0492  -0.0234   0.0712   0.1210   0.1388   0.1864   0.1889
     0.2259   0.2664   0.2687   0.2838   0.3653   0.4283   0.4299   0.5182
     0.5198   0.6597   0.7540   0.8156   0.8708   0.8749   0.9080   0.9186
     0.9832   0.9881   1.1317   1.1717   1.2089   1.2222   1.2441   1.3742
     1.4293   1.4666   1.5153   1.5389   1.5726   1.5978   1.7549   1.8402
     2.1525   2.2012   2.3622   2.5654   2.5657   2.6783   2.6840   4.2762
     5.4257   5.4702   5.4830   5.9526   6.0185   6.3358   6.8979   6.9236
     7.0533   7.3360   7.5360   7.7028   7.7596   7.9496   8.0396   8.1154
     8.1941   8.3404

          k = 0.1250 0.2563 0.0000 ( 37688 PWs)   bands (ev):

   -38.4412 -38.0936 -24.2877 -23.0141 -22.9854 -22.9214 -18.8281 -18.7708
   -18.5396 -18.4614 -18.4236 -18.2126 -15.3121 -15.0902 -14.9247 -14.8908
   -14.6909 -14.6571 -14.4732 -14.4534 -14.4453 -14.2829 -14.2523 -14.0634
   -14.0605 -14.0481 -13.8938  -9.6267  -9.4226  -8.9809  -8.3334  -8.3059
    -8.2690  -8.2537  -8.2354  -8.1883  -7.8679  -7.8411  -7.7504  -3.0418
    -2.9301  -2.8451  -2.7155  -2.4539  -2.3579  -2.3367  -2.2659  -2.1929
    -2.1594  -2.1191  -2.0614  -2.0600  -1.9289  -1.8141  -1.6991  -1.6563
    -1.2874  -1.1803  -1.1459  -1.1273  -1.0741  -1.0589  -1.0118  -0.9275
    -0.8285  -0.7824  -0.7084  -0.6149  -0.5963  -0.5230  -0.4297  -0.3739
    -0.2352  -0.1882  -0.1444   0.0101   0.0592   0.0728   0.1337   0.1359
     0.2033   0.2548   0.3013   0.3026   0.3819   0.4518   0.4719   0.6556
     0.8752   0.8965   0.9109   0.9337   0.9703   1.0655   1.0677   1.0835
     1.1096   1.1995   1.2107   1.2713   1.2943   1.3197   1.3868   1.3890
     1.4196   1.5264   1.5760   1.6313   1.7349   1.8980   1.9032   1.9072
     2.3935   2.4585   2.6344   2.7938   2.9600   2.9848   3.3940   4.7362
     6.0555   6.2709   6.2735   6.4612   6.5694   6.6713   7.1772   7.5062
     7.6634   7.7258   7.7510   7.8238   7.9239   8.1320   8.2519   8.4528
     8.4796   8.5048

          k = 0.1250 0.3844 0.0000 ( 37697 PWs)   bands (ev):

   -38.4356 -38.0880 -24.2439 -22.9616 -22.9328 -22.8708 -18.9672 -18.7312
   -18.6350 -18.5298 -18.3492 -18.2026 -15.0724 -15.0042 -14.9519 -14.7634
   -14.7311 -14.7236 -14.5427 -14.4800 -14.4225 -14.4140 -14.1675 -14.1474
   -14.0134 -14.0061 -13.9085  -9.5762  -9.4321  -9.0351  -8.3381  -8.3110
    -8.2388  -8.2202  -8.2054  -8.2045  -7.9159  -7.8890  -7.7976  -3.4645
    -3.3893  -3.3182  -3.1240  -2.8909  -2.8840  -2.8012  -2.2784  -2.2614
    -2.2197  -2.1050  -2.0938  -2.0276  -2.0083  -1.8386  -1.7855  -1.7202
    -1.5921  -1.5016  -1.4616  -1.3542  -1.2426  -1.2118  -1.1528  -1.0492
    -0.9814  -0.8326  -0.8051  -0.7648  -0.7168  -0.6921  -0.6575  -0.6203
    -0.4986  -0.2811  -0.1852  -0.0889  -0.0699   0.0486   0.0854   0.1599
     0.2413   0.2642   0.2960   0.3254   0.3931   0.4172   0.6217   0.7228
     0.8009   0.9209   0.9405   0.9461   1.1128   1.1221   1.1823   1.1885
     1.2323   1.2578   1.2699   1.3206   1.3858   1.4951   1.5635   1.6111
     1.6995   1.8132   1.8463   1.9179   1.9271   1.9844   2.3124   2.3168
     2.4217   2.4967   2.6550   2.7641   2.9520   2.9884   3.9377   5.3469
     6.0441   6.9130   7.0039   7.0235   7.1630   7.2048   7.4448   7.4940
     7.6383   7.9897   8.2765   8.3107   8.4326   8.6196   8.7030   8.8303
     8.8741   8.9972

          k = 0.1250-0.5125 0.0000 ( 37648 PWs)   bands (ev):

   -38.4333 -38.0857 -24.2255 -22.9394 -22.9106 -22.8495 -19.0427 -18.7105
   -18.6887 -18.5256 -18.3066 -18.1984 -15.0885 -14.9486 -14.9251 -14.7966
   -14.7056 -14.5916 -14.5910 -14.5736 -14.4621 -14.4347 -14.2043 -14.0693
   -13.9822 -13.9775 -13.9331  -9.5512  -9.4123  -9.0829  -8.3128  -8.2859
    -8.2263  -8.2035  -8.1903  -8.1895  -7.9639  -7.9371  -7.8404  -3.6913
    -3.5571  -3.4728  -3.2642  -3.1294  -3.1203  -2.9436  -2.2962  -2.2850
    -2.2270  -2.1222  -2.0466  -1.9737  -1.9162  -1.8654  -1.8465  -1.7448
    -1.7438  -1.7168  -1.4729  -1.4263  -1.3571  -1.3019  -1.2487  -1.1118
    -0.9430  -0.9004  -0.8761  -0.8195  -0.7578  -0.7113  -0.6867  -0.6435
    -0.6176  -0.3182  -0.2068  -0.1877  -0.0862   0.0405   0.0480   0.1772
     0.2389   0.2834   0.2846   0.3628   0.3844   0.3972   0.4765   0.8396
     0.8686   0.9196   0.9659   1.0094   1.0871   1.1025   1.2012   1.2176
     1.2419   1.2733   1.3052   1.3400   1.3624   1.5310   1.6629   1.7850
     1.8267   1.9138   2.0348   2.0410   2.1932   2.1998   2.3866   2.4617
     2.4791   2.4842   2.5722   2.6487   2.8485   2.9014   4.1225   5.6713
     6.0359   6.8500   7.1673   7.2247   7.2711   7.2986   7.4204   7.6917
     7.9644   8.0736   8.5478   8.7500   8.8174   8.8246   8.9722   9.0775
     9.1615   9.1931

          k = 0.2500 0.0000 0.0000 ( 37738 PWs)   bands (ev):

   -38.4447 -38.0972 -24.3116 -23.0409 -23.0122 -22.9475 -18.8717 -18.7701
   -18.4928 -18.4456 -18.4373 -18.1008 -15.4019 -15.1753 -15.1605 -14.9553
   -14.7896 -14.7478 -14.5405 -14.5074 -14.3704 -14.2680 -14.2105 -14.0851
   -14.0815 -13.9302 -13.8471  -9.7242  -9.1022  -9.0560  -8.3489  -8.3250
    -8.3127  -7.9918  -7.9656  -7.9505  -7.9227  -7.8619  -7.8272  -2.8077
    -2.7330  -2.7175  -2.2774  -2.2199  -2.2053  -2.1817  -2.1612  -2.0739
    -2.0379  -1.9823  -1.7549  -1.7397  -1.3784  -1.2920  -1.0936  -1.0581
    -1.0249  -1.0004  -0.8670  -0.8503  -0.7957  -0.7700  -0.7677  -0.7442
    -0.6832  -0.6830  -0.6458  -0.4900  -0.4853  -0.3258  -0.2797  -0.2304
    -0.1917  -0.0715  -0.0502  -0.0447   0.0469   0.0487   0.1266   0.1295
     0.1849   0.1930   0.2692   0.3435   0.3591   0.3619   0.3682   0.4591
     0.4864   0.5493   0.7111   0.7637   0.7938   0.8070   0.8299   0.9123
     0.9678   1.0714   1.1528   1.1553   1.2143   1.2287   1.2637   1.2657
     1.3524   1.4116   1.4733   1.5931   1.6793   1.6935   1.7895   1.8432
     1.8892   1.9550   2.1519   2.2942   2.4275   2.5215   2.5587   4.5465
     5.5945   5.5965   5.6904   6.3164   6.3780   6.5935   7.2212   7.2435
     7.2965   7.4888   7.7619   7.7831   7.9614   8.0751   8.1849   8.4077
     8.4536   8.6135

          k = 0.2500 0.1281 0.0000 ( 37712 PWs)   bands (ev):

   -38.4424 -38.0949 -24.2953 -23.0219 -22.9932 -22.9290 -18.8376 -18.7644
   -18.5374 -18.4607 -18.4376 -18.2011 -15.2967 -15.1187 -15.0808 -14.9280
   -14.7505 -14.7230 -14.4997 -14.4777 -14.4358 -14.2816 -14.2179 -14.0740
   -14.0711 -13.9596 -13.8702  -9.7046  -9.3547  -8.9521  -8.3533  -8.3242
    -8.3220  -8.2369  -8.2086  -8.1095  -7.8378  -7.8109  -7.7232  -2.9463
    -2.8323  -2.7629  -2.3321  -2.3022  -2.2657  -2.2379  -2.1936  -2.1604
    -2.1525  -1.9336  -1.9094  -1.8364  -1.6713  -1.3825  -1.3094  -1.3030
    -1.2956  -1.1778  -1.1555  -1.1274  -1.0320  -0.9998  -0.9695  -0.8473
    -0.7848  -0.7425  -0.6965  -0.5689  -0.4760  -0.3312  -0.2004  -0.1511
    -0.0929  -0.0860  -0.0626   0.0152   0.0585   0.0604   0.1159   0.1455
     0.1725   0.2109   0.3837   0.3925   0.4026   0.4046   0.4913   0.5281
     0.5294   0.6399   0.7155   0.8993   0.9062   0.9572   0.9766   1.0026
     1.0441   1.0936   1.1021   1.1273   1.1999   1.2184   1.2271   1.3445
     1.4155   1.4180   1.4810   1.6275   1.6569   1.6727   1.7371   1.8686
     2.4471   2.5160   2.6071   2.6776   2.7190   2.7725   2.9147   4.6877
     5.8360   5.8381   5.8570   6.4466   6.4651   6.6561   7.2239   7.4762
     7.5111   7.5202   7.5699   7.7787   7.9214   8.0309   8.3429   8.4198
     8.5260   8.6583

          k = 0.2500 0.2563 0.0000 ( 37709 PWs)   bands (ev):

   -38.4369 -38.0893 -24.2554 -22.9754 -22.9467 -22.8838 -18.7711 -18.7515
   -18.7345 -18.4446 -18.4091 -18.3634 -15.0643 -14.9649 -14.9310 -14.8758
   -14.6732 -14.6623 -14.5787 -14.4236 -14.4113 -14.3158 -14.2486 -14.0418
   -14.0417 -14.0381 -13.8843  -9.6689  -9.5990  -9.0415  -8.5396  -8.5125
    -8.4035  -8.2860  -8.2595  -8.2537  -7.9351  -7.9082  -7.8198  -3.3667
    -3.2065  -2.9893  -2.7055  -2.5823  -2.4421  -2.3913  -2.3722  -2.2907
    -2.2796  -2.1458  -2.0762  -2.0724  -2.0700  -1.8085  -1.7345  -1.7049
    -1.6467  -1.5767  -1.5610  -1.2397  -1.1772  -1.0676  -1.0595  -1.0408
    -0.9203  -0.8537  -0.6976  -0.6419  -0.5459  -0.4948  -0.4709  -0.3962
    -0.3465  -0.2084  -0.1235  -0.0313  -0.0029   0.1231   0.2241   0.2578
     0.3510   0.3775   0.3855   0.4339   0.4767   0.5305   0.7361   0.9164
     0.9229   0.9766   1.0425   1.0624   1.0653   1.0738   1.0772   1.1614
     1.1968   1.2208   1.2380   1.2476   1.2786   1.3936   1.4463   1.4886
     1.5514   1.6343   1.6511   1.7043   1.8165   1.8304   1.8527   1.9639
     2.9295   2.9332   3.0598   3.1377   3.2489   3.4040   3.4270   5.1026
     5.8237   6.3502   6.3607   6.5880   6.8196   6.9930   7.1112   7.3019
     7.7135   7.8917   8.0087   8.0296   8.1141   8.3993   8.4751   8.6031
     8.6706   8.7575

          k = 0.2500 0.3844 0.0000 ( 37741 PWs)   bands (ev):

   -38.4314 -38.0837 -24.2148 -22.9279 -22.8991 -22.8376 -18.9527 -18.7346
   -18.6561 -18.6203 -18.4100 -18.2729 -14.9410 -14.8416 -14.8144 -14.7484
   -14.6521 -14.6290 -14.5883 -14.5009 -14.3676 -14.3361 -14.1870 -14.1217
   -14.0011 -13.9949 -13.8685  -9.7325  -9.5947  -9.2596  -8.6462  -8.6192
    -8.5021  -8.2653  -8.2468  -8.2321  -8.1718  -8.1452  -8.0428  -3.7810
    -3.6193  -3.4094  -3.2959  -2.9679  -2.8577  -2.8576  -2.4680  -2.4135
    -2.3704  -2.1789  -2.1748  -2.1705  -2.1558  -2.0560  -2.0032  -1.9544
    -1.7722  -1.6425  -1.6025  -1.4488  -1.3147  -1.1824  -1.1514  -1.0454
    -0.9274  -0.8920  -0.8360  -0.7111  -0.6810  -0.6411  -0.6254  -0.5825
    -0.4318  -0.3954  -0.1930  -0.0143   0.0904   0.1010   0.3041   0.3453
     0.3962   0.4498   0.5165   0.5699   0.6353   0.7352   0.9718   0.9922
     1.0010   1.0300   1.0513   1.2316   1.2432   1.2734   1.2740   1.3613
     1.3680   1.3932   1.4313   1.4406   1.4951   1.5010   1.5876   1.6559
     1.7670   1.7775   1.8151   1.9391   1.9552   1.9917   2.2464   2.2506
     2.8591   2.8599   3.3376   3.4303   3.5166   3.6730   3.9291   5.3448
     5.7699   6.5150   6.5323   6.7732   6.7817   6.8852   7.4607   7.6026
     7.7380   8.1894   8.3747   8.4153   8.5444   8.8552   8.8944   9.0961
     9.1419   9.1971

          k = 0.2500-0.5125 0.0000 ( 37754 PWs)   bands (ev):

   -38.4291 -38.0814 -24.1977 -22.9078 -22.8790 -22.8182 -19.0272 -18.7288
   -18.6947 -18.6154 -18.4043 -18.2318 -14.9852 -14.8296 -14.7094 -14.6637
   -14.6136 -14.5693 -14.5524 -14.5477 -14.4776 -14.3627 -14.1394 -14.1048
   -13.9796 -13.9740 -13.8677  -9.7204  -9.5763  -9.3985  -8.6309  -8.6037
    -8.4942  -8.3312  -8.3045  -8.2541  -8.2386  -8.2179  -8.1792  -3.9447
    -3.7857  -3.6449  -3.4616  -3.1416  -3.0965  -3.0856  -2.4613  -2.4053
    -2.3400  -2.3371  -2.1829  -2.1731  -2.1609  -2.1391  -2.0720  -2.0097
    -1.7997  -1.6876  -1.6594  -1.4764  -1.3840  -1.2034  -1.1894  -1.0212
    -0.9527  -0.9202  -0.8941  -0.7867  -0.7372  -0.7018  -0.6218  -0.6057
    -0.4805  -0.4109  -0.2082  -0.0117   0.1060   0.1481   0.3543   0.3938
     0.4074   0.4728   0.5647   0.5763   0.7152   0.8168   0.8721   1.0721
     1.0783   1.1134   1.1223   1.2723   1.2792   1.3221   1.3478   1.3506
     1.3726   1.4402   1.4584   1.4926   1.5560   1.5845   1.6520   1.7578
     1.7946   1.8722   1.9870   1.9896   2.1891   2.1946   2.4245   2.4292
     2.7014   2.7015   3.3952   3.4925   3.5709   3.7194   4.1051   5.1761
     6.3175   6.4669   6.4708   6.5422   6.7356   6.7665   7.2719   7.8150
     8.0664   8.2688   8.7210   8.9002   8.9829   8.9953   9.0320   9.2224
     9.3299   9.3744

          k = 0.3750 0.0000 0.0000 ( 37742 PWs)   bands (ev):

   -38.4404 -38.0928 -24.2743 -22.9946 -22.9658 -22.9030 -18.9592 -18.7831
   -18.6382 -18.4313 -18.4003 -18.0947 -15.2682 -15.1600 -15.0741 -15.0681
   -14.8639 -14.8108 -14.6606 -14.5164 -14.3636 -14.3344 -14.1787 -14.0734
   -14.0699 -13.9727 -13.8581  -9.7310  -9.0345  -9.0048  -8.3497  -8.3261
    -8.3143  -7.9325  -7.9067  -7.8612  -7.8331  -7.8225  -7.7439  -3.1312
    -3.0477  -2.9819  -2.5914  -2.2880  -2.2788  -2.1727  -2.0192  -1.9554
    -1.9539  -1.8976  -1.7470  -1.6420  -1.4682  -1.3354  -1.2727  -1.2546
    -1.1685  -1.1417  -1.1282  -1.0820  -1.0437  -1.0433  -0.9067  -0.9039
    -0.7942  -0.7613  -0.7522  -0.7520  -0.5474  -0.5283  -0.4296  -0.3519
    -0.3054  -0.2503  -0.2477  -0.1604   0.0476   0.0883   0.1449   0.1517
     0.1713   0.1795   0.2880   0.3739   0.4028   0.4159   0.4246   0.4562
     0.4660   0.5845   0.6092   0.7697   0.8461   0.9293   0.9419   0.9768
     1.0008   1.0693   1.1537   1.1651   1.2147   1.2152   1.2584   1.2876
     1.4894   1.5380   1.5930   1.6018   1.6330   1.6643   1.8358   1.9004
     1.9522   2.0145   2.1791   2.3321   2.4089   2.6275   2.6395   5.1559
     6.1306   6.2334   6.2344   6.6952   6.9391   7.2681   7.3499   7.5860
     7.7334   7.7392   7.7467   8.0274   8.1793   8.3889   8.4334   8.5101
     8.6475   8.8012

          k = 0.3750 0.1281 0.0000 ( 37694 PWs)   bands (ev):

   -38.4381 -38.0905 -24.2593 -22.9776 -22.9488 -22.8863 -18.9519 -18.7501
   -18.6308 -18.5296 -18.3677 -18.1930 -15.2014 -15.0952 -15.0173 -14.9908
   -14.8203 -14.7403 -14.6074 -14.4815 -14.4306 -14.3092 -14.1687 -14.0583
   -14.0535 -13.9825 -13.8851  -9.7133  -9.2944  -9.0099  -8.3486  -8.3270
    -8.3160  -8.1793  -8.1520  -8.0525  -7.8938  -7.8668  -7.7846  -3.2792
    -3.1577  -3.0370  -2.6472  -2.3201  -2.2925  -2.2372  -2.1610  -2.1173
    -2.0889  -1.8870  -1.8456  -1.8355  -1.6462  -1.6152  -1.5533  -1.5101
    -1.4466  -1.3005  -1.3001  -1.1904  -1.1295  -1.1030  -1.0472  -0.9702
    -0.8914  -0.8527  -0.8157  -0.6651  -0.6458  -0.4144  -0.3346  -0.2440
    -0.1710  -0.1494  -0.0762  -0.0076  -0.0031   0.0679   0.0903   0.1147
     0.1799   0.2787   0.3539   0.4705   0.4706   0.5298   0.5689   0.5766
     0.5833   0.6622   0.7948   0.8559   0.8588   0.9477   0.9585   1.0335
     1.0751   1.0946   1.1436   1.1593   1.2199   1.2999   1.3041   1.3159
     1.4675   1.5122   1.5922   1.6338   1.6354   1.8238   1.8590   1.8685
     2.5563   2.6094   2.6356   2.7057   2.7567   2.9269   3.0312   5.2818
     6.0560   6.3560   6.3608   6.5138   7.0244   7.2541   7.3765   7.3928
     7.4887   7.7959   7.8079   7.9622   8.2911   8.5005   8.6095   8.6732
     8.7688   8.8524

          k = 0.3750 0.2563 0.0000 ( 37739 PWs)   bands (ev):

   -38.4326 -38.0849 -24.2226 -22.9360 -22.9072 -22.8455 -18.9345 -18.7448
   -18.6669 -18.6130 -18.4124 -18.2806 -15.0200 -14.9687 -14.8910 -14.8034
   -14.6826 -14.6285 -14.5961 -14.4942 -14.3976 -14.2524 -14.1555 -14.0230
   -14.0199 -14.0157 -13.8906  -9.7100  -9.6259  -9.2461  -8.5886  -8.5615
    -8.4568  -8.3045  -8.2741  -8.2720  -8.1625  -8.1360  -8.0408  -3.7188
    -3.5428  -3.2675  -2.8715  -2.6768  -2.5058  -2.4489  -2.4020  -2.2954
    -2.2907  -2.1774  -2.1585  -2.1547  -2.0817  -2.0763  -2.0040  -1.9255
    -1.6435  -1.5674  -1.5674  -1.3686  -1.1457  -1.1048  -1.0132  -0.9742
    -0.9486  -0.9083  -0.7893  -0.6568  -0.5926  -0.5468  -0.5090  -0.4871
    -0.3404  -0.3249  -0.2283   0.0737   0.1207   0.1752   0.2874   0.3946
     0.4444   0.5284   0.5520   0.6212   0.6299   0.7557   0.9360   0.9747
     0.9749   1.0374   1.0545   1.1150   1.1234   1.1392   1.1815   1.2010
     1.2459   1.2629   1.3460   1.3510   1.3730   1.4033   1.4677   1.5619
     1.6801   1.7082   1.7294   1.7313   1.7975   1.8511   1.8673   1.9143
     2.9307   2.9317   3.4038   3.4582   3.5250   3.6036   3.7639   5.4000
     5.6432   6.3297   6.3432   6.5863   6.7887   6.8137   7.4801   7.6587
     7.8092   8.0452   8.0506   8.1706   8.4246   8.7507   8.7846   8.8831
     9.0158   9.1383

          k = 0.3750 0.3844 0.0000 ( 37819 PWs)   bands (ev):

   -38.4271 -38.0794 -24.1852 -22.8936 -22.8648 -22.8039 -18.9394 -18.9141
   -18.6082 -18.5907 -18.5775 -18.1916 -14.8690 -14.7618 -14.7528 -14.7486
   -14.6692 -14.5628 -14.5126 -14.4941 -14.3230 -14.2488 -14.0727 -14.0565
   -13.9877 -13.9821 -13.8333  -9.9477  -9.6194  -9.5390  -8.8551  -8.8277
    -8.7079  -8.4913  -8.4651  -8.3483  -8.2947  -8.2696  -8.2595  -4.1708
    -3.9849  -3.6302  -3.3357  -3.2381  -2.8346  -2.8299  -2.6037  -2.5754
    -2.5564  -2.4900  -2.3653  -2.2522  -2.1862  -2.1814  -2.1594  -2.0738
    -1.7393  -1.7114  -1.4475  -1.2838  -1.2672  -1.2221  -1.1274  -1.0569
    -1.0233  -0.8976  -0.8308  -0.7783  -0.7352  -0.7153  -0.6104  -0.5687
    -0.4780  -0.2882  -0.2838   0.0838   0.1886   0.2373   0.5115   0.5672
     0.6581   0.7087   0.8171   0.8915   0.9456   1.1098   1.1302   1.1443
     1.1974   1.2160   1.2336   1.3270   1.3730   1.3895   1.4130   1.4334
     1.4375   1.5074   1.5645   1.6051   1.6246   1.6492   1.7075   1.7386
     1.7980   1.8068   1.8776   1.9714   1.9747   2.0622   2.1681   2.1719
     2.8487   2.8527   3.9053   4.0066   4.0847   4.1002   4.2599   4.7864
     5.9653   5.9766   6.1190   6.4416   6.4990   6.7039   7.4767   7.8394
     8.1053   8.3335   8.5243   8.6252   8.6922   8.7041   9.0335   9.0573
     9.1743   9.2552

          k = 0.3750-0.5125 0.0000 ( 37814 PWs)   bands (ev):

   -38.4248 -38.0771 -24.1696 -22.8758 -22.8470 -22.7864 -19.0116 -18.9087
   -18.6790 -18.5868 -18.5384 -18.1523 -14.8734 -14.7713 -14.6823 -14.6190
   -14.5728 -14.5719 -14.5240 -14.4172 -14.3528 -14.2916 -14.0679 -13.9948
   -13.9752 -13.9703 -13.8000 -10.0282  -9.7031  -9.5812  -8.9341  -8.9065
    -8.7888  -8.6465  -8.6205  -8.4889  -8.2925  -8.2625  -8.2539  -4.3518
    -4.1665  -3.7991  -3.5793  -3.4071  -3.0731  -3.0681  -2.7162  -2.6198
    -2.5758  -2.5027  -2.4981  -2.2632  -2.1819  -2.1765  -2.1590  -2.1233
    -1.7999  -1.7332  -1.4669  -1.3540  -1.3094  -1.1856  -1.1114  -1.1110
    -1.0696  -0.9234  -0.9074  -0.8130  -0.7979  -0.7882  -0.6292  -0.5903
    -0.5086  -0.2560  -0.2548   0.0913   0.2134   0.2656   0.5249   0.6277
     0.8034   0.8452   0.8849   1.0053   1.0628   1.1578   1.1937   1.2396
     1.2623   1.2656   1.3414   1.3996   1.4612   1.4744   1.4766   1.5695
     1.5999   1.6014   1.6237   1.6280   1.6841   1.6931   1.7599   1.8253
     1.8984   1.9278   1.9971   2.0536   2.2098   2.2134   2.3637   2.3684
     2.6766   2.6832   4.0492   4.1744   4.2573   4.2636   4.4172   4.5513
     5.7681   5.7788   6.2798   6.4199   6.4985   6.6329   7.2950   7.9885
     8.0958   8.4524   8.6759   8.6809   8.8821   8.9525   8.9574   9.1303
     9.2543   9.3155

          k =-0.5000 0.0000 0.0000 ( 37718 PWs)   bands (ev):

   -38.4386 -38.0909 -24.2587 -22.9751 -22.9462 -22.8843 -19.0313 -18.7447
   -18.7110 -18.4287 -18.3607 -18.0921 -15.3127 -15.1859 -15.1070 -14.9738
   -14.9283 -14.7544 -14.7036 -14.5510 -14.3768 -14.3516 -14.1461 -14.0642
   -14.0571 -13.9844 -13.8708  -9.7292  -9.0058  -8.9891  -8.3492  -8.3216
    -8.3134  -7.9098  -7.8842  -7.8229  -7.8110  -7.7946  -7.7083  -3.2547
    -3.1725  -3.0967  -2.7201  -2.3148  -2.3064  -2.1691  -1.9854  -1.9853
    -1.8253  -1.7929  -1.7346  -1.5287  -1.5218  -1.5096  -1.3982  -1.3375
    -1.2848  -1.1919  -1.1691  -1.1636  -1.1261  -1.0026  -0.9980  -0.9735
    -0.8847  -0.8666  -0.7642  -0.7549  -0.7464  -0.5657  -0.4574  -0.4554
    -0.3776  -0.3089  -0.2531  -0.2300   0.0736   0.1131   0.1588   0.1634
     0.1657   0.1740   0.2448   0.3894   0.4172   0.4308   0.4396   0.4977
     0.4981   0.5047   0.6135   0.8664   0.8886   0.9229   0.9597   0.9941
     1.0377   1.1083   1.1302   1.1982   1.2062   1.2342   1.2491   1.2976
     1.5506   1.5570   1.5797   1.6021   1.6516   1.7175   1.9295   1.9360
     1.9949   2.0195   2.1829   2.3204   2.3666   2.6331   2.6405   5.7689
     5.9102   6.6025   6.9764   7.0076   7.0829   7.0868   7.2555   7.5597
     7.6501   7.7215   7.7412   8.0083   8.3599   8.5616   8.5669   8.7972
     8.8999   8.9086

          k =-0.5000 0.1281 0.0000 ( 37704 PWs)   bands (ev):

   -38.4363 -38.0886 -24.2442 -22.9589 -22.9301 -22.8684 -19.0236 -18.7124
   -18.7031 -18.5263 -18.3289 -18.1895 -15.2417 -15.1354 -15.0519 -14.8869
   -14.8577 -14.7214 -14.6139 -14.5153 -14.4182 -14.3407 -14.1148 -14.0459
   -14.0397 -13.9872 -13.9095  -9.7107  -9.1983  -9.1124  -8.3435  -8.3197
    -8.3097  -8.0449  -8.0342  -8.0193  -8.0060  -7.9363  -7.9122  -3.4081
    -3.2886  -3.1599  -2.7824  -2.3343  -2.3141  -2.2310  -2.1524  -2.0824
    -1.8975  -1.8754  -1.8612  -1.8436  -1.7303  -1.7114  -1.7055  -1.6431
    -1.4798  -1.3077  -1.3019  -1.2616  -1.2176  -1.0639  -1.0590  -0.9279
    -0.9210  -0.8683  -0.8487  -0.7812  -0.6929  -0.4641  -0.3907  -0.2602
    -0.2229  -0.1973  -0.1383  -0.0341  -0.0137   0.0632   0.0885   0.1267
     0.1657   0.3232   0.3658   0.4629   0.4645   0.5443   0.5587   0.6594
     0.6666   0.7361   0.7754   0.7981   0.8498   0.9714   0.9849   1.0457
     1.1102   1.1402   1.1418   1.1492   1.2467   1.2637   1.3045   1.3112
     1.5134   1.5578   1.5918   1.6318   1.7046   1.8388   1.8968   2.0086
     2.5808   2.6218   2.6349   2.6996   2.7507   2.9501   3.0318   5.8316
     5.9995   6.1799   6.8044   6.8227   7.2113   7.2290   7.3529   7.4201
     7.4345   7.6523   7.8671   7.9711   8.5617   8.7653   8.8594   8.9390
     8.9927   9.0232

          k =-0.5000 0.2563 0.0000 ( 37750 PWs)   bands (ev):

   -38.4308 -38.0831 -24.2088 -22.9195 -22.8906 -22.8294 -19.0048 -18.7404
   -18.6841 -18.6307 -18.4075 -18.2437 -15.0545 -14.9988 -14.9057 -14.7781
   -14.6428 -14.5993 -14.5818 -14.4864 -14.4296 -14.2532 -14.0376 -14.0122
   -14.0053 -14.0024 -13.9376  -9.6767  -9.6116  -9.4044  -8.5108  -8.4828
    -8.3944  -8.3561  -8.3305  -8.3106  -8.2780  -8.2707  -8.2256  -3.8605
    -3.6840  -3.4031  -3.0158  -2.6637  -2.5208  -2.4602  -2.3925  -2.3321
    -2.2912  -2.2893  -2.1557  -2.1523  -2.1446  -2.0822  -2.0777  -2.0086
    -1.6365  -1.6317  -1.5471  -1.3540  -1.1241  -1.1066  -0.9702  -0.9572
    -0.9162  -0.9149  -0.8299  -0.6550  -0.6488  -0.5462  -0.5342  -0.5301
    -0.3470  -0.3302  -0.2620   0.1101   0.1212   0.2775   0.3661   0.4662
     0.4814   0.5151   0.6271   0.6603   0.6664   0.8855   0.9124   1.0139
     1.0175   1.0712   1.0813   1.1194   1.2173   1.2192   1.2330   1.2478
     1.2680   1.2840   1.2866   1.3228   1.3505   1.4491   1.5897   1.6480
     1.6721   1.6792   1.7043   1.7415   1.7501   1.8603   1.8746   1.9725
     2.9273   2.9277   3.4122   3.5650   3.6332   3.6989   3.8522   5.2106
     6.2090   6.2224   6.2892   6.3010   6.6924   6.7221   7.5982   7.8678
     8.0819   8.1463   8.1661   8.1823   8.6960   8.7052   8.9371   8.9799
     9.1144   9.1340

          k =-0.5000 0.3844 0.0000 ( 37858 PWs)   bands (ev):

   -38.4253 -38.0776 -24.1729 -22.8793 -22.8504 -22.7897 -18.9861 -18.9314
   -18.6650 -18.5984 -18.5431 -18.1562 -14.8942 -14.7573 -14.7520 -14.7265
   -14.6473 -14.5751 -14.5145 -14.3619 -14.3494 -14.2103 -14.0493 -13.9817
   -13.9764 -13.9525 -13.8375 -10.0091  -9.6914  -9.6141  -8.9044  -8.8766
    -8.7610  -8.6499  -8.6242  -8.4980  -8.3093  -8.2797  -8.2726  -4.3312
    -4.1409  -3.7701  -3.3789  -3.3236  -2.8238  -2.8182  -2.7187  -2.6370
    -2.5938  -2.5185  -2.4974  -2.2948  -2.1852  -2.1814  -2.1548  -2.1105
    -1.7851  -1.7046  -1.3696  -1.2776  -1.2751  -1.1947  -1.1815  -1.0160
    -1.0062  -0.9656  -0.8226  -0.7560  -0.7505  -0.7468  -0.6112  -0.6101
    -0.5184  -0.2367  -0.2355   0.0833   0.2273   0.3470   0.5511   0.6812
     0.7902   0.9328   0.9369   1.0525   1.0708   1.1301   1.1721   1.2155
     1.2528   1.2595   1.2806   1.3617   1.3704   1.4621   1.4953   1.5189
     1.5463   1.5774   1.5987   1.6048   1.6514   1.6635   1.6668   1.7711
     1.8937   1.9476   1.9704   1.9780   1.9928   2.0190   2.1317   2.1339
     2.8448   2.8508   3.9041   4.2281   4.3050   4.3079   4.4607   4.5420
     5.7269   5.7386   6.2601   6.3842   6.4797   6.5356   7.5090   7.9686
     8.1340   8.4490   8.4861   8.6524   8.6596   8.8870   8.9669   9.1023
     9.2603   9.3246

          k =-0.5000-0.5125 0.0000 ( 37836 PWs)   bands (ev):

   -38.4230 -38.0753 -24.1578 -22.8624 -22.8336 -22.7731 -19.0052 -18.9783
   -18.6724 -18.6571 -18.5048 -18.1177 -14.8369 -14.8240 -14.6151 -14.5808
   -14.5753 -14.5733 -14.5576 -14.3216 -14.2915 -14.2691 -14.0352 -13.9763
   -13.9685 -13.9188 -13.7712 -10.1568  -9.8098  -9.5948  -9.0564  -9.0287
    -8.9088  -8.7674  -8.7415  -8.6061  -8.3099  -8.2734  -8.2690  -4.5206
    -4.3294  -3.9387  -3.5704  -3.5477  -3.0618  -3.0559  -2.8500  -2.6648
    -2.6265  -2.6237  -2.5419  -2.3174  -2.1735  -2.1695  -2.1517  -2.1458
    -1.8349  -1.7235  -1.3881  -1.3562  -1.2771  -1.2543  -1.1448  -1.0708
    -1.0502  -0.9946  -0.9126  -0.8385  -0.8338  -0.7044  -0.6234  -0.6174
    -0.6016  -0.1956  -0.1924   0.0922   0.2705   0.3663   0.5684   0.7496
     0.9850   1.0543   1.0788   1.1807   1.2138   1.2378   1.2554   1.2634
     1.2793   1.2961   1.3967   1.4272   1.4446   1.5136   1.5377   1.6760
     1.7023   1.7119   1.7229   1.7298   1.7564   1.7578   1.7940   1.8013
     1.8163   2.0677   2.1574   2.1608   2.2281   2.2333   2.3364   2.3410
     2.6687   2.6781   4.0380   4.2852   4.4444   4.5318   4.5363   4.6742
     5.4775   5.4890   6.1515   6.3056   6.5085   6.6494   7.4321   8.0327
     8.0822   8.3980   8.5608   8.6576   8.7122   8.8428   8.8609   8.9136
     9.1668   9.1895

     the Fermi energy is     2.6390 ev

!    total energy              =   -1868.77152935 Ry
     Harris-Foulkes estimate   =   -1868.77152971 Ry
     estimated scf accuracy    <       0.00000074 Ry

     The total energy is the sum of the following terms:

     one-electron contribution =  -25426.20672965 Ry
     hartree contribution      =   12864.30313303 Ry
     xc contribution           =    -642.20582895 Ry
     ewald contribution        =   11335.34640969 Ry
     smearing contrib. (-TS)   =      -0.00851348 Ry

     convergence has been achieved in  37 iterations

     negative rho (up, down):  9.057E-02 0.000E+00

     Forces acting on atoms (cartesian axes, Ry/au):

     atom    1 type  3   force =     0.00000000    0.00000000   -0.00017116
     atom    2 type  2   force =     0.00000000    0.00000000    0.00050504
     atom    3 type  3   force =     0.00000000    0.00000000   -0.00013000
     atom    4 type  1   force =     0.00000000    0.00000000   -0.00018254
     atom    5 type  2   force =     0.00000000    0.00000000   -0.00062947
     atom    6 type  3   force =     0.00000000    0.00000000    0.00039321
     atom    7 type  3   force =     0.00000000    0.00000000   -0.00004584
     atom    8 type  4   force =     0.00000000    0.00000000   -0.00091545
     atom    9 type  3   force =     0.00000000    0.00000000    0.00119205
     atom   10 type  3   force =     0.00000000    0.00000000    0.00154791
     atom   11 type  2   force =     0.00000000    0.00000000   -0.00095259
     atom   12 type  1   force =     0.00000000    0.00000000   -0.00524063
     atom   13 type  3   force =     0.00000000    0.00000000    0.00298322
     atom   14 type  3   force =     0.00000000    0.00000000    0.01649693
     atom   15 type  2   force =     0.00000000    0.00000000   -0.01460010
     atom   16 type  3   force =     0.00000000    0.00000000    0.03929873
     atom   17 type  1   force =     0.00000000    0.00000000   -0.03747318
     atom   18 type  2   force =     0.00000000    0.00000000    0.00299940
     atom   19 type  3   force =     0.00000000    0.00000000    0.01764156
     atom   20 type  3   force =     0.00000000    0.00000000    0.00920361
     atom   21 type  4   force =     0.00000000    0.00000000   -0.04191306
     atom   22 type  3   force =     0.00000000    0.00000000    0.00388487
     atom   23 type  3   force =     0.00000000    0.00000000    0.00655666
     atom   24 type  2   force =     0.00000000    0.00000000    0.00214700
     atom   25 type  1   force =     0.00000000    0.00000000   -0.00180971
     atom   26 type  3   force =     0.00000000    0.00000000    0.00128068
     atom   27 type  2   force =     0.00000000    0.00000000   -0.00248081
     atom   28 type  3   force =     0.00000000    0.00000000    0.00041369

     Total force =     0.075580     Total SCF correction =     0.003907


     Computing stress (Cartesian axis) and pressure


     negative rho (up, down):  9.057E-02 0.000E+00
          total   stress  (Ry/bohr**3)                   (kbar)     P=       -5.25
  -0.00006974   0.00000000   0.00000000          -10.26        0.00        0.00
   0.00000000  -0.00002805   0.00000000            0.00       -4.13        0.00
   0.00000000   0.00000000  -0.00000928            0.00        0.00       -1.37

 
     init_run     :     10.46s CPU     11.03s WALL (       1 calls)
     electrons    :    716.70s CPU    763.90s WALL (       1 calls)
     forces       :      4.40s CPU      4.80s WALL (       1 calls)
     stress       :     47.34s CPU     48.50s WALL (       1 calls)

     Called by init_run:
     wfcinit      :      7.44s CPU      7.61s WALL (       1 calls)
     potinit      :      0.70s CPU      0.73s WALL (       1 calls)
     hinit0       :      1.05s CPU      1.06s WALL (       1 calls)

     Called by electrons:
     c_bands      :    558.18s CPU    577.52s WALL (      37 calls)
     sum_band     :    106.70s CPU    122.16s WALL (      37 calls)
     v_of_rho     :      4.28s CPU      4.33s WALL (      38 calls)
     newd         :     21.10s CPU     33.50s WALL (      38 calls)
     mix_rho      :     26.69s CPU     26.93s WALL (      37 calls)

     Called by c_bands:
     init_us_2    :      4.22s CPU      4.30s WALL (    1925 calls)
     cegterg      :    528.20s CPU    546.95s WALL (     925 calls)

     Called by sum_band:
     sum_band:bec :      0.26s CPU      0.27s WALL (     925 calls)
     addusdens    :     21.73s CPU     36.21s WALL (      37 calls)

     Called by *egterg:
     h_psi        :    253.04s CPU    264.10s WALL (    3895 calls)
     s_psi        :     24.65s CPU     24.99s WALL (    3895 calls)
     g_psi        :      0.73s CPU      0.74s WALL (    2945 calls)
     cdiaghg      :    116.99s CPU    117.46s WALL (    3870 calls)

     Called by h_psi:
     h_psi:calbec :     32.79s CPU     34.11s WALL (    3895 calls)
     vloc_psi     :    193.12s CPU    196.48s WALL (    3895 calls)
     add_vuspsi   :     25.68s CPU     29.29s WALL (    3895 calls)

     General routines
     calbec       :     76.11s CPU     77.59s WALL (    4945 calls)
     fft          :      4.32s CPU      4.35s WALL (     517 calls)
     ffts         :     12.17s CPU     12.31s WALL (   16439 calls)
     fftw         :    223.23s CPU    227.02s WALL (  659236 calls)
     interpolate  :      0.32s CPU      0.32s WALL (      38 calls)
 
     Parallel routines
     fft_scatt_xy :     26.22s CPU     26.60s WALL (  676192 calls)
     fft_scatt_yz :    148.01s CPU    150.46s WALL (  676192 calls)
 
     PWSCF        :  12m59.63s CPU  13m49.04s WALL

 
   This run was terminated on:  17:43: 9   5May2021            

=------------------------------------------------------------------------------=
   JOB DONE.
=------------------------------------------------------------------------------=
[1620250989.157766] [holy7c08207:231519:0]          mpool.c:43   UCX  WARN  object 0x3dd9600 was not returned to mpool ucp_requests
[1620250989.159723] [holy7c06502:54407:0]          mpool.c:43   UCX  WARN  object 0x2d00bc0 was not returned to mpool ucp_requests
[1620250989.159742] [holy7c06502:54407:0]          mpool.c:43   UCX  WARN  object 0x2d00d80 was not returned to mpool ucp_requests
[1620250989.159863] [holy7c08205:56066:0]          mpool.c:43   UCX  WARN  object 0x295f780 was not returned to mpool ucp_requests
[1620250989.159882] [holy7c08205:56066:0]          mpool.c:43   UCX  WARN  object 0x295fb00 was not returned to mpool ucp_requests
[1620250989.161674] [holy7c06602:241972:0]          mpool.c:43   UCX  WARN  object 0x2c1e000 was not returned to mpool ucp_requests
[1620250989.158636] [holy7c08207:231518:0]          mpool.c:43   UCX  WARN  object 0x3e85ac0 was not returned to mpool ucp_requests
[1620250989.171636] [holy7c06607:175584:0]          mpool.c:43   UCX  WARN  object 0x4184300 was not returned to mpool ucp_requests
[1620250989.171662] [holy7c06607:175584:0]          mpool.c:43   UCX  WARN  object 0x4184bc0 was not returned to mpool ucp_requests
