
     Program PWSCF v.6.5 starts on  5May2021 at 17:59:48 

     This program is part of the open-source Quantum ESPRESSO suite
     for quantum simulation of materials; please cite
         "P. Giannozzi et al., J. Phys.:Condens. Matter 21 395502 (2009);
         "P. Giannozzi et al., J. Phys.:Condens. Matter 29 465901 (2017);
          URL http://www.quantum-espresso.org", 
     in publications or presentations arising from this work. More details at
     http://www.quantum-espresso.org/quote

     Parallel version (MPI), running on    20 processors

     MPI processes distributed on    15 nodes
     R & G space division:  proc/nbgrp/npool/nimage =      20
     Reading input from YBCO_CuO_cleave_5.5_sep_scf.pwi
Warning: card &IONS ignored
Warning: card     ION_DYNAMICS = 'BFGS' ignored
Warning: card / ignored
Warning: card &CELL ignored
Warning: card     CELL_DYNAMICS = 'BFGS' ignored
Warning: card / ignored

     Current dimensions of program PWSCF are:
     Max number of different atomic species (ntypx) = 10
     Max number of k-points (npk) =  40000
     Max angular momentum in pseudopotentials (lmaxx) =  3

     Subspace diagonalization in iterative solution of the eigenvalue problem:
     one sub-group per band group will be used
     scalapack distributed-memory algorithm (size of sub-group:  4*  4 procs)

     Message from routine setup:
     using ibrav=0 with symmetry is DISCOURAGED, use correct ibrav instead
 
     Parallelization info
     --------------------
     sticks:   dense  smooth     PW     G-vecs:    dense   smooth      PW
     Min         150      50     14                79982    15388    2400
     Max         151      51     15                80027    15415    2451
     Sum        3015    1011    293              1600081   307933   48527
 


     bravais-lattice index     =            0
     lattice parameter (alat)  =       7.3477  a.u.
     unit-cell volume          =    4904.1944 (a.u.)^3
     number of atoms/cell      =           28
     number of atomic types    =            4
     number of electrons       =       229.00
     number of Kohn-Sham states=          138
     kinetic-energy cutoff     =      60.0000  Ry
     charge density cutoff     =     720.0000  Ry
     convergence threshold     =      1.0E-06
     mixing beta               =       0.2000
     number of iterations used =           10  local-TF  mixing
     Exchange-correlation= SLA PW PBE PBE
                           (   1   4   3   4   0   0   0)

     celldm(1)=   7.347715  celldm(2)=   0.000000  celldm(3)=   0.000000
     celldm(4)=   0.000000  celldm(5)=   0.000000  celldm(6)=   0.000000

     crystal axes: (cart. coord. in units of alat)
               a(1) = (   1.000000   0.000000   0.000000 )  
               a(2) = (   0.000000   0.975577   0.000000 )  
               a(3) = (   0.000000   0.000000  12.672114 )  

     reciprocal axes: (cart. coord. in units 2 pi/alat)
               b(1) = (  1.000000  0.000000  0.000000 )  
               b(2) = (  0.000000  1.025034  0.000000 )  
               b(3) = (  0.000000  0.000000  0.078913 )  


     PseudoPot. # 1 for Ba read from file:
     /n/holyscratch01/hoffman_lab/ruizhe/YBCO_Project/pseudo/Ba.pbe-nsp-van.UPF
     MD5 check sum: 2b9c31dd849566dd297d80989662b7a0
     Pseudo is Ultrasoft + core correction, Zval = 10.0
     Generated by new atomic code, or converted to UPF format
     Using radial grid of  907 points,  6 beta functions with: 
                l(1) =   0
                l(2) =   0
                l(3) =   1
                l(4) =   1
                l(5) =   2
                l(6) =   2
     Q(r) pseudized with  6 coefficients,  rinner =    1.200   1.200   1.200
                                                       1.200   1.200

     PseudoPot. # 2 for Cu read from file:
     /n/holyscratch01/hoffman_lab/ruizhe/YBCO_Project/pseudo/Cu.pbe-n-van_ak.UPF
     MD5 check sum: 34e3282627ffb533726feb647e090d62
     Pseudo is Ultrasoft + core correction, Zval = 11.0
     Generated by new atomic code, or converted to UPF format
     Using radial grid of  867 points,  6 beta functions with: 
                l(1) =   0
                l(2) =   0
                l(3) =   1
                l(4) =   1
                l(5) =   2
                l(6) =   2
     Q(r) pseudized with  8 coefficients,  rinner =    1.400   1.400   1.400
                                                       1.400   1.400

     PseudoPot. # 3 for O  read from file:
     /n/holyscratch01/hoffman_lab/ruizhe/YBCO_Project/pseudo/O.pbe-van_ak.UPF
     MD5 check sum: 783ce7fe4c79b6a4916957118fed0856
     Pseudo is Ultrasoft, Zval =  6.0
     Generated by new atomic code, or converted to UPF format
     Using radial grid of  737 points,  4 beta functions with: 
                l(1) =   0
                l(2) =   0
                l(3) =   1
                l(4) =   1
     Q(r) pseudized with  8 coefficients,  rinner =    0.800   0.800   0.800


     PseudoPot. # 4 for Y  read from file:
     /n/holyscratch01/hoffman_lab/ruizhe/YBCO_Project/pseudo/Y.pbe-nsp-van.UPF
     MD5 check sum: 4412fed3ab108fed87a1b7d6a69a4a38
     Pseudo is Ultrasoft + core correction, Zval = 11.0
     Generated by new atomic code, or converted to UPF format
     Using radial grid of  885 points,  6 beta functions with: 
                l(1) =   0
                l(2) =   0
                l(3) =   1
                l(4) =   1
                l(5) =   2
                l(6) =   2
     Q(r) pseudized with  6 coefficients,  rinner =    1.200   1.200   1.200
                                                       1.200   1.200

     atomic species   valence    mass     pseudopotential
        Ba            10.00   137.32700     Ba( 1.00)
        Cu            11.00    63.54600     Cu( 1.00)
        O              6.00    15.99900     O ( 1.00)
        Y             11.00    88.90584     Y ( 1.00)

      4 Sym. Ops. (no inversion) found



   Cartesian axes

     site n.     atom                  positions (alat units)
         1           O   tau(   1) = (   0.0000000   0.4877884  -0.0257983  )
         2           Cu  tau(   2) = (   0.0000000   0.0000000   0.0215779  )
         3           O   tau(   3) = (   0.0000000   0.0000000   0.5073114  )
         4           Ba  tau(   4) = (   0.4999996   0.4877884   0.5319677  )
         5           Cu  tau(   5) = (   0.0000000   0.0000000   1.0495845  )
         6           O   tau(   6) = (   0.4999996   0.0000000   1.1181579  )
         7           O   tau(   7) = (   0.0000000   0.4877884   1.1273137  )
         8           Y   tau(   8) = (   0.4999996   0.4877884   1.4938777  )
         9           O   tau(   9) = (   0.0000000   0.4877884   1.8497402  )
        10           O   tau(  10) = (   0.4999996   0.0000000   1.8692709  )
        11           Cu  tau(  11) = (   0.0000000   0.0000000   1.9417560  )
        12           Ba  tau(  12) = (   0.4999996   0.4877884   2.4526063  )
        13           O   tau(  13) = (   0.0000000   0.0000000   2.5103470  )
        14           O   tau(  14) = (   0.0000000   0.4877884   2.9968469  )
        15           Cu  tau(  15) = (   0.0000000   0.0000000   2.9968521  )
        16           O   tau(  16) = (   0.0000000   0.0000000   4.8978493  )
        17           Ba  tau(  17) = (   0.4999996   0.4877884   4.9555823  )
        18           Cu  tau(  18) = (   0.0000000   0.0000000   5.4664557  )
        19           O   tau(  19) = (   0.4999996   0.0000000   5.5389280  )
        20           O   tau(  20) = (   0.0000000   0.4877884   5.5584407  )
        21           Y   tau(  21) = (   0.4999996   0.4877884   5.9143058  )
        22           O   tau(  22) = (   0.0000000   0.4877884   6.2808698  )
        23           O   tau(  23) = (   0.4999996   0.0000000   6.2900384  )
        24           Cu  tau(  24) = (   0.0000000   0.0000000   6.3586170  )
        25           Ba  tau(  25) = (   0.4999996   0.4877884   6.8762183  )
        26           O   tau(  26) = (   0.0000000   0.0000000   6.9008747  )
        27           Cu  tau(  27) = (   0.0000000   0.0000000   7.3865799  )
        28           O   tau(  28) = (   0.0000000   0.4877884   7.4339612  )

     number of k points=    25  Gaussian smearing, width (Ry)=  0.0100
                       cart. coord. in units 2pi/alat
        k(    1) = (   0.0000000   0.0000000   0.0000000), wk =   0.0312500
        k(    2) = (   0.0000000   0.1281293   0.0000000), wk =   0.0625000
        k(    3) = (   0.0000000   0.2562585   0.0000000), wk =   0.0625000
        k(    4) = (   0.0000000   0.3843878   0.0000000), wk =   0.0625000
        k(    5) = (   0.0000000  -0.5125170   0.0000000), wk =   0.0312500
        k(    6) = (   0.1250000   0.0000000   0.0000000), wk =   0.0625000
        k(    7) = (   0.1250000   0.1281293   0.0000000), wk =   0.1250000
        k(    8) = (   0.1250000   0.2562585   0.0000000), wk =   0.1250000
        k(    9) = (   0.1250000   0.3843878   0.0000000), wk =   0.1250000
        k(   10) = (   0.1250000  -0.5125170   0.0000000), wk =   0.0625000
        k(   11) = (   0.2500000   0.0000000   0.0000000), wk =   0.0625000
        k(   12) = (   0.2500000   0.1281293   0.0000000), wk =   0.1250000
        k(   13) = (   0.2500000   0.2562585   0.0000000), wk =   0.1250000
        k(   14) = (   0.2500000   0.3843878   0.0000000), wk =   0.1250000
        k(   15) = (   0.2500000  -0.5125170   0.0000000), wk =   0.0625000
        k(   16) = (   0.3750000   0.0000000   0.0000000), wk =   0.0625000
        k(   17) = (   0.3750000   0.1281293   0.0000000), wk =   0.1250000
        k(   18) = (   0.3750000   0.2562585   0.0000000), wk =   0.1250000
        k(   19) = (   0.3750000   0.3843878   0.0000000), wk =   0.1250000
        k(   20) = (   0.3750000  -0.5125170   0.0000000), wk =   0.0625000
        k(   21) = (  -0.5000000   0.0000000   0.0000000), wk =   0.0312500
        k(   22) = (  -0.5000000   0.1281293   0.0000000), wk =   0.0625000
        k(   23) = (  -0.5000000   0.2562585   0.0000000), wk =   0.0625000
        k(   24) = (  -0.5000000   0.3843878   0.0000000), wk =   0.0625000
        k(   25) = (  -0.5000000  -0.5125170   0.0000000), wk =   0.0312500

     Dense  grid:  1600081 G-vectors     FFT dimensions: (  64,  64, 800)

     Smooth grid:   307933 G-vectors     FFT dimensions: (  40,  36, 480)

     Estimated max dynamical RAM per process >     509.90 MB

     Estimated total dynamical RAM >       9.96 GB

     Initial potential from superposition of free atoms

     starting charge  228.84827, renormalised to  229.00000

     negative rho (up, down):  8.942E-02 0.000E+00
     Starting wfcs are  201 randomized atomic wfcs

     total cpu time spent up to now is       12.4 secs

     Self-consistent Calculation

     iteration #  1     ecut=    60.00 Ry     beta= 0.20
     Davidson diagonalization with overlap
     ethr =  1.00E-02,  avg # of iterations =  2.0

     negative rho (up, down):  8.727E-02 0.000E+00

     total cpu time spent up to now is       33.4 secs

     total energy              =   -1869.52048583 Ry
     Harris-Foulkes estimate   =   -1871.09998919 Ry
     estimated scf accuracy    <      13.48366659 Ry

     iteration #  2     ecut=    60.00 Ry     beta= 0.20
     Davidson diagonalization with overlap
     ethr =  5.89E-03,  avg # of iterations =  1.0

     negative rho (up, down):  8.602E-02 0.000E+00

     total cpu time spent up to now is       52.1 secs

     total energy              =   -1868.88486553 Ry
     Harris-Foulkes estimate   =   -1869.87452953 Ry
     estimated scf accuracy    <       5.82969244 Ry

     iteration #  3     ecut=    60.00 Ry     beta= 0.20
     Davidson diagonalization with overlap
     ethr =  2.55E-03,  avg # of iterations =  1.0

     negative rho (up, down):  8.561E-02 0.000E+00

     total cpu time spent up to now is       70.4 secs

     total energy              =   -1868.70900955 Ry
     Harris-Foulkes estimate   =   -1869.16083872 Ry
     estimated scf accuracy    <       4.23276680 Ry

     iteration #  4     ecut=    60.00 Ry     beta= 0.20
     Davidson diagonalization with overlap
     ethr =  1.85E-03,  avg # of iterations =  1.8

     negative rho (up, down):  8.580E-02 0.000E+00

     total cpu time spent up to now is       89.9 secs

     total energy              =   -1868.85489346 Ry
     Harris-Foulkes estimate   =   -1868.92362425 Ry
     estimated scf accuracy    <       2.28334469 Ry

     iteration #  5     ecut=    60.00 Ry     beta= 0.20
     Davidson diagonalization with overlap
     ethr =  9.97E-04,  avg # of iterations =  1.0

     negative rho (up, down):  8.633E-02 0.000E+00

     total cpu time spent up to now is      108.3 secs

     total energy              =   -1868.82234155 Ry
     Harris-Foulkes estimate   =   -1868.89084824 Ry
     estimated scf accuracy    <       1.24791765 Ry

     iteration #  6     ecut=    60.00 Ry     beta= 0.20
     Davidson diagonalization with overlap
     ethr =  5.45E-04,  avg # of iterations =  1.0

     negative rho (up, down):  8.707E-02 0.000E+00

     total cpu time spent up to now is      126.3 secs

     total energy              =   -1868.77149922 Ry
     Harris-Foulkes estimate   =   -1868.83919761 Ry
     estimated scf accuracy    <       0.51516511 Ry

     iteration #  7     ecut=    60.00 Ry     beta= 0.20
     Davidson diagonalization with overlap
     ethr =  2.25E-04,  avg # of iterations =  5.4

     negative rho (up, down):  8.757E-02 0.000E+00

     total cpu time spent up to now is      150.4 secs

     total energy              =   -1868.77007196 Ry
     Harris-Foulkes estimate   =   -1868.78912396 Ry
     estimated scf accuracy    <       0.37743042 Ry

     iteration #  8     ecut=    60.00 Ry     beta= 0.20
     Davidson diagonalization with overlap
     ethr =  1.65E-04,  avg # of iterations =  2.5

     negative rho (up, down):  8.881E-02 0.000E+00

     total cpu time spent up to now is      170.6 secs

     total energy              =   -1868.75161490 Ry
     Harris-Foulkes estimate   =   -1868.78544791 Ry
     estimated scf accuracy    <       0.59559137 Ry

     iteration #  9     ecut=    60.00 Ry     beta= 0.20
     Davidson diagonalization with overlap
     ethr =  1.65E-04,  avg # of iterations =  4.0

     negative rho (up, down):  8.945E-02 0.000E+00

     total cpu time spent up to now is      192.5 secs

     total energy              =   -1868.75390732 Ry
     Harris-Foulkes estimate   =   -1868.75995523 Ry
     estimated scf accuracy    <       0.39760315 Ry

     iteration # 10     ecut=    60.00 Ry     beta= 0.20
     Davidson diagonalization with overlap
     ethr =  1.65E-04,  avg # of iterations =  1.0

     negative rho (up, down):  9.027E-02 0.000E+00

     total cpu time spent up to now is      210.2 secs

     total energy              =   -1868.73612659 Ry
     Harris-Foulkes estimate   =   -1868.75697461 Ry
     estimated scf accuracy    <       0.38867727 Ry

     iteration # 11     ecut=    60.00 Ry     beta= 0.20
     Davidson diagonalization with overlap
     ethr =  1.65E-04,  avg # of iterations =  1.9

     negative rho (up, down):  9.101E-02 0.000E+00

     total cpu time spent up to now is      229.1 secs

     total energy              =   -1868.73174203 Ry
     Harris-Foulkes estimate   =   -1868.74460219 Ry
     estimated scf accuracy    <       0.68376073 Ry

     iteration # 12     ecut=    60.00 Ry     beta= 0.20
     Davidson diagonalization with overlap
     ethr =  1.65E-04,  avg # of iterations =  2.5

     negative rho (up, down):  9.105E-02 0.000E+00

     total cpu time spent up to now is      249.3 secs

     total energy              =   -1868.73221810 Ry
     Harris-Foulkes estimate   =   -1868.73749402 Ry
     estimated scf accuracy    <       0.62741679 Ry

     iteration # 13     ecut=    60.00 Ry     beta= 0.20
     Davidson diagonalization with overlap
     ethr =  1.65E-04,  avg # of iterations =  1.2

     negative rho (up, down):  9.075E-02 0.000E+00

     total cpu time spent up to now is      267.6 secs

     total energy              =   -1868.72762203 Ry
     Harris-Foulkes estimate   =   -1868.73343759 Ry
     estimated scf accuracy    <       0.24691240 Ry

     iteration # 14     ecut=    60.00 Ry     beta= 0.20
     Davidson diagonalization with overlap
     ethr =  1.08E-04,  avg # of iterations =  2.8

     negative rho (up, down):  9.001E-02 0.000E+00

     total cpu time spent up to now is      288.2 secs

     total energy              =   -1868.72436204 Ry
     Harris-Foulkes estimate   =   -1868.72901988 Ry
     estimated scf accuracy    <       0.04128983 Ry

     iteration # 15     ecut=    60.00 Ry     beta= 0.20
     Davidson diagonalization with overlap
     ethr =  1.80E-05,  avg # of iterations =  8.3

     negative rho (up, down):  9.035E-02 0.000E+00

     total cpu time spent up to now is      319.5 secs

     total energy              =   -1868.72569003 Ry
     Harris-Foulkes estimate   =   -1868.72635021 Ry
     estimated scf accuracy    <       0.02773008 Ry

     iteration # 16     ecut=    60.00 Ry     beta= 0.20
     Davidson diagonalization with overlap
     ethr =  1.21E-05,  avg # of iterations =  1.0

     negative rho (up, down):  8.973E-02 0.000E+00

     total cpu time spent up to now is      337.5 secs

     total energy              =   -1868.72574036 Ry
     Harris-Foulkes estimate   =   -1868.72590518 Ry
     estimated scf accuracy    <       0.01893210 Ry

     iteration # 17     ecut=    60.00 Ry     beta= 0.20
     Davidson diagonalization with overlap
     ethr =  8.27E-06,  avg # of iterations =  1.4

     negative rho (up, down):  9.216E-02 0.000E+00

     total cpu time spent up to now is      356.0 secs

     total energy              =   -1868.72525506 Ry
     Harris-Foulkes estimate   =   -1868.72583670 Ry
     estimated scf accuracy    <       0.01915244 Ry

     iteration # 18     ecut=    60.00 Ry     beta= 0.20
     Davidson diagonalization with overlap
     ethr =  8.27E-06,  avg # of iterations =  2.4

     negative rho (up, down):  9.904E-02 0.000E+00

     total cpu time spent up to now is      376.0 secs

     total energy              =   -1868.72532739 Ry
     Harris-Foulkes estimate   =   -1868.72540149 Ry
     estimated scf accuracy    <       0.01349075 Ry

     iteration # 19     ecut=    60.00 Ry     beta= 0.20
     Davidson diagonalization with overlap
     ethr =  5.89E-06,  avg # of iterations =  4.2

     negative rho (up, down):  9.466E-02 0.000E+00

     total cpu time spent up to now is      398.4 secs

     total energy              =   -1868.72461643 Ry
     Harris-Foulkes estimate   =   -1868.72538350 Ry
     estimated scf accuracy    <       0.01272294 Ry

     iteration # 20     ecut=    60.00 Ry     beta= 0.20
     Davidson diagonalization with overlap
     ethr =  5.56E-06,  avg # of iterations =  2.6

     negative rho (up, down):  9.456E-02 0.000E+00

     total cpu time spent up to now is      418.9 secs

     total energy              =   -1868.72435068 Ry
     Harris-Foulkes estimate   =   -1868.72486203 Ry
     estimated scf accuracy    <       0.01516127 Ry

     iteration # 21     ecut=    60.00 Ry     beta= 0.20
     Davidson diagonalization with overlap
     ethr =  5.56E-06,  avg # of iterations =  3.3

     negative rho (up, down):  1.084E-01 0.000E+00

     total cpu time spent up to now is      440.1 secs

     total energy              =   -1868.72246741 Ry
     Harris-Foulkes estimate   =   -1868.72442410 Ry
     estimated scf accuracy    <       0.01554207 Ry

     iteration # 22     ecut=    60.00 Ry     beta= 0.20
     Davidson diagonalization with overlap
     ethr =  5.56E-06,  avg # of iterations =  6.7

     negative rho (up, down):  1.092E-01 0.000E+00

     total cpu time spent up to now is      466.6 secs

     total energy              =   -1868.72238883 Ry
     Harris-Foulkes estimate   =   -1868.72284280 Ry
     estimated scf accuracy    <       0.00413659 Ry

     iteration # 23     ecut=    60.00 Ry     beta= 0.20
     Davidson diagonalization with overlap
     ethr =  1.81E-06,  avg # of iterations =  8.0

     negative rho (up, down):  1.125E-01 0.000E+00

     total cpu time spent up to now is      495.4 secs

     total energy              =   -1868.72228759 Ry
     Harris-Foulkes estimate   =   -1868.72247642 Ry
     estimated scf accuracy    <       0.00646889 Ry

     iteration # 24     ecut=    60.00 Ry     beta= 0.20
     Davidson diagonalization with overlap
     ethr =  1.81E-06,  avg # of iterations =  7.4

     negative rho (up, down):  1.012E-01 0.000E+00

     total cpu time spent up to now is      523.8 secs

     total energy              =   -1868.72191156 Ry
     Harris-Foulkes estimate   =   -1868.72230331 Ry
     estimated scf accuracy    <       0.00448103 Ry

     iteration # 25     ecut=    60.00 Ry     beta= 0.20
     Davidson diagonalization with overlap
     ethr =  1.81E-06,  avg # of iterations =  5.0

     negative rho (up, down):  9.649E-02 0.000E+00

     total cpu time spent up to now is      548.6 secs

     total energy              =   -1868.72182762 Ry
     Harris-Foulkes estimate   =   -1868.72197609 Ry
     estimated scf accuracy    <       0.00192202 Ry

     iteration # 26     ecut=    60.00 Ry     beta= 0.20
     Davidson diagonalization with overlap
     ethr =  8.39E-07,  avg # of iterations =  4.9

     negative rho (up, down):  9.514E-02 0.000E+00

     total cpu time spent up to now is      573.0 secs

     total energy              =   -1868.72185608 Ry
     Harris-Foulkes estimate   =   -1868.72186249 Ry
     estimated scf accuracy    <       0.00050407 Ry

     iteration # 27     ecut=    60.00 Ry     beta= 0.20
     Davidson diagonalization with overlap
     ethr =  2.20E-07,  avg # of iterations =  3.3

     negative rho (up, down):  9.169E-02 0.000E+00

     total cpu time spent up to now is      593.7 secs

     total energy              =   -1868.72181527 Ry
     Harris-Foulkes estimate   =   -1868.72186175 Ry
     estimated scf accuracy    <       0.00024120 Ry

     iteration # 28     ecut=    60.00 Ry     beta= 0.20
     Davidson diagonalization with overlap
     c_bands:  1 eigenvalues not converged
     c_bands:  1 eigenvalues not converged
     ethr =  1.05E-07,  avg # of iterations =  8.8

     negative rho (up, down):  9.089E-02 0.000E+00

     total cpu time spent up to now is      622.7 secs

     total energy              =   -1868.72182196 Ry
     Harris-Foulkes estimate   =   -1868.72182853 Ry
     estimated scf accuracy    <       0.00008277 Ry

     iteration # 29     ecut=    60.00 Ry     beta= 0.20
     Davidson diagonalization with overlap
     c_bands:  1 eigenvalues not converged
     ethr =  3.61E-08,  avg # of iterations =  4.1

     negative rho (up, down):  9.080E-02 0.000E+00

     total cpu time spent up to now is      644.4 secs

     total energy              =   -1868.72182022 Ry
     Harris-Foulkes estimate   =   -1868.72182633 Ry
     estimated scf accuracy    <       0.00004824 Ry

     iteration # 30     ecut=    60.00 Ry     beta= 0.20
     Davidson diagonalization with overlap
     ethr =  2.11E-08,  avg # of iterations =  5.5

     negative rho (up, down):  9.075E-02 0.000E+00

     total cpu time spent up to now is      670.3 secs

     total energy              =   -1868.72182586 Ry
     Harris-Foulkes estimate   =   -1868.72182680 Ry
     estimated scf accuracy    <       0.00000961 Ry

     iteration # 31     ecut=    60.00 Ry     beta= 0.20
     Davidson diagonalization with overlap
     ethr =  4.20E-09,  avg # of iterations =  1.4

     negative rho (up, down):  9.054E-02 0.000E+00

     total cpu time spent up to now is      688.0 secs

     total energy              =   -1868.72182844 Ry
     Harris-Foulkes estimate   =   -1868.72182630 Ry
     estimated scf accuracy    <       0.00000387 Ry

     iteration # 32     ecut=    60.00 Ry     beta= 0.20
     Davidson diagonalization with overlap
     ethr =  1.69E-09,  avg # of iterations =  2.4

     negative rho (up, down):  9.052E-02 0.000E+00

     total cpu time spent up to now is      709.1 secs

     total energy              =   -1868.72182997 Ry
     Harris-Foulkes estimate   =   -1868.72182892 Ry
     estimated scf accuracy    <       0.00000283 Ry

     iteration # 33     ecut=    60.00 Ry     beta= 0.20
     Davidson diagonalization with overlap
     ethr =  1.24E-09,  avg # of iterations =  1.9

     negative rho (up, down):  9.045E-02 0.000E+00

     total cpu time spent up to now is      726.7 secs

     End of self-consistent calculation

          k = 0.0000 0.0000 0.0000 ( 38411 PWs)   bands (ev):

   -38.7933 -38.7184 -23.4238 -23.4116 -23.3229 -23.2659 -19.3264 -19.2602
   -18.7987 -18.7899 -18.7244 -18.7113 -16.1183 -16.0686 -15.1605 -15.1074
   -14.9078 -14.9040 -14.8980 -14.8541 -14.8071 -14.6426 -14.5891 -14.4051
   -14.3927 -14.1463 -12.8622  -8.6972  -8.6443  -8.6256  -8.4793  -8.4159
    -8.4043  -8.3891  -8.3777  -8.2389  -8.2162  -8.1947  -8.1128  -2.7498
    -2.7194  -2.6981  -2.6702  -2.5791  -2.5244  -2.5059  -2.4966  -2.4625
    -2.4228  -2.3863  -2.3322  -2.2115  -1.5550  -1.4931  -1.1035  -1.0866
    -1.0369  -0.7718  -0.7147  -0.7143  -0.7053  -0.6767  -0.6699  -0.5158
    -0.5137  -0.4821  -0.4618  -0.4436  -0.4362  -0.3831  -0.3781  -0.3522
    -0.3430  -0.2524  -0.2488  -0.2373  -0.2356  -0.2128  -0.1519  -0.1362
    -0.0980  -0.0943  -0.0841  -0.0707  -0.0199   0.0159   0.0200   0.0372
     0.3178   0.4601   0.5041   0.5696   0.5710   0.6115   0.6422   0.6801
     0.7185   0.7283   0.7363   0.8216   0.8290   0.8417   0.8534   0.8557
     0.8982   1.2769   1.3184   1.3393   1.3468   1.4296   1.5387   1.5455
     1.6263   1.8436   1.9822   2.0298   2.0669   2.1095   2.1385   4.5448
     4.6529   4.6972   5.2216   5.2745   5.7723   6.0224   6.0379   6.2199
     6.2464   6.7465   6.8846   7.5004   7.5177   7.5731   7.7199   7.9177
     7.9405   8.0048

          k = 0.0000 0.1281 0.0000 ( 38395 PWs)   bands (ev):

   -38.7910 -38.7161 -23.4022 -23.3900 -23.3044 -23.2448 -19.2905 -19.2242
   -18.8942 -18.8161 -18.7955 -18.7212 -16.0094 -15.9606 -15.1687 -15.1138
   -14.9171 -14.9061 -14.8736 -14.8231 -14.7897 -14.6880 -14.6369 -14.4109
   -14.3968 -14.1786 -12.9338  -8.6861  -8.6273  -8.6106  -8.4683  -8.4085
    -8.3973  -8.3747  -8.3630  -8.2383  -8.1994  -8.1618  -8.1121  -2.8399
    -2.8319  -2.8143  -2.7588  -2.7002  -2.6497  -2.5080  -2.5012  -2.3922
    -2.3710  -2.3339  -2.3170  -2.2209  -1.6243  -1.6063  -1.5499  -1.4894
    -1.4374  -1.1022  -1.0671  -0.8821  -0.8042  -0.7674  -0.7653  -0.7590
    -0.7498  -0.7433  -0.7150  -0.6742  -0.5503  -0.4232  -0.3740  -0.3495
    -0.3353  -0.2769  -0.2688  -0.2184  -0.1956  -0.1205  -0.1177  -0.1062
    -0.0851  -0.0832  -0.0240   0.0104   0.0126   0.0355   0.1990   0.2283
     0.2646   0.3011   0.3783   0.4398   0.5230   0.5422   0.5634   0.7803
     0.8019   0.8336   0.8518   0.8765   0.9993   1.0398   1.0541   1.0699
     1.0754   1.2545   1.3157   1.3244   1.3807   1.3923   1.4948   1.6255
     1.6798   1.9063   1.9307   2.1703   2.1945   2.3555   2.3693   4.9107
     5.0190   5.0273   5.4645   5.5164   5.9241   6.3444   6.3590   6.5160
     6.5572   7.0110   7.1436   7.4398   7.5124   7.6813   7.8727   8.0582
     8.1946   8.2133

          k = 0.0000 0.2563 0.0000 ( 38414 PWs)   bands (ev):

   -38.7854 -38.7105 -23.3492 -23.3369 -23.2589 -23.1929 -19.1994 -19.1329
   -19.1193 -19.0418 -18.7877 -18.7134 -15.7609 -15.7153 -15.2438 -15.1853
   -14.9807 -14.9560 -14.8272 -14.7562 -14.7536 -14.7399 -14.7085 -14.3889
   -14.3719 -14.2270 -13.1025  -8.6604  -8.5867  -8.5719  -8.4497  -8.4398
    -8.4385  -8.2862  -8.2715  -8.2597  -8.1077  -8.1005  -8.0803  -3.2681
    -3.2344  -3.1342  -3.0691  -2.6552  -2.6485  -2.5578  -2.5463  -2.5111
    -2.3841  -2.3713  -2.3189  -2.3115  -2.2647  -2.2468  -2.1563  -1.5554
    -1.5043  -1.4874  -1.3985  -1.2715  -1.1354  -1.1227  -1.1076  -1.0534
    -0.9935  -0.9880  -0.9293  -0.9146  -0.7424  -0.6938  -0.6797  -0.6295
    -0.5455  -0.5092  -0.4294  -0.3508  -0.3124  -0.2935  -0.1133  -0.0658
    -0.0472  -0.0463  -0.0438   0.0314   0.0414   0.0510   0.1031   0.1538
     0.5302   0.5493   0.6073   0.6621   0.6898   0.7525   0.7964   0.8643
     0.8707   0.9376   0.9707   1.0260   1.0945   1.1186   1.1190   1.1974
     1.2214   1.3514   1.3865   1.5141   1.5521   1.6169   1.6315   1.6411
     1.6946   1.7973   1.8576   2.2756   2.5631   2.6676   2.6908   5.6857
     5.9015   5.9162   6.1141   6.1908   6.3527   7.2056   7.2184   7.3093
     7.3158   7.3820   7.4114   7.5817   7.7079   8.1019   8.1626   8.2757
     8.4219   8.5136

          k = 0.0000 0.3844 0.0000 ( 38324 PWs)   bands (ev):

   -38.7798 -38.7049 -23.2947 -23.2824 -23.2125 -23.1396 -19.3173 -19.2402
   -19.1012 -19.0344 -18.7799 -18.7056 -15.5090 -15.4724 -15.3882 -15.3241
   -15.0943 -15.0486 -14.8483 -14.7533 -14.7160 -14.7016 -14.6869 -14.3303
   -14.3119 -14.2253 -13.2645  -8.6350  -8.5466  -8.5317  -8.4825  -8.4716
    -8.4070  -8.3309  -8.1625  -8.1506  -8.1001  -7.9964  -7.9956  -3.6353
    -3.6053  -3.4464  -3.3742  -3.2125  -3.1975  -3.1954  -2.5619  -2.5578
    -2.3629  -2.3490  -2.3098  -2.3006  -2.2409  -2.2261  -2.1700  -1.8649
    -1.7082  -1.5348  -1.4997  -1.4721  -1.4659  -1.4144  -1.4047  -1.3500
    -1.2350  -1.2303  -1.0759  -1.0275  -0.9646  -0.9377  -0.9232  -0.8724
    -0.7613  -0.7466  -0.7292  -0.6382  -0.3746  -0.2468  -0.1813  -0.0746
    -0.0527  -0.0381  -0.0230  -0.0179   0.0366   0.0770   0.3234   0.3941
     0.5986   0.6436   0.7153   0.7476   0.7685   0.7929   0.8120   0.8251
     0.9260   0.9402   1.0079   1.0879   1.2211   1.2683   1.3056   1.3157
     1.4090   1.4518   1.4636   1.5796   1.5983   1.7828   1.8358   1.9022
     2.0244   2.0401   2.1105   2.2445   2.5656   2.6463   2.7350   6.5339
     6.7336   6.7843   6.9350   6.9925   7.1370   7.1964   7.2696   7.9196
     7.9295   8.0694   8.1058   8.1752   8.2550   8.3548   8.4152   8.5020
     8.5584   8.9985

          k = 0.0000-0.5125 0.0000 ( 38474 PWs)   bands (ev):

   -38.7774 -38.7025 -23.2716 -23.2593 -23.1929 -23.1170 -19.3933 -19.3163
   -19.0580 -18.9911 -18.7767 -18.7024 -15.4648 -15.4116 -15.3787 -15.3416
   -15.1681 -15.1049 -14.8762 -14.7416 -14.7022 -14.6938 -14.6643 -14.2991
   -14.2805 -14.2108 -13.3291  -8.6244  -8.5301  -8.5147  -8.4941  -8.4833
    -8.3858  -8.3551  -8.1155  -8.1035  -8.0961  -7.9594  -7.9516  -3.7786
    -3.7507  -3.5890  -3.5064  -3.4512  -3.4295  -3.4291  -2.5966  -2.5931
    -2.4222  -2.3632  -2.2637  -2.1996  -2.1673  -2.1567  -2.1009  -1.9871
    -1.7788  -1.7020  -1.6441  -1.6319  -1.6024  -1.5973  -1.3393  -1.3350
    -1.2846  -1.2163  -1.1714  -1.1143  -1.0627  -1.0247  -1.0101  -0.9847
    -0.9575  -0.9250  -0.7629  -0.7034  -0.4099  -0.1613  -0.1070  -0.0970
    -0.0834  -0.0814  -0.0170  -0.0114   0.0204   0.0830   0.4150   0.4469
     0.6367   0.6538   0.7231   0.7346   0.8005   0.8017   0.8645   0.8809
     0.8926   0.8978   0.9649   1.0046   1.2963   1.3701   1.3815   1.3885
     1.4015   1.4599   1.5021   1.7061   1.7632   1.8878   1.9072   2.1477
     2.1671   2.1868   2.2026   2.2754   2.4300   2.5257   2.6563   7.0763
     7.1441   7.1537   7.1964   7.2271   7.2803   7.2944   7.6032   7.7383
     8.1003   8.2645   8.3166   8.4530   8.5573   8.5651   8.5753   8.5907
     8.9366   8.9998

          k = 0.1250 0.0000 0.0000 ( 38388 PWs)   bands (ev):

   -38.7915 -38.7166 -23.4054 -23.3932 -23.3078 -23.2480 -19.2940 -19.2275
   -18.8987 -18.8255 -18.7874 -18.7088 -16.0031 -15.9519 -15.1850 -15.1356
   -14.9557 -14.9451 -14.8867 -14.8429 -14.8332 -14.6720 -14.6159 -14.4059
   -14.3926 -14.1569 -12.9391  -8.6879  -8.6543  -8.6359  -8.5039  -8.3808
    -8.3692  -8.3549  -8.3434  -8.2008  -8.1834  -8.1581  -8.0856  -2.8347
    -2.7927  -2.7464  -2.6704  -2.6686  -2.6212  -2.4950  -2.4806  -2.4516
    -2.4128  -2.4097  -2.3543  -2.2117  -1.5407  -1.4789  -1.0980  -1.0812
    -1.0769  -0.9897  -0.9226  -0.8116  -0.7945  -0.7918  -0.7808  -0.7310
    -0.7034  -0.7026  -0.6679  -0.5349  -0.4797  -0.4452  -0.4299  -0.2884
    -0.2382  -0.2216  -0.1719  -0.1619  -0.1423  -0.1310  -0.1013  -0.0938
    -0.0865  -0.0186  -0.0060   0.0043   0.0152   0.0185   0.0418   0.0523
     0.2537   0.3093   0.3551   0.3890   0.3961   0.5891   0.5969   0.6135
     0.6317   0.6413   0.6996   0.8063   0.8289   0.8737   0.9386   1.0633
     1.0806   1.2177   1.3524   1.3941   1.4851   1.4927   1.5605   1.6364
     1.6576   1.8923   1.8959   1.9928   2.0383   2.0716   2.1851   4.7496
     4.8427   4.8515   5.4295   5.4808   5.9022   6.2637   6.2795   6.4397
     6.5085   6.9761   7.1063   7.4810   7.5533   7.6713   7.8701   8.0343
     8.2461   8.2720

          k = 0.1250 0.1281 0.0000 ( 38416 PWs)   bands (ev):

   -38.7892 -38.7143 -23.3846 -23.3723 -23.2897 -23.2275 -19.2586 -19.1920
   -18.9028 -18.8820 -18.8280 -18.8055 -15.8951 -15.8448 -15.1830 -15.1316
   -14.9518 -14.9416 -14.8560 -14.8241 -14.8050 -14.7254 -14.6700 -14.4055
   -14.3910 -14.1796 -12.9889  -8.6762  -8.6417  -8.6258  -8.5290  -8.5169
    -8.4892  -8.3526  -8.2837  -8.2310  -8.2195  -8.0655  -7.9795  -2.9371
    -2.9015  -2.8901  -2.8068  -2.6992  -2.6559  -2.5456  -2.5102  -2.4838
    -2.4630  -2.3331  -2.2656  -2.2110  -1.6179  -1.6007  -1.5701  -1.4463
    -1.3893  -1.3055  -1.2607  -1.0967  -1.0800  -0.9994  -0.9690  -0.8720
    -0.7597  -0.7508  -0.6394  -0.5550  -0.5398  -0.4701  -0.4585  -0.3629
    -0.3507  -0.3183  -0.2851  -0.1994  -0.1896  -0.1466  -0.1431  -0.1036
    -0.0542  -0.0494  -0.0399  -0.0327   0.0800   0.0810   0.2004   0.2296
     0.3213   0.3738   0.4627   0.5065   0.5242   0.5422   0.5818   0.6368
     0.6411   0.7829   0.8251   0.8548   0.9031   0.9216   0.9712   1.1957
     1.2074   1.2505   1.2609   1.2700   1.3697   1.5715   1.7037   1.8057
     1.9346   1.9983   2.1452   2.1976   2.2129   2.3664   2.3824   5.0529
     5.1560   5.1684   5.6329   5.6950   6.0395   6.5752   6.5916   6.7260
     6.8097   7.1962   7.3089   7.3893   7.4732   7.8314   8.0068   8.1336
     8.3111   8.3775

          k = 0.1250 0.2563 0.0000 ( 38472 PWs)   bands (ev):

   -38.7836 -38.7087 -23.3334 -23.3211 -23.2456 -23.1773 -19.1687 -19.1148
   -19.1019 -19.0373 -18.8830 -18.8097 -15.6490 -15.6023 -15.2289 -15.1708
   -14.9795 -14.9596 -14.8242 -14.7990 -14.7710 -14.7584 -14.7284 -14.3801
   -14.3633 -14.2162 -13.1107  -8.6524  -8.6521  -8.6403  -8.5870  -8.5730
    -8.4730  -8.4458  -8.3619  -8.1869  -8.1754  -8.0296  -7.9419  -3.3739
    -3.3303  -3.1657  -3.0990  -2.6779  -2.6666  -2.6081  -2.5557  -2.5396
    -2.4974  -2.4692  -2.3785  -2.3661  -2.2563  -2.1818  -2.1474  -1.6550
    -1.5949  -1.4961  -1.4537  -1.4422  -1.4297  -1.3877  -1.3258  -1.2866
    -0.9325  -0.9227  -0.8619  -0.8254  -0.7280  -0.6801  -0.6734  -0.6231
    -0.4459  -0.4388  -0.3822  -0.2744  -0.2478  -0.2421  -0.1528  -0.1400
    -0.1078  -0.0502  -0.0144   0.0003   0.0503   0.0982   0.3123   0.3560
     0.5504   0.5722   0.5992   0.6741   0.6860   0.7817   0.7834   0.8028
     0.8203   0.9239   0.9800   0.9952   1.0733   1.0785   1.2071   1.2112
     1.2288   1.2691   1.3798   1.5871   1.6012   1.6735   1.7744   2.0433
     2.0924   2.1524   2.2623   2.3757   2.5620   2.6748   2.6971   5.7689
     5.9546   5.9696   6.2184   6.2887   6.4511   7.1582   7.2410   7.4095
     7.4213   7.4878   7.6341   7.7460   7.8669   8.0390   8.1136   8.3116
     8.4022   8.4681

          k = 0.1250 0.3844 0.0000 ( 38457 PWs)   bands (ev):

   -38.7780 -38.7031 -23.2809 -23.2686 -23.2004 -23.1259 -19.3113 -19.2342
   -19.0719 -19.0048 -18.8731 -18.7998 -15.4031 -15.3730 -15.3485 -15.2740
   -15.0617 -15.0248 -14.8282 -14.8135 -14.7772 -14.6819 -14.6767 -14.3263
   -14.3080 -14.2191 -13.2331  -8.6569  -8.6463  -8.6289  -8.5566  -8.5422
    -8.4958  -8.4136  -8.3213  -8.2350  -8.2232  -8.0737  -8.0161  -3.7560
    -3.7163  -3.4922  -3.4218  -3.2022  -3.1871  -3.1833  -2.5967  -2.5878
    -2.4846  -2.4203  -2.4054  -2.3920  -2.2556  -2.2086  -2.1904  -1.9174
    -1.8983  -1.8952  -1.8157  -1.7143  -1.6196  -1.4913  -1.3228  -1.2640
    -1.1172  -1.1117  -1.0908  -1.0696  -0.9481  -0.9245  -0.8775  -0.8657
    -0.5620  -0.5398  -0.4547  -0.4224  -0.3050  -0.1647  -0.1557  -0.1039
    -0.0459  -0.0415  -0.0315   0.0053   0.0360   0.0982   0.4176   0.4757
     0.6008   0.6432   0.7339   0.7873   0.8100   0.8578   0.8710   0.9117
     0.9377   0.9425   1.0506   1.1495   1.2239   1.2455   1.2628   1.2641
     1.5169   1.5950   1.6060   1.8637   1.9980   2.0143   2.0730   2.0888
     2.0995   2.1286   2.2994   2.3706   2.5645   2.6759   2.7502   6.5484
     6.6507   6.6834   6.8414   6.8724   7.0452   7.1336   7.2429   7.8926
     7.9589   7.9712   8.0139   8.2847   8.3942   8.4853   8.5381   8.5836
     8.7630   9.0703

          k = 0.1250-0.5125 0.0000 ( 38456 PWs)   bands (ev):

   -38.7757 -38.7008 -23.2587 -23.2464 -23.1814 -23.1042 -19.3869 -19.3099
   -19.0294 -18.9622 -18.8689 -18.7956 -15.4244 -15.3703 -15.2612 -15.2235
   -15.1305 -15.0752 -14.8465 -14.8021 -14.7633 -14.6708 -14.6455 -14.2978
   -14.2792 -14.2097 -13.2833  -8.6316  -8.6208  -8.6203  -8.5426  -8.5277
    -8.4838  -8.3998  -8.2831  -8.2711  -8.2328  -8.1174  -8.1127  -3.9040
    -3.8660  -3.6379  -3.5608  -3.4422  -3.4254  -3.4229  -2.6132  -2.6071
    -2.4302  -2.3562  -2.3043  -2.2766  -2.2557  -2.2544  -2.1831  -2.0990
    -2.0595  -2.0487  -2.0435  -1.7968  -1.6655  -1.5482  -1.2746  -1.2441
    -1.1941  -1.1922  -1.1554  -1.1048  -1.0357  -1.0151  -0.9617  -0.9363
    -0.6077  -0.5697  -0.5405  -0.4946  -0.4077  -0.1586  -0.1418  -0.0745
    -0.0605  -0.0302  -0.0182   0.0401   0.0847   0.0920   0.5138   0.5478
     0.6466   0.7134   0.7378   0.7694   0.7872   0.8810   0.9029   0.9060
     0.9153   0.9178   1.0063   1.1863   1.3048   1.3256   1.3471   1.4476
     1.4857   1.8810   1.9003   2.0412   2.0584   2.0863   2.1281   2.1658
     2.1817   2.2355   2.2682   2.2716   2.4469   2.5859   2.6776   6.8159
     6.8783   6.9473   6.9727   7.0180   7.1560   7.2383   7.6770   7.6904
     8.0907   8.4621   8.4856   8.5228   8.6889   8.7176   8.7571   8.8007
     8.8504   8.9346

          k = 0.2500 0.0000 0.0000 ( 38472 PWs)   bands (ev):

   -38.7871 -38.7122 -23.3602 -23.3480 -23.2708 -23.2038 -19.2125 -19.1451
   -19.1133 -19.0421 -18.7813 -18.7027 -15.7393 -15.6856 -15.2928 -15.2496
   -15.0746 -15.0537 -14.9546 -14.8310 -14.7965 -14.7076 -14.6451 -14.4005
   -14.3860 -14.1718 -13.1179  -8.6651  -8.6650  -8.6450  -8.5301  -8.3108
    -8.2993  -8.2696  -8.2581  -8.1431  -8.1019  -8.0754  -8.0183  -3.1383
    -3.1035  -3.0631  -2.9685  -2.5358  -2.5327  -2.5282  -2.4778  -2.4148
    -2.3795  -2.3293  -2.2533  -2.2518  -1.6224  -1.5727  -1.2934  -1.2201
    -1.1826  -1.1796  -1.1686  -1.0911  -1.0759  -1.0709  -1.0567  -1.0005
    -0.9924  -0.8066  -0.7493  -0.6946  -0.5256  -0.4708  -0.4448  -0.4375
    -0.3903  -0.3611  -0.3538  -0.1914  -0.1751  -0.1715  -0.1219  -0.1082
    -0.0070   0.0242   0.0284   0.0471   0.0629   0.0889   0.1184   0.1552
     0.1808   0.2287   0.2450   0.4454   0.4597   0.5961   0.6461   0.6788
     0.6888   0.7469   0.7687   0.9051   0.9351   0.9502   0.9578   1.0120
     1.0454   1.0608   1.3749   1.3857   1.4257   1.4265   1.5507   1.5854
     1.7417   1.8737   1.9162   2.0051   2.1136   2.2061   2.3144   5.2006
     5.2813   5.2938   5.9795   6.0656   6.2570   6.8976   6.9197   7.0350
     7.2571   7.4354   7.4573   7.5066   7.5681   8.1049   8.2578   8.2706
     8.4809   8.5666

          k = 0.2500 0.1281 0.0000 ( 38492 PWs)   bands (ev):

   -38.7848 -38.7099 -23.3413 -23.3290 -23.2540 -23.1851 -19.1785 -19.1109
   -19.1075 -19.0363 -18.8814 -18.8032 -15.6339 -15.5817 -15.2665 -15.2204
   -15.0471 -15.0298 -14.9158 -14.8069 -14.7733 -14.7706 -14.7071 -14.3902
   -14.3752 -14.1770 -13.1215  -8.6723  -8.6613  -8.6493  -8.5566  -8.5439
    -8.5352  -8.3752  -8.3286  -8.1568  -8.1454  -8.0047  -7.9100  -3.2826
    -3.2303  -3.1032  -3.0195  -2.6302  -2.6196  -2.6073  -2.5666  -2.5110
    -2.5047  -2.2439  -2.2350  -2.1640  -1.6642  -1.6166  -1.6067  -1.6029
    -1.5947  -1.5034  -1.4581  -1.4566  -1.4190  -1.3163  -1.2746  -1.0076
    -0.8951  -0.8383  -0.7013  -0.6262  -0.5298  -0.4864  -0.4592  -0.3976
    -0.3913  -0.3735  -0.3307  -0.2755  -0.2535  -0.2232  -0.1623  -0.1490
    -0.1243  -0.0626   0.0556   0.0778   0.0914   0.1857   0.2100   0.2263
     0.3735   0.4078   0.5420   0.5948   0.6101   0.6732   0.6907   0.7342
     0.7702   0.7971   0.8676   0.8766   0.8853   0.9184   0.9635   1.1014
     1.1103   1.1624   1.2943   1.3073   1.3258   1.3973   1.8358   2.1082
     2.1435   2.2082   2.2601   2.3376   2.3813   2.4450   2.4726   5.4235
     5.5222   5.5357   6.1137   6.1940   6.3818   7.1457   7.1805   7.2263
     7.2859   7.3058   7.5371   7.6853   7.7900   8.1510   8.1914   8.2716
     8.3655   8.3980

          k = 0.2500 0.2563 0.0000 ( 38499 PWs)   bands (ev):

   -38.7793 -38.7044 -23.2948 -23.2825 -23.2129 -23.1393 -19.1152 -19.0924
   -19.0775 -19.0400 -19.0244 -19.0041 -15.3986 -15.3559 -15.2207 -15.1578
   -14.9933 -14.9812 -14.9166 -14.8645 -14.8210 -14.7494 -14.6920 -14.3582
   -14.3416 -14.1898 -13.1350  -8.8586  -8.8471  -8.6792  -8.6330  -8.6056
    -8.5918  -8.5776  -8.4615  -8.2540  -8.2426  -8.1031  -8.0000  -3.7058
    -3.6472  -3.3264  -3.2477  -2.7646  -2.7500  -2.7323  -2.6726  -2.6080
    -2.6006  -2.4841  -2.3866  -2.3744  -2.1998  -2.1425  -2.0973  -2.0293
    -2.0114  -1.9808  -1.8990  -1.4898  -1.4502  -1.4210  -1.3445  -1.2489
    -0.9946  -0.9650  -0.8364  -0.7949  -0.7552  -0.7330  -0.6930  -0.6584
    -0.6499  -0.5402  -0.4279  -0.2358  -0.1097  -0.0978  -0.0600   0.0217
     0.0681   0.0890   0.1288   0.1378   0.2351   0.2526   0.5872   0.6197
     0.6546   0.6741   0.7048   0.7390   0.7553   0.7585   0.7726   0.8247
     0.8481   0.8701   0.8919   0.9600   1.1673   1.1679   1.2279   1.3074
     1.3269   1.4075   1.4229   1.5123   1.5233   1.6134   2.0623   2.1751
     2.5577   2.6414   2.6676   2.7186   2.7516   2.9065   2.9390   5.9638
     6.0356   6.0477   6.4590   6.4926   6.7773   6.9564   7.0597   7.6818
     7.7066   7.7243   8.0479   8.1293   8.1534   8.1987   8.2437   8.4113
     8.5008   8.5235

          k = 0.2500 0.3844 0.0000 ( 38531 PWs)   bands (ev):

   -38.7737 -38.6988 -23.2472 -23.2349 -23.1710 -23.0925 -19.2968 -19.2197
   -19.0780 -19.0063 -18.9967 -18.9290 -15.2727 -15.2327 -15.1568 -15.0822
   -14.9790 -14.9615 -14.9582 -14.9268 -14.7678 -14.6590 -14.6344 -14.3151
   -14.2970 -14.2019 -13.1553  -8.9652  -8.9539  -8.7873  -8.6544  -8.6152
    -8.5842  -8.5700  -8.4909  -8.4792  -8.4460  -8.3231  -8.2464  -4.1189
    -4.0629  -3.6755  -3.5997  -3.1754  -3.1603  -3.1524  -2.7957  -2.7751
    -2.7142  -2.6512  -2.5000  -2.4933  -2.4882  -2.4611  -2.2674  -2.2191
    -2.2036  -1.9807  -1.9216  -1.5314  -1.4986  -1.4565  -1.3604  -1.3335
    -1.2134  -1.1500  -0.9981  -0.9840  -0.9657  -0.9226  -0.9131  -0.7526
    -0.7115  -0.6008  -0.4596  -0.2184  -0.0439  -0.0010   0.0403   0.0845
     0.1523   0.1882   0.2641   0.3454   0.3986   0.4487   0.6362   0.6559
     0.6665   0.7007   0.8019   0.8907   0.9250   0.9665   0.9699   1.0232
     1.0987   1.1258   1.1724   1.1752   1.2396   1.2611   1.3375   1.3911
     1.6058   1.6068   1.8511   1.9325   1.9479   1.9690   2.0519   2.0939
     2.5152   2.5749   2.6955   2.9929   3.0264   3.1825   3.2058   6.1899
     6.2115   6.3579   6.4661   6.5216   7.0782   7.2826   7.4399   7.8284
     7.8694   8.0591   8.0816   8.4369   8.5825   8.6640   8.7399   8.9583
     9.0450   9.0664

          k = 0.2500-0.5125 0.0000 ( 38562 PWs)   bands (ev):

   -38.7714 -38.6965 -23.2272 -23.2148 -23.1534 -23.0728 -19.3713 -19.2943
   -19.0722 -19.0005 -18.9560 -18.8882 -15.3221 -15.2650 -15.0361 -15.0021
   -14.9976 -14.9628 -14.9520 -14.9097 -14.7696 -14.6153 -14.6039 -14.2943
   -14.2757 -14.2071 -13.1655  -8.9497  -8.9388  -8.7839  -8.6504  -8.6385
    -8.6139  -8.5700  -8.5586  -8.5550  -8.4739  -8.4656  -8.4230  -4.2812
    -4.2264  -3.8326  -3.7558  -3.4152  -3.4039  -3.3987  -2.7903  -2.7679
    -2.6740  -2.6611  -2.6218  -2.6106  -2.4867  -2.4770  -2.3797  -2.3340
    -2.2056  -1.9805  -1.9271  -1.5383  -1.5112  -1.4804  -1.3632  -1.3104
    -1.3094  -1.2361  -1.0662  -1.0411  -1.0404  -0.9958  -0.9602  -0.7560
    -0.7294  -0.6099  -0.4659  -0.2084  -0.0186   0.0161   0.0624   0.0935
     0.1367   0.1926   0.2700   0.3646   0.5284   0.5778   0.7103   0.7191
     0.7454   0.7869   0.8790   0.9304   0.9576   1.0086   1.0247   1.0736
     1.0751   1.1488   1.1714   1.2224   1.2454   1.4168   1.4370   1.6609
     1.6938   1.8758   1.8951   2.0040   2.0982   2.1112   2.1269   2.2338
     2.3560   2.4303   2.6244   3.0504   3.0852   3.2382   3.2605   6.1479
     6.1644   6.3680   6.3995   6.4679   7.2993   7.4398   7.5704   7.8978
     8.1685   8.4639   8.6606   8.6746   8.6973   8.7871   8.9418   9.0460
     9.0976   9.1184

          k = 0.3750 0.0000 0.0000 ( 38500 PWs)   bands (ev):

   -38.7827 -38.7078 -23.3139 -23.3016 -23.2331 -23.1586 -19.3027 -19.2325
   -19.1238 -19.0556 -18.7752 -18.6966 -15.4885 -15.4589 -15.4296 -15.3583
   -15.2062 -15.1684 -15.0563 -14.8152 -14.7951 -14.7010 -14.6350 -14.3890
   -14.3740 -14.1755 -13.2871  -8.6666  -8.6555  -8.6286  -8.5307  -8.2514
    -8.2402  -8.1803  -8.1686  -8.1122  -8.0167  -7.9987  -7.9488  -3.4643
    -3.4248  -3.3278  -3.2414  -2.6041  -2.6019  -2.3728  -2.3274  -2.3162
    -2.2890  -2.2806  -2.2516  -2.2113  -1.6337  -1.5975  -1.5888  -1.5631
    -1.5596  -1.3953  -1.3771  -1.3532  -1.3131  -1.2232  -1.2163  -1.0691
    -1.0523  -0.8994  -0.8389  -0.8353  -0.7886  -0.7631  -0.6986  -0.5803
    -0.4378  -0.3638  -0.3079  -0.2493  -0.1667  -0.1461  -0.1353  -0.1214
    -0.0210   0.0845   0.0891   0.1049   0.1210   0.1427   0.1623   0.1774
     0.2108   0.2714   0.2824   0.4625   0.4850   0.5187   0.7271   0.7517
     0.7761   0.8432   0.8444   0.8890   0.9202   0.9420   1.1101   1.1560
     1.1929   1.1975   1.2625   1.2793   1.3020   1.3174   1.5253   1.6126
     1.6303   1.8951   1.9303   2.0482   2.1257   2.3099   2.3978   5.8359
     5.9180   5.9304   6.5831   6.5957   6.9084   7.3914   7.4079   7.4301
     7.4618   7.4918   7.8385   7.8673   8.1007   8.2178   8.2769   8.3561
     8.4345   8.8153

          k = 0.3750 0.1281 0.0000 ( 38478 PWs)   bands (ev):

   -38.7805 -38.7055 -23.2969 -23.2846 -23.2176 -23.1418 -19.2954 -19.2252
   -19.0908 -19.0226 -18.8736 -18.7953 -15.4240 -15.4005 -15.3497 -15.2694
   -15.1535 -15.1255 -15.0076 -14.7861 -14.7684 -14.7644 -14.7002 -14.3727
   -14.3574 -14.1689 -13.2522  -8.6674  -8.6548  -8.6265  -8.5348  -8.4982
    -8.4867  -8.3274  -8.2541  -8.2128  -8.2014  -8.0677  -7.9638  -3.6167
    -3.5635  -3.3795  -3.2973  -2.6446  -2.6313  -2.5715  -2.5345  -2.4401
    -2.4024  -2.2718  -2.1899  -2.1145  -1.9441  -1.9134  -1.8818  -1.8194
    -1.6475  -1.6123  -1.5992  -1.4887  -1.4347  -1.4288  -1.3464  -1.1743
    -1.1213  -0.8690  -0.7747  -0.7150  -0.5980  -0.5820  -0.5426  -0.4819
    -0.4578  -0.4324  -0.4212  -0.3388  -0.2786  -0.2054  -0.2014  -0.1112
    -0.0345  -0.0158   0.0001   0.1533   0.1687   0.2649   0.2782   0.2825
     0.4540   0.5003   0.5622   0.6396   0.6428   0.6874   0.7350   0.7592
     0.8111   0.8213   0.9314   0.9823   0.9945   1.0428   1.1333   1.1576
     1.1626   1.1905   1.2146   1.2384   1.3171   1.3840   1.6047   2.1625
     2.2181   2.2643   2.2868   2.3701   2.3988   2.5913   2.6194   5.9816
     6.0412   6.0531   6.6510   6.6817   6.9988   7.0435   7.1422   7.4872
     7.5044   7.5326   7.9856   8.1589   8.2570   8.2671   8.3171   8.3481
     8.5059   8.8165

          k = 0.3750 0.2563 0.0000 ( 38505 PWs)   bands (ev):

   -38.7750 -38.7000 -23.2554 -23.2431 -23.1797 -23.1006 -19.2779 -19.2076
   -19.0889 -19.0113 -19.0076 -18.9391 -15.3069 -15.2793 -15.1573 -15.0951
   -15.0097 -14.9774 -14.9328 -14.8706 -14.8682 -14.7188 -14.6797 -14.3353
   -14.3190 -14.1629 -13.1651  -8.9077  -8.8962  -8.7327  -8.6407  -8.6240
    -8.6110  -8.5968  -8.4817  -8.4789  -8.4700  -8.3267  -8.2204  -4.0601
    -3.9968  -3.6089  -3.5262  -2.8344  -2.8146  -2.7555  -2.7128  -2.6127
    -2.6060  -2.5078  -2.4668  -2.4438  -2.3931  -2.3796  -2.2558  -2.2292
    -2.2042  -1.9069  -1.8371  -1.4782  -1.4273  -1.3823  -1.3196  -1.2092
    -1.1201  -1.1098  -0.9058  -0.8459  -0.8145  -0.7885  -0.7481  -0.6722
    -0.6502  -0.5485  -0.4618  -0.2640  -0.0763   0.0489   0.0860   0.0989
     0.2432   0.2796   0.3509   0.3655   0.4241   0.4642   0.6344   0.6654
     0.6666   0.7011   0.7769   0.8012   0.8174   0.8442   0.8714   0.9556
     1.0041   1.0388   1.0473   1.0741   1.2054   1.2098   1.3520   1.3601
     1.3820   1.4106   1.4222   1.4274   1.4924   1.5352   2.0099   2.1245
     2.5577   2.6457   2.6796   3.1110   3.1357   3.2563   3.2815   6.0039
     6.0258   6.1387   6.4605   6.5101   7.0101   7.1587   7.3506   7.6550
     7.7408   7.7454   7.8475   8.4440   8.5181   8.5353   8.5822   8.7342
     8.9109   8.9373

          k = 0.3750 0.3844 0.0000 ( 38597 PWs)   bands (ev):

   -38.7694 -38.6945 -23.2130 -23.2006 -23.1412 -23.0586 -19.2835 -19.2575
   -19.2069 -19.1864 -18.9182 -18.8496 -15.2017 -15.1622 -15.0961 -15.0445
   -15.0003 -14.9701 -14.8370 -14.7840 -14.6930 -14.6588 -14.6001 -14.3021
   -14.2843 -14.1815 -13.0740  -9.1741  -9.1627  -8.9905  -8.8623  -8.8103
    -8.7988  -8.6341  -8.6159  -8.6119  -8.5941  -8.5641  -8.4716  -4.5125
    -4.4499  -3.9697  -3.8895  -3.1474  -3.1322  -3.1216  -2.9280  -2.9118
    -2.9022  -2.8621  -2.8464  -2.7973  -2.5015  -2.4990  -2.3952  -2.3482
    -2.2113  -1.7558  -1.7030  -1.5703  -1.5191  -1.3825  -1.3561  -1.3304
    -1.2728  -1.1858  -1.1648  -1.1023  -1.0370  -1.0179  -0.9742  -0.6073
    -0.6014  -0.4856  -0.4829  -0.2097   0.0605   0.2002   0.3501   0.3668
     0.3835   0.3990   0.5724   0.7143   0.7680   0.7939   0.8059   0.8194
     0.8615   0.9297   0.9394   0.9959   1.0046   1.0245   1.0810   1.0877
     1.0985   1.1757   1.2309   1.3068   1.3331   1.3366   1.5206   1.6174
     1.6371   1.7938   1.8537   1.8583   1.8693   1.9826   1.9930   2.2342
     2.5000   2.5748   2.7092   3.6518   3.6804   3.7666   3.7837   5.6459
     5.6607   5.8889   6.1510   6.2416   7.2373   7.5106   7.6298   7.7607
     8.0561   8.2781   8.3055   8.3416   8.4103   8.7275   8.8121   8.9412
     9.0066   9.0412

          k = 0.3750-0.5125 0.0000 ( 38630 PWs)   bands (ev):

   -38.7672 -38.6922 -23.1952 -23.1828 -23.1251 -23.0409 -19.3557 -19.2786
   -19.2521 -19.1816 -18.8791 -18.8104 -15.2116 -15.1498 -15.1069 -15.0710
   -14.9372 -14.9274 -14.7554 -14.7134 -14.6754 -14.5767 -14.5606 -14.2907
   -14.2721 -14.2047 -13.0350  -9.2530  -9.2418  -9.0728  -8.9656  -8.9538
    -8.8833  -8.7864  -8.7737  -8.6090  -8.6073  -8.5842  -8.4670  -4.6933
    -4.6315  -4.1348  -4.0554  -3.3857  -3.3769  -3.3700  -3.0429  -3.0008
    -2.9432  -2.9296  -2.8576  -2.8068  -2.4970  -2.4950  -2.4428  -2.3971
    -2.1940  -1.7770  -1.7302  -1.5271  -1.4766  -1.4417  -1.4135  -1.4117
    -1.2850  -1.2572  -1.2357  -1.1637  -1.1186  -1.1010  -1.0582  -0.5717
    -0.5687  -0.4869  -0.4474  -0.1842   0.0945   0.2170   0.4099   0.4252
     0.4613   0.5088   0.6483   0.8224   0.8259   0.8361   0.8515   0.8945
     0.9993   1.0057   1.0426   1.0431   1.0823   1.1032   1.1493   1.2429
     1.2554   1.2986   1.2994   1.3570   1.3902   1.4139   1.4987   1.8470
     1.8947   1.9137   2.0503   2.0661   2.0922   2.1229   2.1320   2.1778
     2.3299   2.4199   2.6391   3.8136   3.8444   3.9345   3.9499   5.4505
     5.4634   5.7176   6.0483   6.1528   7.3980   7.4337   7.6415   7.8282
     8.3475   8.4401   8.4507   8.5822   8.6411   8.7537   8.8309   8.8604
     8.8897   9.0699

          k =-0.5000 0.0000 0.0000 ( 38486 PWs)   bands (ev):

   -38.7809 -38.7060 -23.2944 -23.2821 -23.2172 -23.1396 -19.3747 -19.3050
   -19.0855 -19.0169 -18.7727 -18.6941 -15.5270 -15.4965 -15.3127 -15.2901
   -15.2490 -15.2314 -15.1024 -14.8241 -14.8180 -14.6897 -14.6230 -14.3832
   -14.3682 -14.1747 -13.3542  -8.6659  -8.6542  -8.6171  -8.5256  -8.2286
    -8.2175  -8.1420  -8.1303  -8.1051  -7.9803  -7.9684  -7.9193  -3.5877
    -3.5492  -3.4430  -3.3576  -2.6307  -2.6287  -2.3356  -2.3216  -2.3174
    -2.2952  -2.2379  -2.0721  -2.0288  -1.8734  -1.8402  -1.6895  -1.5275
    -1.5087  -1.4876  -1.4767  -1.4720  -1.3834  -1.3189  -1.3124  -1.0787
    -1.0633  -1.0465  -1.0284  -0.9181  -0.8175  -0.7799  -0.7771  -0.6379
    -0.4358  -0.3927  -0.2689  -0.2093  -0.1548  -0.1408  -0.1353  -0.1270
    -0.0268   0.0995   0.1023   0.1149   0.1544   0.1681   0.1838   0.1866
     0.2042   0.2043   0.2880   0.3863   0.6146   0.6431   0.7681   0.7736
     0.7919   0.8088   0.8300   0.8607   0.9262   0.9691   1.0238   1.2325
     1.2401   1.2412   1.2619   1.2962   1.3603   1.4294   1.4333   1.5981
     1.6120   1.8841   1.9103   2.0497   2.1154   2.3235   2.4043   6.5999
     6.6234   6.6486   6.7488   6.7721   6.7865   6.8643   6.9549   7.3736
     7.4437   7.4459   7.7867   8.0116   8.1048   8.5095   8.5960   8.6619
     8.7656   8.7978

          k =-0.5000 0.1281 0.0000 ( 38464 PWs)   bands (ev):

   -38.7787 -38.7037 -23.2783 -23.2660 -23.2023 -23.1235 -19.3670 -19.2972
   -19.0532 -18.9845 -18.8703 -18.7920 -15.4784 -15.4471 -15.2404 -15.1968
   -15.1915 -15.1330 -15.0516 -14.7934 -14.7871 -14.7565 -14.6892 -14.3649
   -14.3496 -14.1643 -13.3053  -8.6617  -8.6492  -8.6154  -8.5232  -8.3638
    -8.3533  -8.3526  -8.3417  -8.2289  -8.1856  -8.1064  -8.1046  -3.7457
    -3.6932  -3.5029  -3.4210  -2.6554  -2.6466  -2.5612  -2.5219  -2.3313
    -2.2153  -2.2016  -2.1989  -2.1780  -2.1556  -2.1109  -2.0390  -1.9693
    -1.6263  -1.6197  -1.6033  -1.5130  -1.4126  -1.3616  -1.3583  -1.2376
    -1.2279  -0.8447  -0.8400  -0.7646  -0.6313  -0.6097  -0.5629  -0.5565
    -0.5284  -0.4845  -0.4351  -0.3879  -0.3768  -0.2024  -0.1908  -0.1078
    -0.0176   0.0508   0.0798   0.1462   0.1635   0.2993   0.3511   0.3657
     0.4717   0.4907   0.6157   0.6263   0.7248   0.7296   0.7785   0.7813
     0.7963   0.8273   0.9122   0.9459   0.9569   0.9986   1.1789   1.2088
     1.2194   1.2596   1.2679   1.3420   1.3477   1.4103   1.4251   2.1459
     2.2437   2.2727   2.2819   2.3632   2.3911   2.6129   2.6393   6.4808
     6.4988   6.6063   6.7928   6.9197   6.9336   6.9392   7.0509   7.1170
     7.1413   7.5469   7.7817   8.4343   8.4951   8.5373   8.6139   8.7346
     8.7783   8.9002

          k =-0.5000 0.2563 0.0000 ( 38510 PWs)   bands (ev):

   -38.7732 -38.6983 -23.2388 -23.2265 -23.1658 -23.0843 -19.3482 -19.2783
   -19.0844 -19.0068 -18.9715 -18.9026 -15.3559 -15.3224 -15.1132 -15.0866
   -14.9411 -14.9174 -14.9118 -14.8920 -14.8343 -14.7188 -14.7128 -14.3255
   -14.3094 -14.1516 -13.1791  -8.8299  -8.8183  -8.6751  -8.6637  -8.6599
    -8.6301  -8.6216  -8.6119  -8.5144  -8.5047  -8.4853  -8.4369  -4.2022
    -4.1384  -3.7452  -3.6631  -2.8515  -2.8304  -2.7417  -2.7027  -2.6620
    -2.6183  -2.6068  -2.5997  -2.4267  -2.3945  -2.3811  -2.3358  -2.2830
    -2.2476  -1.8779  -1.8083  -1.4601  -1.4100  -1.3412  -1.2398  -1.2315
    -1.2187  -1.1054  -0.9067  -0.8470  -0.8467  -0.8323  -0.7759  -0.6683
    -0.6514  -0.5422  -0.4759  -0.2785  -0.0581   0.0904   0.1159   0.1227
     0.2540   0.3238   0.3803   0.4078   0.5837   0.6239   0.6659   0.7175
     0.7257   0.7562   0.8275   0.8783   0.9029   0.9134   0.9160   0.9210
     0.9492   1.0420   1.0923   1.1454   1.2467   1.3298   1.3558   1.3656
     1.3688   1.3747   1.3836   1.4618   1.5020   1.6975   1.7572   2.0836
     2.5563   2.6422   2.6794   3.2224   3.2456   3.3510   3.3746   5.9674
     5.9837   6.1776   6.3666   6.4596   7.1570   7.3409   7.4852   7.6966
     7.7949   7.8304   7.8483   8.4941   8.5562   8.6447   8.7001   8.7816
     8.9491   8.9878

          k =-0.5000 0.3844 0.0000 ( 38630 PWs)   bands (ev):

   -38.7677 -38.6928 -23.1986 -23.1863 -23.1287 -23.0443 -19.3294 -19.2754
   -19.2594 -19.1982 -18.8839 -18.8148 -15.2271 -15.1915 -15.0909 -15.0268
   -14.9673 -14.9607 -14.7361 -14.7006 -14.6425 -14.6424 -14.6313 -14.2964
   -14.2788 -14.1719 -13.0393  -9.2234  -9.2121  -9.0411  -8.9690  -8.9573
    -8.8805  -8.7836  -8.7684  -8.6257  -8.6173  -8.5933  -8.4860  -4.6736
    -4.6098  -4.1119  -4.0315  -3.1355  -3.1204  -3.1091  -3.0462  -3.0021
    -2.9600  -2.9470  -2.8753  -2.8304  -2.5005  -2.4983  -2.4328  -2.3845
    -2.2114  -1.6701  -1.6349  -1.6138  -1.5892  -1.3541  -1.3356  -1.3182
    -1.3051  -1.2409  -1.1550  -1.1293  -1.0676  -1.0527  -1.0098  -0.5505
    -0.5394  -0.4991  -0.4341  -0.2047   0.0930   0.2411   0.4743   0.4784
     0.5285   0.5744   0.7106   0.7890   0.7963   0.8316   0.8469   0.9497
     0.9530   0.9730   0.9859   1.0323   1.0781   1.1053   1.1635   1.1825
     1.2152   1.2709   1.2712   1.3125   1.3450   1.4235   1.4940   1.6224
     1.6550   1.8159   1.8311   1.8846   1.9217   1.9330   2.1445   2.1463
     2.4977   2.5730   2.7144   3.8761   3.9033   3.9731   3.9879   5.4083
     5.4220   5.6692   6.0396   6.1451   7.3480   7.4700   7.6357   7.8094
     8.1180   8.2729   8.3557   8.5062   8.6625   8.7072   8.8131   8.8400
     8.9683   9.0063

          k =-0.5000-0.5125 0.0000 ( 38612 PWs)   bands (ev):

   -38.7654 -38.6905 -23.1818 -23.1694 -23.1132 -23.0276 -19.3493 -19.3217
   -19.2722 -19.2516 -18.8456 -18.7764 -15.1724 -15.1630 -15.1366 -15.0983
   -14.8962 -14.8953 -14.6605 -14.6180 -14.6078 -14.5928 -14.5385 -14.2889
   -14.2702 -14.2035 -12.9763  -9.3755  -9.3641  -9.1901  -9.0865  -9.0747
    -9.0190  -8.9075  -8.8909  -8.6232  -8.6196  -8.5877  -8.4828  -4.8628
    -4.7996  -4.2792  -4.1996  -3.3734  -3.3653  -3.3578  -3.1766  -3.1334
    -2.9871  -2.9751  -2.8983  -2.8518  -2.4886  -2.4870  -2.4663  -2.4195
    -2.1843  -1.7149  -1.6712  -1.5955  -1.5464  -1.4551  -1.3742  -1.3622
    -1.3529  -1.2536  -1.2291  -1.2249  -1.1507  -1.1360  -1.0950  -0.5071
    -0.4986  -0.4961  -0.3942  -0.1730   0.1301   0.2617   0.5371   0.6021
     0.7417   0.7854   0.8341   0.8509   0.8676   0.8808   0.8893   0.8992
     0.9192   0.9974   1.0972   1.1253   1.1722   1.1847   1.2131   1.3704
     1.3929   1.3990   1.4056   1.4122   1.4174   1.5334   1.6186   1.7269
     1.9148   1.9334   2.0230   2.0387   2.1058   2.1391   2.3061   2.3188
     2.3246   2.4144   2.6479   4.0896   4.1180   4.2032   4.2166   5.1602
     5.1726   5.4392   5.9291   6.0445   7.3798   7.4083   7.7318   7.7541
     8.0718   8.2607   8.5099   8.5867   8.6165   8.6195   8.8051   8.8638
     8.8702   8.9754

     the Fermi energy is     2.3188 ev

!    total energy              =   -1868.72183115 Ry
     Harris-Foulkes estimate   =   -1868.72183005 Ry
     estimated scf accuracy    <       0.00000100 Ry

     The total energy is the sum of the following terms:

     one-electron contribution =  -23622.59434429 Ry
     hartree contribution      =   11960.46553828 Ry
     xc contribution           =    -642.20033433 Ry
     ewald contribution        =   10435.61802431 Ry
     smearing contrib. (-TS)   =      -0.01071512 Ry

     convergence has been achieved in  33 iterations

     negative rho (up, down):  9.045E-02 0.000E+00

     Forces acting on atoms (cartesian axes, Ry/au):

     atom    1 type  3   force =     0.00000000    0.00000000   -0.00055958
     atom    2 type  2   force =     0.00000000    0.00000000   -0.00018177
     atom    3 type  3   force =     0.00000000    0.00000000    0.00022621
     atom    4 type  1   force =     0.00000000    0.00000000   -0.00024110
     atom    5 type  2   force =     0.00000000    0.00000000   -0.00033928
     atom    6 type  3   force =     0.00000000    0.00000000    0.00125719
     atom    7 type  3   force =     0.00000000    0.00000000    0.00094807
     atom    8 type  4   force =     0.00000000    0.00000000   -0.00270088
     atom    9 type  3   force =     0.00000000    0.00000000    0.00478326
     atom   10 type  3   force =     0.00000000    0.00000000    0.00320558
     atom   11 type  2   force =     0.00000000    0.00000000   -0.00396286
     atom   12 type  1   force =     0.00000000    0.00000000    0.01652121
     atom   13 type  3   force =     0.00000000    0.00000000   -0.01936550
     atom   14 type  3   force =     0.00000000    0.00000000    0.02143717
     atom   15 type  2   force =     0.00000000    0.00000000   -0.02254437
     atom   16 type  3   force =     0.00000000    0.00000000    0.01766998
     atom   17 type  1   force =     0.00000000    0.00000000   -0.00166169
     atom   18 type  2   force =     0.00000000    0.00000000   -0.02097454
     atom   19 type  3   force =     0.00000000    0.00000000    0.00423162
     atom   20 type  3   force =     0.00000000    0.00000000    0.00307158
     atom   21 type  4   force =     0.00000000    0.00000000   -0.00112166
     atom   22 type  3   force =     0.00000000    0.00000000   -0.00055164
     atom   23 type  3   force =     0.00000000    0.00000000    0.00082030
     atom   24 type  2   force =     0.00000000    0.00000000    0.00032625
     atom   25 type  1   force =     0.00000000    0.00000000   -0.00006798
     atom   26 type  3   force =     0.00000000    0.00000000   -0.00191525
     atom   27 type  2   force =     0.00000000    0.00000000    0.00140220
     atom   28 type  3   force =     0.00000000    0.00000000    0.00028750

     Total force =     0.049652     Total SCF correction =     0.004937


     Computing stress (Cartesian axis) and pressure


     negative rho (up, down):  9.045E-02 0.000E+00
          total   stress  (Ry/bohr**3)                   (kbar)     P=       -5.97
   0.00000157   0.00000000   0.00000000            0.23        0.00        0.00
   0.00000000  -0.00010215   0.00000000            0.00      -15.03        0.00
   0.00000000   0.00000000  -0.00002114            0.00        0.00       -3.11

 
     init_run     :     10.98s CPU     11.53s WALL (       1 calls)
     electrons    :    676.05s CPU    714.31s WALL (       1 calls)
     forces       :      4.40s CPU      4.79s WALL (       1 calls)
     stress       :     48.43s CPU     49.49s WALL (       1 calls)

     Called by init_run:
     wfcinit      :      7.88s CPU      8.04s WALL (       1 calls)
     potinit      :      0.68s CPU      0.71s WALL (       1 calls)
     hinit0       :      1.26s CPU      1.27s WALL (       1 calls)

     Called by electrons:
     c_bands      :    530.80s CPU    546.23s WALL (      33 calls)
     sum_band     :     98.92s CPU    111.69s WALL (      33 calls)
     v_of_rho     :      3.74s CPU      3.79s WALL (      34 calls)
     newd         :     19.35s CPU     29.43s WALL (      34 calls)
     mix_rho      :     23.45s CPU     23.64s WALL (      33 calls)

     Called by c_bands:
     init_us_2    :      3.73s CPU      3.77s WALL (    1725 calls)
     cegterg      :    502.72s CPU    517.66s WALL (     825 calls)

     Called by sum_band:
     sum_band:bec :      0.23s CPU      0.23s WALL (     825 calls)
     addusdens    :     20.04s CPU     31.88s WALL (      33 calls)

     Called by *egterg:
     h_psi        :    235.75s CPU    244.78s WALL (    3646 calls)
     s_psi        :     23.11s CPU     23.44s WALL (    3646 calls)
     g_psi        :      0.68s CPU      0.69s WALL (    2796 calls)
     cdiaghg      :    115.86s CPU    116.40s WALL (    3621 calls)

     Called by h_psi:
     h_psi:calbec :     30.60s CPU     31.60s WALL (    3646 calls)
     vloc_psi     :    180.07s CPU    183.11s WALL (    3646 calls)
     add_vuspsi   :     23.90s CPU     26.91s WALL (    3646 calls)

     General routines
     calbec       :     74.82s CPU     75.99s WALL (    4596 calls)
     fft          :      3.90s CPU      3.94s WALL (     465 calls)
     ffts         :     10.92s CPU     11.01s WALL (   14765 calls)
     fftw         :    208.19s CPU    211.58s WALL (  596456 calls)
     interpolate  :      0.25s CPU      0.25s WALL (      34 calls)
 
     Parallel routines
     fft_scatt_xy :     24.97s CPU     25.38s WALL (  611686 calls)
     fft_scatt_yz :    138.91s CPU    141.14s WALL (  611686 calls)
 
     PWSCF        :  12m20.74s CPU  13m 1.05s WALL

 
   This run was terminated on:  18:12:49   5May2021            

=------------------------------------------------------------------------------=
   JOB DONE.
=------------------------------------------------------------------------------=
[1620252769.927138] [holy7c10410:214318:0]          mpool.c:43   UCX  WARN  object 0x3556380 was not returned to mpool ucp_requests
[1620252769.929393] [holy7c12103:122014:0]          mpool.c:43   UCX  WARN  object 0x469ba40 was not returned to mpool ucp_requests
[1620252769.929638] [holy7c10612:128112:0]          mpool.c:43   UCX  WARN  object 0x3035380 was not returned to mpool ucp_requests
[1620252769.931781] [holy7c10503:273613:0]          mpool.c:43   UCX  WARN  object 0x302fe00 was not returned to mpool ucp_requests
[1620252769.932049] [holy7c12102:90546:0]          mpool.c:43   UCX  WARN  object 0x455c9c0 was not returned to mpool ucp_requests
[1620252769.932088] [holy7c12102:90546:0]          mpool.c:43   UCX  WARN  object 0x455cf00 was not returned to mpool ucp_requests
[1620252769.935248] [holy7c10608:82454:0]          mpool.c:43   UCX  WARN  object 0x2a563c0 was not returned to mpool ucp_requests
[1620252769.935270] [holy7c10608:82454:0]          mpool.c:43   UCX  WARN  object 0x2a56ac0 was not returned to mpool ucp_requests
[1620252769.935307] [holy7c12103:122013:0]          mpool.c:43   UCX  WARN  object 0x42c8a40 was not returned to mpool ucp_requests
