
     Program PWSCF v.6.5 starts on  5May2021 at 17:16:27 

     This program is part of the open-source Quantum ESPRESSO suite
     for quantum simulation of materials; please cite
         "P. Giannozzi et al., J. Phys.:Condens. Matter 21 395502 (2009);
         "P. Giannozzi et al., J. Phys.:Condens. Matter 29 465901 (2017);
          URL http://www.quantum-espresso.org", 
     in publications or presentations arising from this work. More details at
     http://www.quantum-espresso.org/quote

     Parallel version (MPI), running on    20 processors

     MPI processes distributed on     5 nodes
     R & G space division:  proc/nbgrp/npool/nimage =      20
     Reading input from YBCO_CuO_cleave_2.5_sep_scf.pwi
Warning: card &IONS ignored
Warning: card     ION_DYNAMICS = 'BFGS' ignored
Warning: card / ignored
Warning: card &CELL ignored
Warning: card     CELL_DYNAMICS = 'BFGS' ignored
Warning: card / ignored

     Current dimensions of program PWSCF are:
     Max number of different atomic species (ntypx) = 10
     Max number of k-points (npk) =  40000
     Max angular momentum in pseudopotentials (lmaxx) =  3

     Subspace diagonalization in iterative solution of the eigenvalue problem:
     one sub-group per band group will be used
     scalapack distributed-memory algorithm (size of sub-group:  4*  4 procs)

     Message from routine setup:
     using ibrav=0 with symmetry is DISCOURAGED, use correct ibrav instead
 
     Parallelization info
     --------------------
     sticks:   dense  smooth     PW     G-vecs:    dense   smooth      PW
     Min         150      50     14                75116    14450    2252
     Max         151      51     15                75157    14473    2301
     Sum        3015    1011    293              1502717   289173   45577
 


     bravais-lattice index     =            0
     lattice parameter (alat)  =       7.3477  a.u.
     unit-cell volume          =    4605.5967 (a.u.)^3
     number of atoms/cell      =           28
     number of atomic types    =            4
     number of electrons       =       229.00
     number of Kohn-Sham states=          138
     kinetic-energy cutoff     =      60.0000  Ry
     charge density cutoff     =     720.0000  Ry
     convergence threshold     =      1.0E-06
     mixing beta               =       0.2000
     number of iterations used =           10  local-TF  mixing
     Exchange-correlation= SLA PW PBE PBE
                           (   1   4   3   4   0   0   0)

     celldm(1)=   7.347715  celldm(2)=   0.000000  celldm(3)=   0.000000
     celldm(4)=   0.000000  celldm(5)=   0.000000  celldm(6)=   0.000000

     crystal axes: (cart. coord. in units of alat)
               a(1) = (   1.000000   0.000000   0.000000 )  
               a(2) = (   0.000000   0.975577   0.000000 )  
               a(3) = (   0.000000   0.000000  11.900557 )  

     reciprocal axes: (cart. coord. in units 2 pi/alat)
               b(1) = (  1.000000  0.000000  0.000000 )  
               b(2) = (  0.000000  1.025034  0.000000 )  
               b(3) = (  0.000000  0.000000  0.084030 )  


     PseudoPot. # 1 for Ba read from file:
     /n/holyscratch01/hoffman_lab/ruizhe/YBCO_Project/pseudo/Ba.pbe-nsp-van.UPF
     MD5 check sum: 2b9c31dd849566dd297d80989662b7a0
     Pseudo is Ultrasoft + core correction, Zval = 10.0
     Generated by new atomic code, or converted to UPF format
     Using radial grid of  907 points,  6 beta functions with: 
                l(1) =   0
                l(2) =   0
                l(3) =   1
                l(4) =   1
                l(5) =   2
                l(6) =   2
     Q(r) pseudized with  6 coefficients,  rinner =    1.200   1.200   1.200
                                                       1.200   1.200

     PseudoPot. # 2 for Cu read from file:
     /n/holyscratch01/hoffman_lab/ruizhe/YBCO_Project/pseudo/Cu.pbe-n-van_ak.UPF
     MD5 check sum: 34e3282627ffb533726feb647e090d62
     Pseudo is Ultrasoft + core correction, Zval = 11.0
     Generated by new atomic code, or converted to UPF format
     Using radial grid of  867 points,  6 beta functions with: 
                l(1) =   0
                l(2) =   0
                l(3) =   1
                l(4) =   1
                l(5) =   2
                l(6) =   2
     Q(r) pseudized with  8 coefficients,  rinner =    1.400   1.400   1.400
                                                       1.400   1.400

     PseudoPot. # 3 for O  read from file:
     /n/holyscratch01/hoffman_lab/ruizhe/YBCO_Project/pseudo/O.pbe-van_ak.UPF
     MD5 check sum: 783ce7fe4c79b6a4916957118fed0856
     Pseudo is Ultrasoft, Zval =  6.0
     Generated by new atomic code, or converted to UPF format
     Using radial grid of  737 points,  4 beta functions with: 
                l(1) =   0
                l(2) =   0
                l(3) =   1
                l(4) =   1
     Q(r) pseudized with  8 coefficients,  rinner =    0.800   0.800   0.800


     PseudoPot. # 4 for Y  read from file:
     /n/holyscratch01/hoffman_lab/ruizhe/YBCO_Project/pseudo/Y.pbe-nsp-van.UPF
     MD5 check sum: 4412fed3ab108fed87a1b7d6a69a4a38
     Pseudo is Ultrasoft + core correction, Zval = 11.0
     Generated by new atomic code, or converted to UPF format
     Using radial grid of  885 points,  6 beta functions with: 
                l(1) =   0
                l(2) =   0
                l(3) =   1
                l(4) =   1
                l(5) =   2
                l(6) =   2
     Q(r) pseudized with  6 coefficients,  rinner =    1.200   1.200   1.200
                                                       1.200   1.200

     atomic species   valence    mass     pseudopotential
        Ba            10.00   137.32700     Ba( 1.00)
        Cu            11.00    63.54600     Cu( 1.00)
        O              6.00    15.99900     O ( 1.00)
        Y             11.00    88.90584     Y ( 1.00)

      4 Sym. Ops. (no inversion) found



   Cartesian axes

     site n.     atom                  positions (alat units)
         1           O   tau(   1) = (   0.0000000   0.4877884  -0.0257983  )
         2           Cu  tau(   2) = (   0.0000000   0.0000000   0.0215779  )
         3           O   tau(   3) = (   0.0000000   0.0000000   0.5073114  )
         4           Ba  tau(   4) = (   0.4999996   0.4877884   0.5319677  )
         5           Cu  tau(   5) = (   0.0000000   0.0000000   1.0495845  )
         6           O   tau(   6) = (   0.4999996   0.0000000   1.1181579  )
         7           O   tau(   7) = (   0.0000000   0.4877884   1.1273137  )
         8           Y   tau(   8) = (   0.4999996   0.4877884   1.4938777  )
         9           O   tau(   9) = (   0.0000000   0.4877884   1.8497402  )
        10           O   tau(  10) = (   0.4999996   0.0000000   1.8692709  )
        11           Cu  tau(  11) = (   0.0000000   0.0000000   1.9417560  )
        12           Ba  tau(  12) = (   0.4999996   0.4877884   2.4526063  )
        13           O   tau(  13) = (   0.0000000   0.0000000   2.5103470  )
        14           O   tau(  14) = (   0.0000000   0.4877884   2.9968469  )
        15           Cu  tau(  15) = (   0.0000000   0.0000000   2.9968521  )
        16           O   tau(  16) = (   0.0000000   0.0000000   4.1262927  )
        17           Ba  tau(  17) = (   0.4999996   0.4877884   4.1840257  )
        18           Cu  tau(  18) = (   0.0000000   0.0000000   4.6948991  )
        19           O   tau(  19) = (   0.4999996   0.0000000   4.7673714  )
        20           O   tau(  20) = (   0.0000000   0.4877884   4.7868841  )
        21           Y   tau(  21) = (   0.4999996   0.4877884   5.1427491  )
        22           O   tau(  22) = (   0.0000000   0.4877884   5.5093131  )
        23           O   tau(  23) = (   0.4999996   0.0000000   5.5184818  )
        24           Cu  tau(  24) = (   0.0000000   0.0000000   5.5870603  )
        25           Ba  tau(  25) = (   0.4999996   0.4877884   6.1046617  )
        26           O   tau(  26) = (   0.0000000   0.0000000   6.1293180  )
        27           Cu  tau(  27) = (   0.0000000   0.0000000   6.6150232  )
        28           O   tau(  28) = (   0.0000000   0.4877884   6.6624045  )

     number of k points=    25  Gaussian smearing, width (Ry)=  0.0100
                       cart. coord. in units 2pi/alat
        k(    1) = (   0.0000000   0.0000000   0.0000000), wk =   0.0312500
        k(    2) = (   0.0000000   0.1281293   0.0000000), wk =   0.0625000
        k(    3) = (   0.0000000   0.2562585   0.0000000), wk =   0.0625000
        k(    4) = (   0.0000000   0.3843878   0.0000000), wk =   0.0625000
        k(    5) = (   0.0000000  -0.5125170   0.0000000), wk =   0.0312500
        k(    6) = (   0.1250000   0.0000000   0.0000000), wk =   0.0625000
        k(    7) = (   0.1250000   0.1281293   0.0000000), wk =   0.1250000
        k(    8) = (   0.1250000   0.2562585   0.0000000), wk =   0.1250000
        k(    9) = (   0.1250000   0.3843878   0.0000000), wk =   0.1250000
        k(   10) = (   0.1250000  -0.5125170   0.0000000), wk =   0.0625000
        k(   11) = (   0.2500000   0.0000000   0.0000000), wk =   0.0625000
        k(   12) = (   0.2500000   0.1281293   0.0000000), wk =   0.1250000
        k(   13) = (   0.2500000   0.2562585   0.0000000), wk =   0.1250000
        k(   14) = (   0.2500000   0.3843878   0.0000000), wk =   0.1250000
        k(   15) = (   0.2500000  -0.5125170   0.0000000), wk =   0.0625000
        k(   16) = (   0.3750000   0.0000000   0.0000000), wk =   0.0625000
        k(   17) = (   0.3750000   0.1281293   0.0000000), wk =   0.1250000
        k(   18) = (   0.3750000   0.2562585   0.0000000), wk =   0.1250000
        k(   19) = (   0.3750000   0.3843878   0.0000000), wk =   0.1250000
        k(   20) = (   0.3750000  -0.5125170   0.0000000), wk =   0.0625000
        k(   21) = (  -0.5000000   0.0000000   0.0000000), wk =   0.0312500
        k(   22) = (  -0.5000000   0.1281293   0.0000000), wk =   0.0625000
        k(   23) = (  -0.5000000   0.2562585   0.0000000), wk =   0.0625000
        k(   24) = (  -0.5000000   0.3843878   0.0000000), wk =   0.0625000
        k(   25) = (  -0.5000000  -0.5125170   0.0000000), wk =   0.0312500

     Dense  grid:  1502717 G-vectors     FFT dimensions: (  64,  64, 750)

     Smooth grid:   289173 G-vectors     FFT dimensions: (  40,  36, 432)

     Estimated max dynamical RAM per process >     479.64 MB

     Estimated total dynamical RAM >       9.37 GB

     Initial potential from superposition of free atoms

     starting charge  228.84827, renormalised to  229.00000

     negative rho (up, down):  8.944E-02 0.000E+00
     Starting wfcs are  201 randomized atomic wfcs

     total cpu time spent up to now is       10.3 secs

     Self-consistent Calculation

     iteration #  1     ecut=    60.00 Ry     beta= 0.20
     Davidson diagonalization with overlap
     ethr =  1.00E-02,  avg # of iterations =  2.0

     negative rho (up, down):  8.728E-02 0.000E+00

     total cpu time spent up to now is       26.0 secs

     total energy              =   -1869.50708202 Ry
     Harris-Foulkes estimate   =   -1871.08791744 Ry
     estimated scf accuracy    <      13.30946970 Ry

     iteration #  2     ecut=    60.00 Ry     beta= 0.20
     Davidson diagonalization with overlap
     ethr =  5.81E-03,  avg # of iterations =  1.0

     negative rho (up, down):  8.602E-02 0.000E+00

     total cpu time spent up to now is       40.2 secs

     total energy              =   -1868.86223647 Ry
     Harris-Foulkes estimate   =   -1869.85984680 Ry
     estimated scf accuracy    <       5.80229582 Ry

     iteration #  3     ecut=    60.00 Ry     beta= 0.20
     Davidson diagonalization with overlap
     ethr =  2.53E-03,  avg # of iterations =  1.0

     negative rho (up, down):  8.563E-02 0.000E+00

     total cpu time spent up to now is       54.5 secs

     total energy              =   -1868.69850188 Ry
     Harris-Foulkes estimate   =   -1869.14185036 Ry
     estimated scf accuracy    <       4.13773601 Ry

     iteration #  4     ecut=    60.00 Ry     beta= 0.20
     Davidson diagonalization with overlap
     ethr =  1.81E-03,  avg # of iterations =  1.7

     negative rho (up, down):  8.585E-02 0.000E+00

     total cpu time spent up to now is       69.6 secs

     total energy              =   -1868.82476825 Ry
     Harris-Foulkes estimate   =   -1868.90613063 Ry
     estimated scf accuracy    <       2.22627224 Ry

     iteration #  5     ecut=    60.00 Ry     beta= 0.20
     Davidson diagonalization with overlap
     ethr =  9.72E-04,  avg # of iterations =  1.0

     negative rho (up, down):  8.647E-02 0.000E+00

     total cpu time spent up to now is       84.0 secs

     total energy              =   -1868.79097337 Ry
     Harris-Foulkes estimate   =   -1868.86764021 Ry
     estimated scf accuracy    <       1.07841309 Ry

     iteration #  6     ecut=    60.00 Ry     beta= 0.20
     Davidson diagonalization with overlap
     ethr =  4.71E-04,  avg # of iterations =  1.1

     negative rho (up, down):  8.709E-02 0.000E+00

     total cpu time spent up to now is       98.3 secs

     total energy              =   -1868.75822090 Ry
     Harris-Foulkes estimate   =   -1868.81060039 Ry
     estimated scf accuracy    <       0.40040797 Ry

     iteration #  7     ecut=    60.00 Ry     beta= 0.20
     Davidson diagonalization with overlap
     ethr =  1.75E-04,  avg # of iterations =  6.7

     negative rho (up, down):  8.782E-02 0.000E+00

     total cpu time spent up to now is      119.2 secs

     total energy              =   -1868.74443318 Ry
     Harris-Foulkes estimate   =   -1868.77267170 Ry
     estimated scf accuracy    <       0.26042965 Ry

     iteration #  8     ecut=    60.00 Ry     beta= 0.20
     Davidson diagonalization with overlap
     ethr =  1.14E-04,  avg # of iterations =  5.2

     negative rho (up, down):  8.896E-02 0.000E+00

     total cpu time spent up to now is      138.5 secs

     total energy              =   -1868.74279919 Ry
     Harris-Foulkes estimate   =   -1868.76705951 Ry
     estimated scf accuracy    <       0.49509998 Ry

     iteration #  9     ecut=    60.00 Ry     beta= 0.20
     Davidson diagonalization with overlap
     ethr =  1.14E-04,  avg # of iterations =  2.0

     negative rho (up, down):  8.932E-02 0.000E+00

     total cpu time spent up to now is      153.7 secs

     total energy              =   -1868.74762892 Ry
     Harris-Foulkes estimate   =   -1868.75020549 Ry
     estimated scf accuracy    <       0.40988029 Ry

     iteration # 10     ecut=    60.00 Ry     beta= 0.20
     Davidson diagonalization with overlap
     ethr =  1.14E-04,  avg # of iterations =  1.0

     negative rho (up, down):  9.007E-02 0.000E+00

     total cpu time spent up to now is      167.8 secs

     total energy              =   -1868.73268163 Ry
     Harris-Foulkes estimate   =   -1868.74936521 Ry
     estimated scf accuracy    <       0.31404440 Ry

     iteration # 11     ecut=    60.00 Ry     beta= 0.20
     Davidson diagonalization with overlap
     ethr =  1.14E-04,  avg # of iterations =  1.0

     negative rho (up, down):  9.030E-02 0.000E+00

     total cpu time spent up to now is      182.0 secs

     total energy              =   -1868.73740869 Ry
     Harris-Foulkes estimate   =   -1868.74037791 Ry
     estimated scf accuracy    <       0.25592668 Ry

     iteration # 12     ecut=    60.00 Ry     beta= 0.20
     Davidson diagonalization with overlap
     ethr =  1.12E-04,  avg # of iterations =  1.0

     negative rho (up, down):  9.035E-02 0.000E+00

     total cpu time spent up to now is      196.0 secs

     total energy              =   -1868.73497411 Ry
     Harris-Foulkes estimate   =   -1868.73882240 Ry
     estimated scf accuracy    <       0.17682547 Ry

     iteration # 13     ecut=    60.00 Ry     beta= 0.20
     Davidson diagonalization with overlap
     ethr =  7.72E-05,  avg # of iterations =  1.4

     negative rho (up, down):  9.022E-02 0.000E+00

     total cpu time spent up to now is      210.6 secs

     total energy              =   -1868.73451051 Ry
     Harris-Foulkes estimate   =   -1868.73591534 Ry
     estimated scf accuracy    <       0.04789532 Ry

     iteration # 14     ecut=    60.00 Ry     beta= 0.20
     Davidson diagonalization with overlap
     ethr =  2.09E-05,  avg # of iterations =  7.6

     negative rho (up, down):  8.988E-02 0.000E+00

     total cpu time spent up to now is      232.9 secs

     total energy              =   -1868.73138329 Ry
     Harris-Foulkes estimate   =   -1868.73473206 Ry
     estimated scf accuracy    <       0.03638821 Ry

     iteration # 15     ecut=    60.00 Ry     beta= 0.20
     Davidson diagonalization with overlap
     ethr =  1.59E-05,  avg # of iterations =  3.8

     negative rho (up, down):  8.971E-02 0.000E+00

     total cpu time spent up to now is      250.1 secs

     total energy              =   -1868.73148406 Ry
     Harris-Foulkes estimate   =   -1868.73216100 Ry
     estimated scf accuracy    <       0.02880099 Ry

     iteration # 16     ecut=    60.00 Ry     beta= 0.20
     Davidson diagonalization with overlap
     ethr =  1.26E-05,  avg # of iterations =  1.2

     negative rho (up, down):  8.906E-02 0.000E+00

     total cpu time spent up to now is      264.3 secs

     total energy              =   -1868.73014181 Ry
     Harris-Foulkes estimate   =   -1868.73161077 Ry
     estimated scf accuracy    <       0.02371355 Ry

     iteration # 17     ecut=    60.00 Ry     beta= 0.20
     Davidson diagonalization with overlap
     ethr =  1.04E-05,  avg # of iterations =  2.4

     negative rho (up, down):  9.630E-02 0.000E+00

     total cpu time spent up to now is      279.9 secs

     total energy              =   -1868.72889993 Ry
     Harris-Foulkes estimate   =   -1868.73059171 Ry
     estimated scf accuracy    <       0.01246695 Ry

     iteration # 18     ecut=    60.00 Ry     beta= 0.20
     Davidson diagonalization with overlap
     ethr =  5.44E-06,  avg # of iterations =  6.3

     negative rho (up, down):  1.083E-01 0.000E+00

     total cpu time spent up to now is      300.6 secs

     total energy              =   -1868.72827720 Ry
     Harris-Foulkes estimate   =   -1868.72913194 Ry
     estimated scf accuracy    <       0.00777112 Ry

     iteration # 19     ecut=    60.00 Ry     beta= 0.20
     Davidson diagonalization with overlap
     ethr =  3.39E-06,  avg # of iterations =  6.6

     negative rho (up, down):  1.095E-01 0.000E+00

     total cpu time spent up to now is      321.6 secs

     total energy              =   -1868.72791620 Ry
     Harris-Foulkes estimate   =   -1868.72840926 Ry
     estimated scf accuracy    <       0.00549936 Ry

     iteration # 20     ecut=    60.00 Ry     beta= 0.20
     Davidson diagonalization with overlap
     ethr =  2.40E-06,  avg # of iterations =  5.0

     negative rho (up, down):  1.047E-01 0.000E+00

     total cpu time spent up to now is      340.2 secs

     total energy              =   -1868.72730798 Ry
     Harris-Foulkes estimate   =   -1868.72796169 Ry
     estimated scf accuracy    <       0.00424628 Ry

     iteration # 21     ecut=    60.00 Ry     beta= 0.20
     Davidson diagonalization with overlap
     ethr =  1.85E-06,  avg # of iterations =  6.5

     negative rho (up, down):  1.087E-01 0.000E+00

     total cpu time spent up to now is      360.8 secs

     total energy              =   -1868.72679655 Ry
     Harris-Foulkes estimate   =   -1868.72739444 Ry
     estimated scf accuracy    <       0.00389505 Ry

     iteration # 22     ecut=    60.00 Ry     beta= 0.20
     Davidson diagonalization with overlap
     ethr =  1.70E-06,  avg # of iterations =  8.0

     negative rho (up, down):  1.028E-01 0.000E+00

     total cpu time spent up to now is      383.7 secs

     total energy              =   -1868.72664605 Ry
     Harris-Foulkes estimate   =   -1868.72688799 Ry
     estimated scf accuracy    <       0.00174672 Ry

     iteration # 23     ecut=    60.00 Ry     beta= 0.20
     Davidson diagonalization with overlap
     c_bands:  1 eigenvalues not converged
     ethr =  7.63E-07,  avg # of iterations =  4.8

     negative rho (up, down):  1.056E-01 0.000E+00

     total cpu time spent up to now is      402.1 secs

     total energy              =   -1868.72653306 Ry
     Harris-Foulkes estimate   =   -1868.72666999 Ry
     estimated scf accuracy    <       0.00099446 Ry

     iteration # 24     ecut=    60.00 Ry     beta= 0.20
     Davidson diagonalization with overlap
     ethr =  4.34E-07,  avg # of iterations =  6.0

     negative rho (up, down):  9.723E-02 0.000E+00

     total cpu time spent up to now is      422.4 secs

     total energy              =   -1868.72632572 Ry
     Harris-Foulkes estimate   =   -1868.72655161 Ry
     estimated scf accuracy    <       0.00101213 Ry

     iteration # 25     ecut=    60.00 Ry     beta= 0.20
     Davidson diagonalization with overlap
     ethr =  4.34E-07,  avg # of iterations =  5.7

     negative rho (up, down):  9.417E-02 0.000E+00

     total cpu time spent up to now is      442.4 secs

     total energy              =   -1868.72630695 Ry
     Harris-Foulkes estimate   =   -1868.72634060 Ry
     estimated scf accuracy    <       0.00042861 Ry

     iteration # 26     ecut=    60.00 Ry     beta= 0.20
     Davidson diagonalization with overlap
     ethr =  1.87E-07,  avg # of iterations =  4.1

     negative rho (up, down):  9.070E-02 0.000E+00

     total cpu time spent up to now is      460.2 secs

     total energy              =   -1868.72630824 Ry
     Harris-Foulkes estimate   =   -1868.72631238 Ry
     estimated scf accuracy    <       0.00018339 Ry

     iteration # 27     ecut=    60.00 Ry     beta= 0.20
     Davidson diagonalization with overlap
     c_bands:  1 eigenvalues not converged
     c_bands:  1 eigenvalues not converged
     ethr =  8.01E-08,  avg # of iterations =  7.6

     negative rho (up, down):  8.991E-02 0.000E+00

     total cpu time spent up to now is      482.0 secs

     total energy              =   -1868.72632681 Ry
     Harris-Foulkes estimate   =   -1868.72631282 Ry
     estimated scf accuracy    <       0.00006931 Ry

     iteration # 28     ecut=    60.00 Ry     beta= 0.20
     Davidson diagonalization with overlap
     c_bands:  1 eigenvalues not converged
     ethr =  3.03E-08,  avg # of iterations =  4.0

     negative rho (up, down):  9.012E-02 0.000E+00

     total cpu time spent up to now is      499.5 secs

     total energy              =   -1868.72634273 Ry
     Harris-Foulkes estimate   =   -1868.72632932 Ry
     estimated scf accuracy    <       0.00003994 Ry

     iteration # 29     ecut=    60.00 Ry     beta= 0.20
     Davidson diagonalization with overlap
     ethr =  1.74E-08,  avg # of iterations =  3.3

     negative rho (up, down):  8.987E-02 0.000E+00

     total cpu time spent up to now is      516.3 secs

     total energy              =   -1868.72635182 Ry
     Harris-Foulkes estimate   =   -1868.72634552 Ry
     estimated scf accuracy    <       0.00003981 Ry

     iteration # 30     ecut=    60.00 Ry     beta= 0.20
     Davidson diagonalization with overlap
     ethr =  1.74E-08,  avg # of iterations =  3.7

     negative rho (up, down):  9.025E-02 0.000E+00

     total cpu time spent up to now is      533.6 secs

     total energy              =   -1868.72635237 Ry
     Harris-Foulkes estimate   =   -1868.72635296 Ry
     estimated scf accuracy    <       0.00000954 Ry

     iteration # 31     ecut=    60.00 Ry     beta= 0.20
     Davidson diagonalization with overlap
     ethr =  4.16E-09,  avg # of iterations =  2.0

     negative rho (up, down):  9.036E-02 0.000E+00

     total cpu time spent up to now is      549.2 secs

     total energy              =   -1868.72635360 Ry
     Harris-Foulkes estimate   =   -1868.72635305 Ry
     estimated scf accuracy    <       0.00000516 Ry

     iteration # 32     ecut=    60.00 Ry     beta= 0.20
     Davidson diagonalization with overlap
     ethr =  2.25E-09,  avg # of iterations =  2.0

     negative rho (up, down):  9.035E-02 0.000E+00

     total cpu time spent up to now is      564.4 secs

     total energy              =   -1868.72635394 Ry
     Harris-Foulkes estimate   =   -1868.72635378 Ry
     estimated scf accuracy    <       0.00000260 Ry

     iteration # 33     ecut=    60.00 Ry     beta= 0.20
     Davidson diagonalization with overlap
     ethr =  1.14E-09,  avg # of iterations =  2.0

     negative rho (up, down):  9.040E-02 0.000E+00

     total cpu time spent up to now is      579.3 secs

     End of self-consistent calculation

          k = 0.0000 0.0000 0.0000 ( 36065 PWs)   bands (ev):

   -38.3476 -38.2713 -22.9778 -22.9658 -22.8277 -22.8200 -18.8809 -18.8133
   -18.3531 -18.3442 -18.2777 -18.2645 -15.6729 -15.6227 -14.7150 -14.6612
   -14.4623 -14.4585 -14.4525 -14.4085 -14.3702 -14.1971 -14.1433 -13.9595
   -13.9473 -13.7082 -12.4208  -8.1992  -8.1985  -8.1685  -8.0353  -7.9702
    -7.9588  -7.9432  -7.9320  -7.7933  -7.7699  -7.7041  -7.6235  -2.3044
    -2.2740  -2.2526  -2.2251  -2.1338  -2.0789  -2.0602  -2.0512  -2.0171
    -1.9784  -1.9408  -1.8871  -1.7629  -1.1095  -1.0479  -0.6576  -0.6413
    -0.6003  -0.3265  -0.2711  -0.2688  -0.2600  -0.2314  -0.2248  -0.0701
    -0.0683  -0.0363  -0.0160  -0.0028   0.0042   0.0624   0.0661   0.0918
     0.1012   0.1929   0.1966   0.2073   0.2082   0.2258   0.2937   0.3092
     0.3473   0.3479   0.3607   0.3682   0.4154   0.4608   0.4651   0.4822
     0.7386   0.9056   0.9490   1.0044   1.0151   1.0560   1.0862   1.1253
     1.1551   1.1641   1.1809   1.2673   1.2710   1.2874   1.2974   1.3013
     1.3431   1.7227   1.7631   1.7846   1.7921   1.8755   1.9841   1.9909
     2.0729   2.2864   2.4300   2.4750   2.5153   2.5587   2.5935   4.9240
     5.0936   5.1288   5.6689   5.7612   6.4498   6.4801   6.5607   6.7311
     7.1077   7.2333   7.8559   7.9458   7.9763   8.0188   8.1846   8.3845
     8.4617   8.5205

          k = 0.0000 0.1281 0.0000 ( 36067 PWs)   bands (ev):

   -38.3453 -38.2690 -22.9562 -22.9442 -22.8091 -22.7989 -18.8450 -18.7772
   -18.4486 -18.3693 -18.3499 -18.2744 -15.5640 -15.5147 -14.7232 -14.6676
   -14.4715 -14.4606 -14.4282 -14.3775 -14.3512 -14.2426 -14.1911 -13.9653
   -13.9514 -13.7421 -12.4917  -8.1836  -8.1815  -8.1580  -8.0244  -7.9626
    -7.9516  -7.9289  -7.9175  -7.7920  -7.7537  -7.6711  -7.6237  -2.3945
    -2.3865  -2.3688  -2.3149  -2.2548  -2.2042  -2.0624  -2.0556  -1.9469
    -1.9255  -1.8886  -1.8720  -1.7728  -1.1786  -1.1609  -1.1135  -1.0452
    -0.9918  -0.6573  -0.6219  -0.4401  -0.3595  -0.3266  -0.3199  -0.3139
    -0.3043  -0.2977  -0.2692  -0.2330  -0.1044   0.0224   0.0705   0.0959
     0.1095   0.1615   0.1707   0.2270   0.2496   0.3249   0.3274   0.3390
     0.3593   0.3621   0.4216   0.4484   0.4515   0.4748   0.6443   0.6735
     0.7099   0.7467   0.8230   0.8860   0.9685   0.9755   1.0084   1.2049
     1.2468   1.2794   1.2971   1.3164   1.4408   1.4851   1.4995   1.5046
     1.5205   1.7000   1.7610   1.7697   1.8253   1.8356   1.9399   2.0717
     2.1251   2.3562   2.3796   2.6245   2.6409   2.8010   2.8166   5.2673
     5.4580   5.4750   5.9097   5.9951   6.7598   6.8013   6.8476   7.0407
     7.3698   7.5015   7.8852   7.9581   8.0287   8.1402   8.3325   8.6386
     8.6406   8.7485

          k = 0.0000 0.2563 0.0000 ( 36090 PWs)   bands (ev):

   -38.3397 -38.2634 -22.9032 -22.8912 -22.7635 -22.7469 -18.7539 -18.6859
   -18.6737 -18.5952 -18.3421 -18.2667 -15.3156 -15.2695 -14.7981 -14.7392
   -14.5351 -14.5103 -14.3820 -14.3117 -14.3079 -14.2958 -14.2627 -13.9433
   -13.9265 -13.7954 -12.6587  -8.1526  -8.1409  -8.1245  -8.0038  -7.9958
    -7.9927  -7.8399  -7.8258  -7.8142  -7.6549  -7.6215  -7.5891  -2.8228
    -2.7894  -2.6888  -2.6252  -2.2095  -2.2030  -2.1124  -2.1099  -2.0657
    -1.9383  -1.9259  -1.8734  -1.8662  -1.8199  -1.8014  -1.7101  -1.1106
    -1.0591  -1.0431  -0.9524  -0.8320  -0.6900  -0.6772  -0.6619  -0.6110
    -0.5481  -0.5428  -0.4841  -0.4702  -0.2962  -0.2484  -0.2347  -0.1925
    -0.1001  -0.0634   0.0084   0.0946   0.1330   0.1522   0.3303   0.3793
     0.3981   0.3981   0.4015   0.4697   0.4814   0.4965   0.5482   0.5980
     0.9758   0.9941   1.0499   1.1076   1.1344   1.1968   1.2392   1.3096
     1.3159   1.3829   1.4157   1.4727   1.5396   1.5618   1.5654   1.6427
     1.6667   1.7556   1.8447   1.9595   1.9997   2.0623   2.0767   2.0900
     2.1262   2.2440   2.3029   2.7271   3.0089   3.1127   3.1380   6.0296
     6.3468   6.3609   6.5595   6.6371   7.4848   7.6535   7.6715   7.7548
     7.8276   7.8824   8.0028   8.0880   8.4215   8.5752   8.6418   8.8006
     8.9351   8.9995

          k = 0.0000 0.3844 0.0000 ( 36012 PWs)   bands (ev):

   -38.3341 -38.2578 -22.8487 -22.8366 -22.7168 -22.6936 -18.8717 -18.7936
   -18.6557 -18.5873 -18.3344 -18.2589 -15.0638 -15.0269 -14.9425 -14.8782
   -14.6485 -14.6028 -14.4016 -14.3081 -14.2703 -14.2555 -14.2408 -13.8847
   -13.8666 -13.7981 -12.8193  -8.1264  -8.1008  -8.0849  -8.0366  -8.0259
    -7.9628  -7.8846  -7.7168  -7.7050  -7.6160  -7.5508  -7.5039  -3.1900
    -3.1602  -3.0015  -2.9304  -2.7675  -2.7600  -2.7521  -2.1162  -2.1122
    -1.9179  -1.9036  -1.8644  -1.8552  -1.7928  -1.7805  -1.7254  -1.4224
    -1.2629  -1.0939  -1.0541  -1.0268  -1.0204  -0.9709  -0.9595  -0.9044
    -0.7896  -0.7851  -0.6311  -0.5834  -0.5182  -0.4923  -0.4783  -0.4363
    -0.3160  -0.3007  -0.2836  -0.1948   0.0682   0.1985   0.2648   0.3704
     0.3921   0.4017   0.4223   0.4273   0.4777   0.5224   0.7682   0.8372
     1.0432   1.0888   1.1603   1.1925   1.2120   1.2384   1.2563   1.2697
     1.3714   1.3851   1.4536   1.5422   1.6664   1.7142   1.7515   1.7611
     1.8568   1.8972   1.9069   2.0252   2.0430   2.2135   2.2739   2.3364
     2.4699   2.4852   2.5425   2.6913   3.0106   3.0903   3.1829   6.8749
     7.1950   7.2360   7.4174   7.4596   7.6419   7.7151   8.1104   8.3762
     8.4082   8.5359   8.5873   8.7013   8.7843   8.8584   8.9520   9.0316
     9.2628   9.4827

          k = 0.0000-0.5125 0.0000 ( 36138 PWs)   bands (ev):

   -38.3318 -38.2554 -22.8256 -22.8135 -22.6972 -22.6711 -18.9477 -18.8698
   -18.6125 -18.5441 -18.3311 -18.2557 -15.0191 -14.9659 -14.9335 -14.8961
   -14.7221 -14.6590 -14.4289 -14.2964 -14.2564 -14.2477 -14.2176 -13.8535
   -13.8351 -13.7849 -12.8834  -8.1161  -8.0843  -8.0676  -8.0482  -8.0376
    -7.9419  -7.9085  -7.6697  -7.6579  -7.6128  -7.5060  -7.4675  -3.3333
    -3.3056  -3.1456  -3.0626  -3.0086  -2.9903  -2.9839  -2.1509  -2.1475
    -1.9774  -1.9178  -1.8155  -1.7544  -1.7220  -1.7110  -1.6564  -1.5450
    -1.3335  -1.2563  -1.1999  -1.1866  -1.1576  -1.1561  -0.8939  -0.8898
    -0.8390  -0.7717  -0.7265  -0.6703  -0.6161  -0.5794  -0.5652  -0.5393
    -0.5218  -0.4786  -0.3172  -0.2568   0.0302   0.2842   0.3406   0.3481
     0.3571   0.3631   0.4284   0.4338   0.4616   0.5284   0.8603   0.8915
     1.0796   1.0992   1.1683   1.1800   1.2450   1.2462   1.3100   1.3248
     1.3379   1.3430   1.4106   1.4598   1.7448   1.8155   1.8272   1.8332
     1.8445   1.9052   1.9457   2.1487   2.2085   2.3335   2.3526   2.5702
     2.6007   2.6323   2.6477   2.7077   2.8756   2.9668   3.1092   7.4916
     7.5523   7.5992   7.6098   7.6726   7.7258   7.7397   8.1783   8.3221
     8.6601   8.7150   8.9589   8.9692   9.0062   9.0360   9.1658   9.2121
     9.4135   9.5116

          k = 0.1250 0.0000 0.0000 ( 36058 PWs)   bands (ev):

   -38.3458 -38.2695 -22.9594 -22.9474 -22.8125 -22.8020 -18.8485 -18.7805
   -18.4531 -18.3788 -18.3417 -18.2620 -15.5577 -15.5060 -14.7395 -14.6895
   -14.5101 -14.4996 -14.4420 -14.4043 -14.3876 -14.2265 -14.1700 -13.9603
   -13.9472 -13.7198 -12.4969  -8.2085  -8.2005  -8.1683  -8.0598  -7.9351
    -7.9237  -7.9090  -7.8977  -7.7553  -7.7371  -7.6684  -7.5961  -2.3892
    -2.3472  -2.3007  -2.2249  -2.2237  -2.1761  -2.0494  -2.0350  -2.0063
    -1.9684  -1.9643  -1.9091  -1.7633  -1.0952  -1.0334  -0.6522  -0.6393
    -0.6358  -0.5443  -0.4778  -0.3661  -0.3496  -0.3462  -0.3355  -0.2853
    -0.2602  -0.2580  -0.2232  -0.0892  -0.0344  -0.0009   0.0084   0.1486
     0.2074   0.2234   0.2734   0.2832   0.3033   0.3138   0.3440   0.3515
     0.3583   0.4271   0.4296   0.4459   0.4555   0.4637   0.4823   0.4956
     0.6849   0.7532   0.8005   0.8271   0.8424   1.0347   1.0417   1.0586
     1.0729   1.0761   1.1264   1.2519   1.2729   1.3194   1.3839   1.5087
     1.5256   1.6629   1.7967   1.8397   1.9306   1.9381   2.0069   2.0818
     2.1033   2.3348   2.3448   2.4422   2.4860   2.5171   2.6397   5.1157
     5.2802   5.2955   5.8734   5.9592   6.6800   6.7263   6.7714   6.9978
     7.3229   7.4615   7.9265   7.9989   8.0002   8.1308   8.3402   8.6342
     8.6982   8.7682

          k = 0.1250 0.1281 0.0000 ( 36060 PWs)   bands (ev):

   -38.3435 -38.2672 -22.9386 -22.9266 -22.7944 -22.7816 -18.8130 -18.7450
   -18.4573 -18.4364 -18.3813 -18.3587 -15.4497 -15.3990 -14.7375 -14.6855
   -14.5062 -14.4961 -14.4106 -14.3848 -14.3594 -14.2800 -14.2242 -13.9599
   -13.9457 -13.7439 -12.5462  -8.1959  -8.1861  -8.1609  -8.0832  -8.0713
    -8.0450  -7.9068  -7.7938  -7.7851  -7.7739  -7.6195  -7.4909  -2.4916
    -2.4562  -2.4446  -2.3621  -2.2538  -2.2109  -2.1001  -2.0653  -2.0382
    -2.0179  -1.8877  -1.8202  -1.7630  -1.1722  -1.1553  -1.1338  -1.0013
    -0.9434  -0.8607  -0.8156  -0.6512  -0.6349  -0.5539  -0.5249  -0.4329
    -0.3144  -0.3056  -0.1956  -0.1105  -0.0944  -0.0246  -0.0135   0.0823
     0.0941   0.1190   0.1537   0.2460   0.2555   0.2987   0.3020   0.3419
     0.3877   0.3910   0.4052   0.4118   0.5168   0.5234   0.6458   0.6746
     0.7668   0.8193   0.9056   0.9513   0.9653   0.9849   1.0278   1.0798
     1.0831   1.2150   1.2705   1.2957   1.3485   1.3639   1.4040   1.6411
     1.6526   1.6954   1.7062   1.7095   1.8158   2.0221   2.1486   2.2513
     2.3810   2.4438   2.5972   2.6474   2.6583   2.8120   2.8293   5.4023
     5.5994   5.6142   6.0778   6.1622   6.9668   7.0353   7.0506   7.2985
     7.5588   7.6808   7.8304   7.8950   8.1549   8.2912   8.4710   8.7267
     8.8169   8.9144

          k = 0.1250 0.2563 0.0000 ( 36120 PWs)   bands (ev):

   -38.3379 -38.2616 -22.8874 -22.8754 -22.7501 -22.7314 -18.7232 -18.6692
   -18.6549 -18.5907 -18.4374 -18.3630 -15.2036 -15.1565 -14.7832 -14.7247
   -14.5339 -14.5140 -14.3791 -14.3540 -14.3255 -14.3145 -14.2824 -13.9345
   -13.9179 -13.7845 -12.6670  -8.2066  -8.1953  -8.1432  -8.1412  -8.1260
    -8.0271  -8.0016  -7.8727  -7.7411  -7.7298  -7.5838  -7.4538  -2.9285
    -2.8853  -2.7202  -2.6546  -2.2323  -2.2211  -2.1628  -2.1105  -2.0994
    -2.0557  -2.0247  -1.9329  -1.9206  -1.8107  -1.7365  -1.7010  -1.2102
    -1.1496  -1.0508  -1.0085  -0.9972  -0.9843  -0.9423  -0.8801  -0.8470
    -0.4874  -0.4775  -0.4186  -0.3805  -0.2827  -0.2375  -0.2286  -0.1832
    -0.0024   0.0068   0.0572   0.1709   0.1975   0.2033   0.2883   0.3054
     0.3359   0.3952   0.4308   0.4448   0.4916   0.5384   0.7579   0.8010
     0.9960   1.0170   1.0433   1.1186   1.1312   1.2256   1.2288   1.2478
     1.2654   1.3661   1.4249   1.4368   1.5187   1.5237   1.6478   1.6576
     1.6752   1.7204   1.7996   2.0324   2.0463   2.1041   2.2259   2.4885
     2.5388   2.6018   2.7085   2.8217   3.0074   3.1197   3.1440   6.1021
     6.3998   6.4144   6.6640   6.7353   7.5833   7.6118   7.6871   7.8546
     7.8692   8.1061   8.1751   8.2618   8.4319   8.5598   8.6470   8.8463
     8.8814   8.9505

          k = 0.1250 0.3844 0.0000 ( 36125 PWs)   bands (ev):

   -38.3323 -38.2560 -22.8349 -22.8228 -22.7048 -22.6799 -18.8657 -18.7876
   -18.6264 -18.5577 -18.4276 -18.3531 -14.9579 -14.9275 -14.9027 -14.8280
   -14.6160 -14.5791 -14.3819 -14.3680 -14.3315 -14.2358 -14.2308 -13.8807
   -13.8627 -13.7917 -12.7884  -8.2111  -8.2002  -8.1209  -8.1108  -8.0954
    -8.0495  -7.9696  -7.8339  -7.7892  -7.7777  -7.6280  -7.5276  -3.3106
    -3.2713  -3.0471  -2.9777  -2.7570  -2.7482  -2.7418  -2.1510  -2.1423
    -2.0387  -1.9749  -1.9603  -1.9471  -1.8102  -1.7610  -1.7450  -1.4720
    -1.4537  -1.4497  -1.3706  -1.2703  -1.1743  -1.0509  -0.8773  -0.8188
    -0.6729  -0.6668  -0.6469  -0.6250  -0.5041  -0.4797  -0.4382  -0.4212
    -0.1163  -0.0933  -0.0153   0.0231   0.1378   0.2806   0.2893   0.3413
     0.3949   0.4041   0.4133   0.4504   0.4817   0.5395   0.8627   0.9191
     1.0457   1.0884   1.1785   1.2324   1.2544   1.3033   1.3154   1.3557
     1.3827   1.3870   1.4965   1.6027   1.6692   1.6900   1.7065   1.7092
     1.9684   2.0403   2.0513   2.2769   2.4435   2.4593   2.5139   2.5319
     2.5390   2.5759   2.7451   2.8147   3.0090   3.1196   3.1975   6.8735
     7.0971   7.1295   7.2945   7.3521   7.5575   7.6168   8.0073   8.4014
     8.4136   8.4740   8.6645   8.8343   8.8788   8.9741   9.0172   9.2405
     9.3220   9.5319

          k = 0.1250-0.5125 0.0000 ( 36108 PWs)   bands (ev):

   -38.3300 -38.2537 -22.8127 -22.8006 -22.6857 -22.6582 -18.9413 -18.8633
   -18.5839 -18.5151 -18.4234 -18.3489 -14.9787 -14.9245 -14.8161 -14.7779
   -14.6845 -14.6293 -14.3992 -14.3569 -14.3175 -14.2247 -14.1988 -13.8522
   -13.8339 -13.7838 -12.8381  -8.1857  -8.1751  -8.1124  -8.0968  -8.0803
    -8.0372  -7.9558  -7.8373  -7.8256  -7.7490  -7.6672  -7.6258  -3.4587
    -3.4211  -3.1934  -3.1168  -3.0002  -2.9867  -2.9776  -2.1675  -2.1615
    -1.9841  -1.9117  -1.8590  -1.8313  -1.8110  -1.8069  -1.7376  -1.6539
    -1.6134  -1.6026  -1.5990  -1.3540  -1.2203  -1.1075  -0.8291  -0.7990
    -0.7516  -0.7475  -0.7098  -0.6602  -0.5915  -0.5703  -0.5244  -0.4899
    -0.1621  -0.1227  -0.0952  -0.0490   0.0309   0.2867   0.3025   0.3652
     0.3852   0.4150   0.4265   0.4856   0.5261   0.5393   0.9592   0.9919
     1.0904   1.1586   1.1832   1.2134   1.2313   1.3267   1.3485   1.3514
     1.3605   1.3616   1.4503   1.6428   1.7543   1.7710   1.7919   1.8929
     1.9292   2.3267   2.3457   2.4869   2.4946   2.5285   2.5519   2.6112
     2.6267   2.6815   2.6997   2.7155   2.8919   3.0266   3.1287   7.2589
     7.2978   7.3706   7.3940   7.4284   7.6396   7.6998   8.1520   8.2610
     8.8840   8.9155   8.9841   9.0460   9.1440   9.2083   9.2136   9.3214
     9.3590   9.5250

          k = 0.2500 0.0000 0.0000 ( 36166 PWs)   bands (ev):

   -38.3415 -38.2651 -22.9142 -22.9022 -22.7754 -22.7579 -18.7670 -18.6981
   -18.6678 -18.5956 -18.3357 -18.2559 -15.2939 -15.2396 -14.8474 -14.8038
   -14.6292 -14.6082 -14.5139 -14.3863 -14.3509 -14.2620 -14.1990 -13.9549
   -13.9407 -13.7368 -12.6738  -8.2193  -8.2066  -8.1483  -8.0858  -7.8650
    -7.8538  -7.8237  -7.8123  -7.6976  -7.6556  -7.5877  -7.5285  -2.6927
    -2.6581  -2.6174  -2.5242  -2.0902  -2.0870  -2.0828  -2.0328  -1.9695
    -1.9352  -1.8838  -1.8081  -1.8037  -1.1770  -1.1273  -0.8479  -0.7766
    -0.7406  -0.7351  -0.7231  -0.6458  -0.6304  -0.6262  -0.6123  -0.5550
    -0.5472  -0.3612  -0.3044  -0.2491  -0.0860  -0.0256  -0.0008  -0.0006
     0.0549   0.0842   0.0913   0.2541   0.2687   0.2714   0.3234   0.3367
     0.4380   0.4697   0.4737   0.4922   0.5072   0.5190   0.5644   0.5948
     0.6243   0.6641   0.6836   0.8908   0.9048   1.0223   1.0918   1.1235
     1.1258   1.1883   1.2121   1.3505   1.3788   1.3951   1.4029   1.4577
     1.4891   1.5063   1.8204   1.8311   1.8719   1.8780   1.9963   2.0308
     2.1913   2.3187   2.3607   2.4490   2.5621   2.6515   2.7649   5.5465
     5.7259   5.7388   6.4249   6.5122   7.2493   7.3601   7.3716   7.7478
     7.8118   7.8808   7.9303   7.9523   8.3263   8.5735   8.7604   8.8085
     8.9744   9.1289

          k = 0.2500 0.1281 0.0000 ( 36140 PWs)   bands (ev):

   -38.3392 -38.2628 -22.8953 -22.8832 -22.7585 -22.7392 -18.7329 -18.6639
   -18.6620 -18.5898 -18.4358 -18.3564 -15.1884 -15.1357 -14.8211 -14.7746
   -14.6016 -14.5842 -14.4747 -14.3618 -14.3278 -14.3250 -14.2609 -13.9446
   -13.9299 -13.7428 -12.6775  -8.2265  -8.2138  -8.1420  -8.1109  -8.0981
    -8.0906  -7.9298  -7.8392  -7.7110  -7.6997  -7.5587  -7.4220  -2.8370
    -2.7851  -2.6576  -2.5746  -2.1847  -2.1741  -2.1618  -2.1233  -2.0654
    -2.0591  -1.7976  -1.7879  -1.7188  -1.2204  -1.1722  -1.1627  -1.1614
    -1.1494  -1.0583  -1.0128  -1.0113  -0.9737  -0.8715  -0.8293  -0.5642
    -0.4501  -0.3967  -0.2577  -0.1817  -0.0846  -0.0417  -0.0173   0.0462
     0.0506   0.0711   0.1085   0.1687   0.1920   0.2218   0.2830   0.2962
     0.3168   0.3821   0.4960   0.5230   0.5359   0.6267   0.6556   0.6715
     0.8188   0.8519   0.9767   1.0368   1.0549   1.1166   1.1358   1.1745
     1.2115   1.2408   1.3127   1.3167   1.3308   1.3636   1.3953   1.5467
     1.5555   1.5994   1.7453   1.7530   1.7715   1.8434   2.2856   2.5537
     2.5912   2.6582   2.7050   2.7834   2.8259   2.8907   2.9183   5.7583
     5.9674   5.9806   6.5592   6.6399   7.4379   7.6083   7.6258   7.6782
     7.7425   8.0290   8.0555   8.1625   8.4246   8.6180   8.6846   8.7894
     8.8376   9.0527

          k = 0.2500 0.2563 0.0000 ( 36157 PWs)   bands (ev):

   -38.3336 -38.2573 -22.8488 -22.8367 -22.7173 -22.6934 -18.6696 -18.6469
   -18.6319 -18.5934 -18.5774 -18.5574 -14.9532 -14.9102 -14.7752 -14.7117
   -14.5478 -14.5357 -14.4711 -14.4187 -14.3779 -14.3040 -14.2460 -13.9126
   -13.8963 -13.7581 -12.6913  -8.4128  -8.4015  -8.2333  -8.1598  -8.1466
    -8.1237  -8.0876  -8.0174  -7.8082  -7.7970  -7.6572  -7.5126  -3.2603
    -3.2022  -2.8809  -2.8027  -2.3192  -2.3045  -2.2866  -2.2296  -2.1624
    -2.1551  -2.0485  -1.9409  -1.9289  -1.7525  -1.6972  -1.6521  -1.5839
    -1.5660  -1.5357  -1.4527  -1.0445  -1.0050  -0.9764  -0.8989  -0.8083
    -0.5516  -0.5201  -0.3920  -0.3502  -0.3127  -0.2877  -0.2489  -0.2200
    -0.2061  -0.0948   0.0104   0.2094   0.3340   0.3477   0.3819   0.4671
     0.5134   0.5344   0.5737   0.5829   0.6765   0.6954   1.0325   1.0648
     1.1002   1.1189   1.1502   1.1844   1.2004   1.2039   1.2165   1.2701
     1.2921   1.3150   1.3357   1.3974   1.6103   1.6141   1.6794   1.7445
     1.7729   1.8380   1.8691   1.9575   1.9684   2.0432   2.5140   2.6249
     3.0026   3.0864   3.1139   3.1643   3.1960   3.3521   3.3830   6.2827
     6.4780   6.4931   6.9100   6.9669   7.4016   7.5048   7.7375   8.1377
     8.1524   8.5191   8.5609   8.5978   8.6171   8.7123   8.8335   8.8736
     8.9576   9.0291

          k = 0.2500 0.3844 0.0000 ( 36181 PWs)   bands (ev):

   -38.3281 -38.2517 -22.8012 -22.7891 -22.6753 -22.6465 -18.8512 -18.7731
   -18.6325 -18.5597 -18.5512 -18.4819 -14.8271 -14.7871 -14.7112 -14.6360
   -14.5335 -14.5163 -14.5127 -14.4812 -14.3213 -14.2134 -14.1883 -13.8695
   -13.8516 -13.7739 -12.7116  -8.5194  -8.5083  -8.3412  -8.1654  -8.1384
    -8.1259  -8.1048  -8.0451  -8.0336  -8.0018  -7.8777  -7.7586  -3.6735
    -3.6180  -3.2301  -3.1551  -2.7299  -2.7177  -2.7149  -2.3501  -2.3298
    -2.2685  -2.2076  -2.0547  -2.0476  -2.0426  -2.0150  -1.8220  -1.7729
    -1.7555  -1.5355  -1.4762  -1.0862  -1.0534  -1.0165  -0.9173  -0.8883
    -0.7703  -0.7058  -0.5525  -0.5401  -0.5208  -0.4785  -0.4760  -0.3073
    -0.2673  -0.1553  -0.0216   0.2270   0.4002   0.4444   0.4840   0.5297
     0.5968   0.6328   0.7067   0.7878   0.8440   0.8948   1.0817   1.1010
     1.1105   1.1456   1.2468   1.3361   1.3688   1.4120   1.4145   1.4662
     1.5440   1.5705   1.6177   1.6204   1.6843   1.7058   1.7841   1.8430
     2.0493   2.0534   2.2680   2.3779   2.3929   2.4222   2.4804   2.5436
     2.9601   3.0196   3.1398   3.4386   3.4703   3.6281   3.6501   6.6295
     6.6538   6.7170   6.9026   6.9856   7.6369   7.7267   7.9120   8.3717
     8.5039   8.5186   8.9139   8.9341   9.0276   9.1802   9.2322   9.4503
     9.4924   9.5546

          k = 0.2500-0.5125 0.0000 ( 36190 PWs)   bands (ev):

   -38.3258 -38.2494 -22.7812 -22.7691 -22.6576 -22.6268 -18.9257 -18.8477
   -18.6267 -18.5539 -18.5105 -18.4411 -14.8764 -14.8191 -14.5903 -14.5564
   -14.5524 -14.5173 -14.5069 -14.4639 -14.3222 -14.1691 -14.1570 -13.8487
   -13.8304 -13.7812 -12.7218  -8.5038  -8.4931  -8.3375  -8.2047  -8.1930
    -8.1242  -8.1154  -8.0988  -8.0736  -8.0288  -7.9789  -7.9744  -3.8358
    -3.7816  -3.3873  -3.3113  -2.9729  -2.9659  -2.9534  -2.3447  -2.3227
    -2.2281  -2.2158  -2.1754  -2.1670  -2.0410  -2.0316  -1.9345  -1.8876
    -1.7572  -1.5354  -1.4818  -1.0932  -1.0659  -1.0436  -0.9177  -0.8659
    -0.8654  -0.7924  -0.6221  -0.5964  -0.5947  -0.5593  -0.5156  -0.3105
    -0.2850  -0.1642  -0.0279   0.2371   0.4256   0.4616   0.5073   0.5387
     0.5811   0.6366   0.7133   0.8060   0.9738   1.0245   1.1559   1.1637
     1.1887   1.2321   1.3233   1.3759   1.4018   1.4541   1.4687   1.5189
     1.5206   1.5950   1.6158   1.6678   1.6900   1.8621   1.8811   2.1161
     2.1442   2.3215   2.3405   2.4411   2.5242   2.5565   2.5719   2.6642
     2.8011   2.8738   3.0695   3.4962   3.5290   3.6838   3.7049   6.5934
     6.6092   6.7642   6.8281   6.9218   7.8002   7.8920   7.9987   8.4424
     8.9014   8.9520   9.1207   9.1276   9.1465   9.2907   9.4113   9.4954
     9.5705   9.5868

          k = 0.3750 0.0000 0.0000 ( 36186 PWs)   bands (ev):

   -38.3371 -38.2607 -22.8679 -22.8559 -22.7375 -22.7127 -18.8572 -18.7860
   -18.6782 -18.6086 -18.3296 -18.2498 -15.0431 -15.0134 -14.9841 -14.9122
   -14.7610 -14.7229 -14.6140 -14.3706 -14.3494 -14.2554 -14.1886 -13.9434
   -13.9287 -13.7420 -12.8415  -8.2208  -8.2077  -8.1213  -8.0865  -7.8057
    -7.7946  -7.7343  -7.7229  -7.6666  -7.5704  -7.5129  -7.4587  -3.0187
    -2.9794  -2.8820  -2.7972  -2.1584  -2.1562  -1.9274  -1.8836  -1.8694
    -1.8436  -1.8340  -1.8064  -1.7659  -1.1884  -1.1520  -1.1441  -1.1188
    -1.1141  -0.9501  -0.9321  -0.9086  -0.8718  -0.7777  -0.7711  -0.6233
    -0.6069  -0.4540  -0.3940  -0.3903  -0.3434  -0.3189  -0.2539  -0.1349
    -0.0023   0.0771   0.1364   0.1963   0.2790   0.2991   0.3100   0.3234
     0.4237   0.5300   0.5346   0.5494   0.5657   0.5834   0.5986   0.6084
     0.6513   0.7146   0.7275   0.8980   0.9227   0.9623   1.1728   1.1962
     1.2106   1.2874   1.2895   1.3324   1.3655   1.3849   1.5613   1.6017
     1.6382   1.6428   1.7088   1.7249   1.7474   1.7633   1.9743   2.0583
     2.0741   2.3402   2.3747   2.4924   2.5744   2.7554   2.8454   6.1596
     6.3628   6.3756   7.0318   7.0954   7.7975   7.8368   7.8677   7.8719
     7.9074   8.0237   8.2839   8.4069   8.6728   8.7425   8.7991   8.9279
     9.0139   9.3332

          k = 0.3750 0.1281 0.0000 ( 36132 PWs)   bands (ev):

   -38.3348 -38.2584 -22.8510 -22.8389 -22.7220 -22.6958 -18.8499 -18.7787
   -18.6453 -18.5756 -18.4280 -18.3486 -14.9787 -14.9551 -14.9041 -14.8232
   -14.7081 -14.6799 -14.5651 -14.3413 -14.3228 -14.3187 -14.2539 -13.9271
   -13.9121 -13.7358 -12.8070  -8.2216  -8.2085  -8.1179  -8.0905  -8.0524
    -8.0410  -7.8818  -7.7670  -7.7656  -7.7557  -7.6217  -7.4763  -3.1711
    -3.1183  -2.9337  -2.8528  -2.1991  -2.1859  -2.1258  -2.0904  -1.9946
    -1.9575  -1.8240  -1.7444  -1.6693  -1.4987  -1.4681  -1.4365  -1.3734
    -1.2082  -1.1679  -1.1538  -1.0437  -0.9900  -0.9844  -0.9015  -0.7290
    -0.6766  -0.4286  -0.3308  -0.2705  -0.1532  -0.1369  -0.0982  -0.0383
    -0.0157   0.0124   0.0200   0.1013   0.1647   0.2399   0.2440   0.3331
     0.4106   0.4302   0.4398   0.5987   0.6137   0.7101   0.7218   0.7275
     0.8972   0.9441   1.0016   1.0801   1.0865   1.1254   1.1804   1.2038
     1.2545   1.2664   1.3562   1.4276   1.4395   1.4815   1.5782   1.6033
     1.6077   1.6431   1.6577   1.6843   1.7627   1.8292   2.0564   2.6122
     2.6633   2.7096   2.7316   2.8159   2.8431   3.0369   3.0641   6.2962
     6.4849   6.4984   7.1131   7.1719   7.4877   7.5715   7.8042   7.9381
     7.9485   8.1750   8.6062   8.6728   8.7152   8.7694   8.8212   8.9108
     9.0024   9.3294

          k = 0.3750 0.2563 0.0000 ( 36161 PWs)   bands (ev):

   -38.3293 -38.2529 -22.8094 -22.7973 -22.6840 -22.6546 -18.8324 -18.7611
   -18.6433 -18.5646 -18.5621 -18.4920 -14.8616 -14.8338 -14.7117 -14.6492
   -14.5641 -14.5316 -14.4872 -14.4247 -14.4245 -14.2737 -14.2338 -13.8897
   -13.8737 -13.7312 -12.7213  -8.4619  -8.4506  -8.2868  -8.1782  -8.1649
    -8.1455  -8.0942  -8.0361  -8.0345  -8.0245  -7.8809  -7.7331  -3.6146
    -3.5519  -3.1633  -3.0814  -2.3889  -2.3695  -2.3099  -2.2696  -2.1670
    -2.1605  -2.0626  -2.0207  -2.0084  -1.9473  -1.9342  -1.8105  -1.7819
    -1.7579  -1.4615  -1.3916  -1.0332  -0.9823  -0.9369  -0.8747  -0.7653
    -0.6759  -0.6698  -0.4610  -0.4015  -0.3696  -0.3438  -0.3128  -0.2280
    -0.2055  -0.1035  -0.0235   0.1813   0.3673   0.4943   0.5295   0.5442
     0.6870   0.7247   0.7940   0.8093   0.8693   0.9104   1.0796   1.1104
     1.1119   1.1454   1.2219   1.2467   1.2621   1.2898   1.3156   1.3945
     1.4496   1.4838   1.4919   1.5182   1.6478   1.6554   1.7850   1.7969
     1.8299   1.8559   1.8715   1.8743   1.9321   1.9683   2.4620   2.5728
     3.0022   3.0908   3.1251   3.5567   3.5799   3.7020   3.7255   6.4320
     6.4687   6.4937   6.8988   6.9706   7.5314   7.6309   7.7986   8.1807
     8.1935   8.3580   8.7773   8.9275   8.9637   8.9865   9.0342   9.1971
     9.3658   9.4078

          k = 0.3750 0.3844 0.0000 ( 36239 PWs)   bands (ev):

   -38.3238 -38.2474 -22.7670 -22.7549 -22.6454 -22.6126 -18.8379 -18.8121
   -18.7604 -18.7399 -18.4727 -18.4024 -14.7563 -14.7166 -14.6506 -14.5988
   -14.5547 -14.5243 -14.3915 -14.3381 -14.2470 -14.2133 -14.1540 -13.8565
   -13.8390 -13.7526 -12.6316  -8.7283  -8.7171  -8.5444  -8.3736  -8.3646
    -8.3532  -8.1887  -8.1661  -8.1540  -8.1056  -8.0715  -8.0275  -4.0670
    -4.0051  -3.5242  -3.4448  -2.7018  -2.6869  -2.6868  -2.4825  -2.4663
    -2.4569  -2.4153  -2.4006  -2.3544  -2.0557  -2.0534  -1.9500  -1.9015
    -1.7629  -1.3107  -1.2580  -1.1251  -1.0740  -0.9374  -0.9109  -0.8930
    -0.8278  -0.7419  -0.7198  -0.6589  -0.5921  -0.5731  -0.5401  -0.1619
    -0.1572  -0.0479  -0.0378   0.2358   0.5049   0.6455   0.7954   0.8112
     0.8277   0.8427   1.0167   1.1558   1.2132   1.2396   1.2505   1.2642
     1.3068   1.3756   1.3844   1.4413   1.4499   1.4701   1.5227   1.5331
     1.5433   1.6205   1.6757   1.7511   1.7784   1.7820   1.9668   2.0618
     2.0824   2.2449   2.2789   2.2993   2.3144   2.4076   2.4459   2.6862
     2.9447   3.0196   3.1526   4.0976   4.1240   4.2122   4.2284   6.0909
     6.1057   6.2744   6.5945   6.6893   7.7385   7.9517   8.1538   8.1829
     8.6537   8.7510   8.7891   8.8546   9.0136   9.2421   9.2958   9.3872
     9.4277   9.5312

          k = 0.3750-0.5125 0.0000 ( 36266 PWs)   bands (ev):

   -38.3215 -38.2451 -22.7492 -22.7370 -22.6292 -22.5950 -18.9102 -18.8321
   -18.8066 -18.7352 -18.4336 -18.3632 -14.7660 -14.7039 -14.6617 -14.6254
   -14.4915 -14.4818 -14.3102 -14.2677 -14.2282 -14.1294 -14.1143 -13.8451
   -13.8267 -13.7786 -12.5933  -8.8072  -8.7962  -8.6265  -8.5199  -8.5083
    -8.3965  -8.3288  -8.2958  -8.1615  -8.1494  -8.0892  -8.0228  -4.2478
    -4.1866  -3.6893  -3.6107  -2.9433  -2.9389  -2.9247  -2.5977  -2.5537
    -2.4976  -2.4841  -2.4118  -2.3639  -2.0513  -2.0494  -1.9976  -1.9504
    -1.7453  -1.3321  -1.2852  -1.0815  -1.0316  -0.9998  -0.9711  -0.9682
    -0.8414  -0.8115  -0.7923  -0.7201  -0.6736  -0.6561  -0.6243  -0.1263
    -0.1250  -0.0492  -0.0023   0.2613   0.5389   0.6622   0.8538   0.8699
     0.9067   0.9533   1.0926   1.2677   1.2715   1.2770   1.2948   1.3397
     1.4442   1.4512   1.4880   1.4887   1.5262   1.5486   1.5935   1.6883
     1.7004   1.7440   1.7447   1.8026   1.8347   1.8592   1.9449   2.2867
     2.3404   2.3590   2.4957   2.5111   2.5155   2.5787   2.5823   2.6091
     2.7747   2.8639   3.0819   4.2593   4.2879   4.3802   4.3949   5.8960
     5.9084   6.1126   6.4924   6.5987   7.9201   7.9300   8.0883   8.3185
     8.7893   8.8968   8.9287   9.0335   9.1797   9.1910   9.2662   9.3217
     9.3868   9.5159

          k =-0.5000 0.0000 0.0000 ( 36146 PWs)   bands (ev):

   -38.3353 -38.2589 -22.8484 -22.8363 -22.7216 -22.6936 -18.9293 -18.8586
   -18.6399 -18.5698 -18.3271 -18.2473 -15.0817 -15.0511 -14.8671 -14.8449
   -14.8029 -14.7858 -14.6595 -14.3797 -14.3722 -14.2441 -14.1766 -13.9376
   -13.9228 -13.7416 -12.9081  -8.2201  -8.2069  -8.1093  -8.0815  -7.7829
    -7.7719  -7.6961  -7.6846  -7.6594  -7.5339  -7.4833  -7.4291  -3.1421
    -3.1039  -2.9972  -2.9134  -2.1850  -2.1831  -1.8902  -1.8760  -1.8696
    -1.8515  -1.7924  -1.6266  -1.5832  -1.4280  -1.3963  -1.2438  -1.0823
    -1.0630  -1.0432  -1.0325  -1.0271  -0.9421  -0.8735  -0.8672  -0.6339
    -0.6174  -0.6011  -0.5818  -0.4725  -0.3724  -0.3353  -0.3321  -0.1924
    -0.0007   0.0469   0.1739   0.2374   0.2910   0.3045   0.3099   0.3178
     0.4178   0.5449   0.5466   0.5575   0.5939   0.6143   0.6260   0.6318
     0.6445   0.6491   0.7083   0.8256   1.0595   1.0873   1.2061   1.2138
     1.2361   1.2537   1.2750   1.3046   1.3718   1.4112   1.4765   1.6782
     1.6860   1.6865   1.7076   1.7411   1.8059   1.8729   1.8824   2.0437
     2.0559   2.3293   2.3544   2.4938   2.5640   2.7691   2.8513   6.9510
     6.9610   7.0934   7.1297   7.2176   7.2314   7.3395   7.4201   7.8190
     7.8893   8.3385   8.4538   8.4886   8.8628   9.0317   9.0418   9.1674
     9.2450   9.2748

          k =-0.5000 0.1281 0.0000 ( 36112 PWs)   bands (ev):

   -38.3330 -38.2566 -22.8323 -22.8202 -22.7067 -22.6776 -18.9215 -18.8508
   -18.6076 -18.5374 -18.4247 -18.3453 -15.0331 -15.0017 -14.7951 -14.7511
   -14.7459 -14.6869 -14.6085 -14.3490 -14.3414 -14.3108 -14.2429 -13.9193
   -13.9043 -13.7315 -12.8597  -8.2159  -8.2027  -8.1069  -8.0790  -7.9181
    -7.9074  -7.9071  -7.8959  -7.7833  -7.7393  -7.6208  -7.6149  -3.3001
    -3.2481  -3.0572  -2.9766  -2.2098  -2.2012  -2.1155  -2.0779  -1.8844
    -1.7711  -1.7553  -1.7533  -1.7325  -1.7100  -1.6656  -1.5938  -1.5228
    -1.1895  -1.1740  -1.1580  -1.0674  -0.9675  -0.9175  -0.9141  -0.7920
    -0.7827  -0.4057  -0.3945  -0.3200  -0.1858  -0.1646  -0.1190  -0.1116
    -0.0832  -0.0419   0.0102   0.0530   0.0600   0.2429   0.2544   0.3367
     0.4214   0.4959   0.5264   0.5917   0.6086   0.7432   0.7965   0.8106
     0.9166   0.9355   1.0485   1.0707   1.1657   1.1733   1.2209   1.2272
     1.2419   1.2713   1.3336   1.3913   1.4019   1.4385   1.6247   1.6607
     1.6649   1.7065   1.7137   1.7870   1.7934   1.8535   1.8758   2.5954
     2.6889   2.7175   2.7265   2.8090   2.8352   3.0585   3.0839   6.8753
     6.9358   6.9511   7.1542   7.3332   7.3979   7.4316   7.5160   7.5612
     7.5902   8.3764   8.6863   8.8798   8.9432   9.0227   9.0824   9.1797
     9.2256   9.3560

          k =-0.5000 0.2563 0.0000 ( 36182 PWs)   bands (ev):

   -38.3275 -38.2511 -22.7928 -22.7807 -22.6701 -22.6383 -18.9027 -18.8319
   -18.6388 -18.5601 -18.5259 -18.4555 -14.9107 -14.8770 -14.6677 -14.6411
   -14.4952 -14.4720 -14.4679 -14.4463 -14.3876 -14.2742 -14.2670 -13.8799
   -13.8640 -13.7198 -12.7352  -8.3840  -8.3726  -8.2294  -8.2182  -8.2138
    -8.1843  -8.1712  -8.1093  -8.0690  -8.0409  -8.0140  -7.9498  -3.7567
    -3.6935  -3.2996  -3.2183  -2.4059  -2.3854  -2.2960  -2.2594  -2.2168
    -2.1720  -2.1612  -2.1544  -1.9915  -1.9488  -1.9357  -1.8905  -1.8364
    -1.8001  -1.4325  -1.3628  -1.0152  -0.9654  -0.8957  -0.7962  -0.7859
    -0.7733  -0.6672  -0.4613  -0.4025  -0.4013  -0.3874  -0.3434  -0.2230
    -0.2065  -0.0972  -0.0377   0.1669   0.3857   0.5357   0.5612   0.5675
     0.6963   0.7690   0.8238   0.8528   1.0289   1.0702   1.1109   1.1627
     1.1710   1.2000   1.2724   1.3239   1.3484   1.3576   1.3613   1.3656
     1.3936   1.4827   1.5377   1.5897   1.6839   1.7753   1.8000   1.8024
     1.8110   1.8203   1.8283   1.8929   1.9408   2.1503   2.2093   2.5317
     3.0008   3.0875   3.1246   3.6681   3.6897   3.7967   3.8185   6.4109
     6.4287   6.5385   6.8120   6.9017   7.6700   7.7483   7.7933   8.2755
     8.2916   8.3994   8.5643   8.9908   9.0040   9.1546   9.1618   9.2277
     9.4075   9.4535

          k =-0.5000 0.3844 0.0000 ( 36306 PWs)   bands (ev):

   -38.3220 -38.2456 -22.7526 -22.7405 -22.6329 -22.5984 -18.8840 -18.8299
   -18.8130 -18.7516 -18.4383 -18.3676 -14.7819 -14.7461 -14.6452 -14.5808
   -14.5217 -14.5151 -14.2904 -14.2550 -14.1969 -14.1967 -14.1850 -13.8508
   -13.8334 -13.7427 -12.5975  -8.7776  -8.7664  -8.5948  -8.5233  -8.5119
    -8.3923  -8.3386  -8.2792  -8.1799  -8.1670  -8.0890  -8.0419  -4.2281
    -4.1650  -3.6663  -3.5868  -2.6899  -2.6751  -2.6743  -2.6010  -2.5550
    -2.5145  -2.5016  -2.4295  -2.3876  -2.0548  -2.0527  -1.9876  -1.9377
    -1.7630  -1.2246  -1.1901  -1.1686  -1.1443  -0.9116  -0.8901  -0.8730
    -0.8639  -0.7974  -0.7108  -0.6857  -0.6223  -0.6078  -0.5776  -0.1052
    -0.0945  -0.0623   0.0107   0.2409   0.5374   0.6864   0.9186   0.9230
     0.9738   1.0191   1.1555   1.2306   1.2412   1.2773   1.2910   1.3943
     1.3984   1.4184   1.4316   1.4774   1.5212   1.5504   1.6089   1.6278
     1.6591   1.7161   1.7168   1.7576   1.7900   1.8683   1.9392   2.0665
     2.1003   2.2613   2.2761   2.2961   2.3624   2.3797   2.5971   2.5974
     2.9425   3.0179   3.1577   4.3219   4.3467   4.4187   4.4328   5.8535
     5.8671   6.0586   6.4848   6.5897   7.8657   7.9725   8.0826   8.2907
     8.5742   8.7057   8.8439   8.9813   9.1275   9.1624   9.2436   9.3262
     9.4215   9.4518

          k =-0.5000-0.5125 0.0000 ( 36252 PWs)   bands (ev):

   -38.3197 -38.2434 -22.7358 -22.7236 -22.6173 -22.5816 -18.9037 -18.8762
   -18.8256 -18.8052 -18.4000 -18.3292 -14.7273 -14.7173 -14.6911 -14.6524
   -14.4507 -14.4497 -14.2153 -14.1722 -14.1621 -14.1438 -14.0923 -13.8433
   -13.8249 -13.7774 -12.5356  -8.9296  -8.9185  -8.7438  -8.6408  -8.6293
    -8.5312  -8.4460  -8.4172  -8.1775  -8.1654  -8.0873  -8.0386  -4.4174
    -4.3548  -3.8337  -3.7549  -2.9310  -2.9271  -2.9125  -2.7314  -2.6861
    -2.5415  -2.5296  -2.4525  -2.4090  -2.0429  -2.0413  -2.0211  -1.9726
    -1.7356  -1.2702  -1.2262  -1.1499  -1.1013  -1.0144  -0.9292  -0.9190
    -0.9071  -0.8102  -0.7861  -0.7810  -0.7054  -0.6910  -0.6630  -0.0622
    -0.0618  -0.0512   0.0506   0.2726   0.5746   0.7071   0.9815   1.0471
     1.1872   1.2311   1.2795   1.2964   1.3118   1.3230   1.3336   1.3447
     1.3637   1.4429   1.5382   1.5707   1.6148   1.6304   1.6580   1.8156
     1.8384   1.8443   1.8514   1.8577   1.8627   1.9789   2.0648   2.1676
     2.3605   2.3788   2.4684   2.4837   2.5314   2.5691   2.7604   2.7690
     2.7695   2.8588   3.0904   4.5354   4.5612   4.6489   4.6617   5.6057
     5.6176   5.8336   6.3740   6.4890   7.9036   7.9489   8.1961   8.1993
     8.5182   8.7146   8.9263   9.0329   9.0361   9.0689   9.1986   9.3166
     9.3265   9.4374

     the Fermi energy is     2.7645 ev

!    total energy              =   -1868.72635353 Ry
     Harris-Foulkes estimate   =   -1868.72635412 Ry
     estimated scf accuracy    <       0.00000088 Ry

     The total energy is the sum of the following terms:

     one-electron contribution =  -27595.94112284 Ry
     hartree contribution      =   13950.89393221 Ry
     xc contribution           =    -642.19763883 Ry
     ewald contribution        =   12418.52921619 Ry
     smearing contrib. (-TS)   =      -0.01074027 Ry

     convergence has been achieved in  33 iterations

     negative rho (up, down):  9.040E-02 0.000E+00

     Forces acting on atoms (cartesian axes, Ry/au):

     atom    1 type  3   force =     0.00000000    0.00000000   -0.00046676
     atom    2 type  2   force =     0.00000000    0.00000000    0.00124449
     atom    3 type  3   force =     0.00000000    0.00000000    0.00027116
     atom    4 type  1   force =     0.00000000    0.00000000   -0.00014840
     atom    5 type  2   force =     0.00000000    0.00000000   -0.00042369
     atom    6 type  3   force =     0.00000000    0.00000000    0.00129261
     atom    7 type  3   force =     0.00000000    0.00000000    0.00098201
     atom    8 type  4   force =     0.00000000    0.00000000   -0.00276532
     atom    9 type  3   force =     0.00000000    0.00000000    0.00507596
     atom   10 type  3   force =     0.00000000    0.00000000    0.00348422
     atom   11 type  2   force =     0.00000000    0.00000000   -0.00223505
     atom   12 type  1   force =     0.00000000    0.00000000    0.01611990
     atom   13 type  3   force =     0.00000000    0.00000000   -0.01929897
     atom   14 type  3   force =     0.00000000    0.00000000    0.02293777
     atom   15 type  2   force =     0.00000000    0.00000000   -0.02334380
     atom   16 type  3   force =     0.00000000    0.00000000    0.02104239
     atom   17 type  1   force =     0.00000000    0.00000000   -0.00756057
     atom   18 type  2   force =     0.00000000    0.00000000   -0.02245186
     atom   19 type  3   force =     0.00000000    0.00000000    0.00448187
     atom   20 type  3   force =     0.00000000    0.00000000    0.00319738
     atom   21 type  4   force =     0.00000000    0.00000000   -0.00093140
     atom   22 type  3   force =     0.00000000    0.00000000   -0.00048061
     atom   23 type  3   force =     0.00000000    0.00000000    0.00087131
     atom   24 type  2   force =     0.00000000    0.00000000    0.00012324
     atom   25 type  1   force =     0.00000000    0.00000000    0.00005221
     atom   26 type  3   force =     0.00000000    0.00000000   -0.00189272
     atom   27 type  2   force =     0.00000000    0.00000000    0.00048401
     atom   28 type  3   force =     0.00000000    0.00000000    0.00033863

     Total force =     0.052903     Total SCF correction =     0.003416


     Computing stress (Cartesian axis) and pressure


     negative rho (up, down):  9.040E-02 0.000E+00
          total   stress  (Ry/bohr**3)                   (kbar)     P=       -6.11
   0.00000389   0.00000000   0.00000000            0.57        0.00        0.00
   0.00000000  -0.00010199   0.00000000            0.00      -15.00        0.00
   0.00000000   0.00000000  -0.00002640            0.00        0.00       -3.88

 
     init_run     :      8.75s CPU      9.30s WALL (       1 calls)
     electrons    :    529.87s CPU    569.03s WALL (       1 calls)
     forces       :      3.56s CPU      3.95s WALL (       1 calls)
     stress       :     21.78s CPU     22.77s WALL (       1 calls)

     Called by init_run:
     wfcinit      :      6.10s CPU      6.24s WALL (       1 calls)
     potinit      :      0.63s CPU      0.64s WALL (       1 calls)
     hinit0       :      1.17s CPU      1.19s WALL (       1 calls)

     Called by electrons:
     c_bands      :    422.47s CPU    438.50s WALL (      33 calls)
     sum_band     :     71.64s CPU     84.41s WALL (      33 calls)
     v_of_rho     :      2.45s CPU      2.49s WALL (      34 calls)
     newd         :     17.61s CPU     28.08s WALL (      34 calls)
     mix_rho      :     16.05s CPU     16.21s WALL (      33 calls)

     Called by c_bands:
     init_us_2    :      3.59s CPU      3.64s WALL (    1725 calls)
     cegterg      :    398.78s CPU    414.36s WALL (     825 calls)

     Called by sum_band:
     sum_band:bec :      0.22s CPU      0.22s WALL (     825 calls)
     addusdens    :     18.74s CPU     30.77s WALL (      33 calls)

     Called by *egterg:
     h_psi        :    193.40s CPU    202.62s WALL (    3814 calls)
     s_psi        :     21.60s CPU     21.94s WALL (    3814 calls)
     g_psi        :      0.64s CPU      0.64s WALL (    2964 calls)
     cdiaghg      :    112.71s CPU    113.17s WALL (    3789 calls)

     Called by h_psi:
     h_psi:calbec :     23.90s CPU     24.96s WALL (    3814 calls)
     vloc_psi     :    145.88s CPU    148.58s WALL (    3814 calls)
     add_vuspsi   :     22.49s CPU     25.57s WALL (    3814 calls)

     General routines
     calbec       :     39.36s CPU     40.48s WALL (    4764 calls)
     fft          :      1.99s CPU      2.02s WALL (     465 calls)
     ffts         :      8.69s CPU      8.77s WALL (   15255 calls)
     fftw         :    166.14s CPU    169.10s WALL (  593356 calls)
     interpolate  :      0.16s CPU      0.16s WALL (      34 calls)
 
     Parallel routines
     fft_scatt_xy :     22.30s CPU     22.67s WALL (  609076 calls)
     fft_scatt_yz :    101.32s CPU    103.12s WALL (  609076 calls)
 
     PWSCF        :   9m24.98s CPU  10m 6.10s WALL

 
   This run was terminated on:  17:26:33   5May2021            

=------------------------------------------------------------------------------=
   JOB DONE.
=------------------------------------------------------------------------------=
[1620249993.425740] [holy7c08503:124345:0]          mpool.c:43   UCX  WARN  object 0x3d22fc0 was not returned to mpool ucp_requests
[1620249993.429792] [holy7c12506:250774:0]          mpool.c:43   UCX  WARN  object 0x3ea6dc0 was not returned to mpool ucp_requests
[1620249993.430946] [holy7c12505:265682:0]          mpool.c:43   UCX  WARN  object 0x457f440 was not returned to mpool ucp_requests
[1620249993.430965] [holy7c12505:265682:0]          mpool.c:43   UCX  WARN  object 0x457f7c0 was not returned to mpool ucp_requests
[1620249993.429180] [holy7c12508:184031:0]          mpool.c:43   UCX  WARN  object 0x38263c0 was not returned to mpool ucp_requests
[1620249993.427775] [holy7c08503:124344:0]          mpool.c:43   UCX  WARN  object 0x45300c0 was not returned to mpool ucp_requests
[1620249993.427797] [holy7c08503:124344:0]          mpool.c:43   UCX  WARN  object 0x4530280 was not returned to mpool ucp_requests
[1620249993.431686] [holy7c12505:265684:0]          mpool.c:43   UCX  WARN  object 0x2f2d340 was not returned to mpool ucp_requests
[1620249993.432345] [holy7c12505:265686:0]          mpool.c:43   UCX  WARN  object 0x47d8100 was not returned to mpool ucp_requests
[1620249993.432363] [holy7c12505:265686:0]          mpool.c:43   UCX  WARN  object 0x47d8800 was not returned to mpool ucp_requests
