
     Program PWSCF v.6.5 starts on  5May2021 at 17:29:20 

     This program is part of the open-source Quantum ESPRESSO suite
     for quantum simulation of materials; please cite
         "P. Giannozzi et al., J. Phys.:Condens. Matter 21 395502 (2009);
         "P. Giannozzi et al., J. Phys.:Condens. Matter 29 465901 (2017);
          URL http://www.quantum-espresso.org", 
     in publications or presentations arising from this work. More details at
     http://www.quantum-espresso.org/quote

     Parallel version (MPI), running on    20 processors

     MPI processes distributed on    16 nodes
     R & G space division:  proc/nbgrp/npool/nimage =      20
     Reading input from YBCO_BaO_cleave_5.0_sep_scf.pwi
Warning: card &IONS ignored
Warning: card     ION_DYNAMICS = 'BFGS' ignored
Warning: card / ignored
Warning: card &CELL ignored
Warning: card     CELL_DYNAMICS = 'BFGS' ignored
Warning: card / ignored

     Current dimensions of program PWSCF are:
     Max number of different atomic species (ntypx) = 10
     Max number of k-points (npk) =  40000
     Max angular momentum in pseudopotentials (lmaxx) =  3

     Subspace diagonalization in iterative solution of the eigenvalue problem:
     one sub-group per band group will be used
     scalapack distributed-memory algorithm (size of sub-group:  4*  4 procs)

     Message from routine setup:
     using ibrav=0 with symmetry is DISCOURAGED, use correct ibrav instead
 
     Parallelization info
     --------------------
     sticks:   dense  smooth     PW     G-vecs:    dense   smooth      PW
     Min         150      50     14                79178    15233    2374
     Max         151      51     15                79221    15259    2425
     Sum        3015    1011    293              1583993   304845   48017
 


     bravais-lattice index     =            0
     lattice parameter (alat)  =       7.3477  a.u.
     unit-cell volume          =    4854.4281 (a.u.)^3
     number of atoms/cell      =           28
     number of atomic types    =            4
     number of electrons       =       229.00
     number of Kohn-Sham states=          138
     kinetic-energy cutoff     =      60.0000  Ry
     charge density cutoff     =     720.0000  Ry
     convergence threshold     =      1.0E-06
     mixing beta               =       0.2000
     number of iterations used =           10  local-TF  mixing
     Exchange-correlation= SLA PW PBE PBE
                           (   1   4   3   4   0   0   0)

     celldm(1)=   7.347715  celldm(2)=   0.000000  celldm(3)=   0.000000
     celldm(4)=   0.000000  celldm(5)=   0.000000  celldm(6)=   0.000000

     crystal axes: (cart. coord. in units of alat)
               a(1) = (   1.000000   0.000000   0.000000 )  
               a(2) = (   0.000000   0.975577   0.000000 )  
               a(3) = (   0.000000   0.000000  12.543521 )  

     reciprocal axes: (cart. coord. in units 2 pi/alat)
               b(1) = (  1.000000  0.000000  0.000000 )  
               b(2) = (  0.000000  1.025034  0.000000 )  
               b(3) = (  0.000000  0.000000  0.079722 )  


     PseudoPot. # 1 for Ba read from file:
     /n/holyscratch01/hoffman_lab/ruizhe/YBCO_Project/pseudo/Ba.pbe-nsp-van.UPF
     MD5 check sum: 2b9c31dd849566dd297d80989662b7a0
     Pseudo is Ultrasoft + core correction, Zval = 10.0
     Generated by new atomic code, or converted to UPF format
     Using radial grid of  907 points,  6 beta functions with: 
                l(1) =   0
                l(2) =   0
                l(3) =   1
                l(4) =   1
                l(5) =   2
                l(6) =   2
     Q(r) pseudized with  6 coefficients,  rinner =    1.200   1.200   1.200
                                                       1.200   1.200

     PseudoPot. # 2 for Cu read from file:
     /n/holyscratch01/hoffman_lab/ruizhe/YBCO_Project/pseudo/Cu.pbe-n-van_ak.UPF
     MD5 check sum: 34e3282627ffb533726feb647e090d62
     Pseudo is Ultrasoft + core correction, Zval = 11.0
     Generated by new atomic code, or converted to UPF format
     Using radial grid of  867 points,  6 beta functions with: 
                l(1) =   0
                l(2) =   0
                l(3) =   1
                l(4) =   1
                l(5) =   2
                l(6) =   2
     Q(r) pseudized with  8 coefficients,  rinner =    1.400   1.400   1.400
                                                       1.400   1.400

     PseudoPot. # 3 for O  read from file:
     /n/holyscratch01/hoffman_lab/ruizhe/YBCO_Project/pseudo/O.pbe-van_ak.UPF
     MD5 check sum: 783ce7fe4c79b6a4916957118fed0856
     Pseudo is Ultrasoft, Zval =  6.0
     Generated by new atomic code, or converted to UPF format
     Using radial grid of  737 points,  4 beta functions with: 
                l(1) =   0
                l(2) =   0
                l(3) =   1
                l(4) =   1
     Q(r) pseudized with  8 coefficients,  rinner =    0.800   0.800   0.800


     PseudoPot. # 4 for Y  read from file:
     /n/holyscratch01/hoffman_lab/ruizhe/YBCO_Project/pseudo/Y.pbe-nsp-van.UPF
     MD5 check sum: 4412fed3ab108fed87a1b7d6a69a4a38
     Pseudo is Ultrasoft + core correction, Zval = 11.0
     Generated by new atomic code, or converted to UPF format
     Using radial grid of  885 points,  6 beta functions with: 
                l(1) =   0
                l(2) =   0
                l(3) =   1
                l(4) =   1
                l(5) =   2
                l(6) =   2
     Q(r) pseudized with  6 coefficients,  rinner =    1.200   1.200   1.200
                                                       1.200   1.200

     atomic species   valence    mass     pseudopotential
        Ba            10.00   137.32700     Ba( 1.00)
        Cu            11.00    63.54600     Cu( 1.00)
        O              6.00    15.99900     O ( 1.00)
        Y             11.00    88.90584     Y ( 1.00)

      4 Sym. Ops. (no inversion) found



   Cartesian axes

     site n.     atom                  positions (alat units)
         1           O   tau(   1) = (   0.0000000   0.4877884  -0.0257983  )
         2           Cu  tau(   2) = (   0.0000000   0.0000000   0.0215779  )
         3           O   tau(   3) = (   0.0000000   0.0000000   0.5073114  )
         4           Ba  tau(   4) = (   0.4999996   0.4877884   0.5319677  )
         5           Cu  tau(   5) = (   0.0000000   0.0000000   1.0495845  )
         6           O   tau(   6) = (   0.4999996   0.0000000   1.1181579  )
         7           O   tau(   7) = (   0.0000000   0.4877884   1.1273137  )
         8           Y   tau(   8) = (   0.4999996   0.4877884   1.4938777  )
         9           O   tau(   9) = (   0.0000000   0.4877884   1.8497402  )
        10           O   tau(  10) = (   0.4999996   0.0000000   1.8692709  )
        11           Cu  tau(  11) = (   0.0000000   0.0000000   1.9417560  )
        12           Ba  tau(  12) = (   0.4999996   0.4877884   2.4526063  )
        13           O   tau(  13) = (   0.0000000   0.0000000   2.5103470  )
        14           O   tau(  14) = (   0.0000000   0.4877884   2.9968469  )
        15           Cu  tau(  15) = (   0.0000000   0.0000000   2.9968521  )
        16           O   tau(  16) = (   0.0000000   0.0000000   3.4833288  )
        17           Ba  tau(  17) = (   0.4999996   0.4877884   3.5410618  )
        18           Cu  tau(  18) = (   0.0000000   0.0000000   5.3378629  )
        19           O   tau(  19) = (   0.4999996   0.0000000   5.4103353  )
        20           O   tau(  20) = (   0.0000000   0.4877884   5.4298479  )
        21           Y   tau(  21) = (   0.4999996   0.4877884   5.7857130  )
        22           O   tau(  22) = (   0.0000000   0.4877884   6.1522770  )
        23           O   tau(  23) = (   0.4999996   0.0000000   6.1614457  )
        24           Cu  tau(  24) = (   0.0000000   0.0000000   6.2300242  )
        25           Ba  tau(  25) = (   0.4999996   0.4877884   6.7476255  )
        26           O   tau(  26) = (   0.0000000   0.0000000   6.7722819  )
        27           Cu  tau(  27) = (   0.0000000   0.0000000   7.2579871  )
        28           O   tau(  28) = (   0.0000000   0.4877884   7.3053684  )

     number of k points=    25  Gaussian smearing, width (Ry)=  0.0100
                       cart. coord. in units 2pi/alat
        k(    1) = (   0.0000000   0.0000000   0.0000000), wk =   0.0312500
        k(    2) = (   0.0000000   0.1281293   0.0000000), wk =   0.0625000
        k(    3) = (   0.0000000   0.2562585   0.0000000), wk =   0.0625000
        k(    4) = (   0.0000000   0.3843878   0.0000000), wk =   0.0625000
        k(    5) = (   0.0000000  -0.5125170   0.0000000), wk =   0.0312500
        k(    6) = (   0.1250000   0.0000000   0.0000000), wk =   0.0625000
        k(    7) = (   0.1250000   0.1281293   0.0000000), wk =   0.1250000
        k(    8) = (   0.1250000   0.2562585   0.0000000), wk =   0.1250000
        k(    9) = (   0.1250000   0.3843878   0.0000000), wk =   0.1250000
        k(   10) = (   0.1250000  -0.5125170   0.0000000), wk =   0.0625000
        k(   11) = (   0.2500000   0.0000000   0.0000000), wk =   0.0625000
        k(   12) = (   0.2500000   0.1281293   0.0000000), wk =   0.1250000
        k(   13) = (   0.2500000   0.2562585   0.0000000), wk =   0.1250000
        k(   14) = (   0.2500000   0.3843878   0.0000000), wk =   0.1250000
        k(   15) = (   0.2500000  -0.5125170   0.0000000), wk =   0.0625000
        k(   16) = (   0.3750000   0.0000000   0.0000000), wk =   0.0625000
        k(   17) = (   0.3750000   0.1281293   0.0000000), wk =   0.1250000
        k(   18) = (   0.3750000   0.2562585   0.0000000), wk =   0.1250000
        k(   19) = (   0.3750000   0.3843878   0.0000000), wk =   0.1250000
        k(   20) = (   0.3750000  -0.5125170   0.0000000), wk =   0.0625000
        k(   21) = (  -0.5000000   0.0000000   0.0000000), wk =   0.0312500
        k(   22) = (  -0.5000000   0.1281293   0.0000000), wk =   0.0625000
        k(   23) = (  -0.5000000   0.2562585   0.0000000), wk =   0.0625000
        k(   24) = (  -0.5000000   0.3843878   0.0000000), wk =   0.0625000
        k(   25) = (  -0.5000000  -0.5125170   0.0000000), wk =   0.0312500

     Dense  grid:  1583993 G-vectors     FFT dimensions: (  64,  64, 800)

     Smooth grid:   304845 G-vectors     FFT dimensions: (  40,  36, 480)

     Estimated max dynamical RAM per process >     504.94 MB

     Estimated total dynamical RAM >       9.86 GB

     Initial potential from superposition of free atoms

     starting charge  228.84827, renormalised to  229.00000

     negative rho (up, down):  8.944E-02 0.000E+00
     Starting wfcs are  201 randomized atomic wfcs

     total cpu time spent up to now is       12.4 secs

     Self-consistent Calculation

     iteration #  1     ecut=    60.00 Ry     beta= 0.20
     Davidson diagonalization with overlap
     ethr =  1.00E-02,  avg # of iterations =  2.0

     negative rho (up, down):  8.737E-02 0.000E+00

     total cpu time spent up to now is       32.4 secs

     total energy              =   -1869.58151377 Ry
     Harris-Foulkes estimate   =   -1871.19997281 Ry
     estimated scf accuracy    <      16.00349089 Ry

     iteration #  2     ecut=    60.00 Ry     beta= 0.20
     Davidson diagonalization with overlap
     ethr =  6.99E-03,  avg # of iterations =  1.0

     negative rho (up, down):  8.630E-02 0.000E+00

     total cpu time spent up to now is       50.8 secs

     total energy              =   -1869.17221570 Ry
     Harris-Foulkes estimate   =   -1869.95575638 Ry
     estimated scf accuracy    <       5.95724944 Ry

     iteration #  3     ecut=    60.00 Ry     beta= 0.20
     Davidson diagonalization with overlap
     ethr =  2.60E-03,  avg # of iterations =  1.0

     negative rho (up, down):  8.585E-02 0.000E+00

     total cpu time spent up to now is       68.9 secs

     total energy              =   -1868.72787402 Ry
     Harris-Foulkes estimate   =   -1869.35346625 Ry
     estimated scf accuracy    <       4.23960659 Ry

     iteration #  4     ecut=    60.00 Ry     beta= 0.20
     Davidson diagonalization with overlap
     ethr =  1.85E-03,  avg # of iterations =  1.5

     negative rho (up, down):  8.597E-02 0.000E+00

     total cpu time spent up to now is       87.5 secs

     total energy              =   -1868.94740685 Ry
     Harris-Foulkes estimate   =   -1868.99150059 Ry
     estimated scf accuracy    <       2.67180922 Ry

     iteration #  5     ecut=    60.00 Ry     beta= 0.20
     Davidson diagonalization with overlap
     ethr =  1.17E-03,  avg # of iterations =  1.0

     negative rho (up, down):  8.671E-02 0.000E+00

     total cpu time spent up to now is      105.3 secs

     total energy              =   -1868.86867373 Ry
     Harris-Foulkes estimate   =   -1868.97740082 Ry
     estimated scf accuracy    <       1.84187436 Ry

     iteration #  6     ecut=    60.00 Ry     beta= 0.20
     Davidson diagonalization with overlap
     ethr =  8.04E-04,  avg # of iterations =  1.0

     negative rho (up, down):  8.800E-02 0.000E+00

     total cpu time spent up to now is      123.2 secs

     total energy              =   -1868.82637599 Ry
     Harris-Foulkes estimate   =   -1868.89383864 Ry
     estimated scf accuracy    <       1.08309078 Ry

     iteration #  7     ecut=    60.00 Ry     beta= 0.20
     Davidson diagonalization with overlap
     ethr =  4.73E-04,  avg # of iterations =  2.3

     negative rho (up, down):  8.916E-02 0.000E+00

     total cpu time spent up to now is      142.9 secs

     total energy              =   -1868.79601864 Ry
     Harris-Foulkes estimate   =   -1868.84449108 Ry
     estimated scf accuracy    <       0.62939052 Ry

     iteration #  8     ecut=    60.00 Ry     beta= 0.20
     Davidson diagonalization with overlap
     ethr =  2.75E-04,  avg # of iterations =  6.2

     negative rho (up, down):  9.006E-02 0.000E+00

     total cpu time spent up to now is      168.8 secs

     total energy              =   -1868.79623287 Ry
     Harris-Foulkes estimate   =   -1868.82132848 Ry
     estimated scf accuracy    <       0.40834361 Ry

     iteration #  9     ecut=    60.00 Ry     beta= 0.20
     Davidson diagonalization with overlap
     ethr =  1.78E-04,  avg # of iterations =  3.4

     negative rho (up, down):  9.069E-02 0.000E+00

     total cpu time spent up to now is      190.4 secs

     total energy              =   -1868.79525735 Ry
     Harris-Foulkes estimate   =   -1868.80615449 Ry
     estimated scf accuracy    <       0.39315116 Ry

     iteration # 10     ecut=    60.00 Ry     beta= 0.20
     Davidson diagonalization with overlap
     ethr =  1.72E-04,  avg # of iterations =  1.6

     negative rho (up, down):  9.083E-02 0.000E+00

     total cpu time spent up to now is      209.0 secs

     total energy              =   -1868.78447538 Ry
     Harris-Foulkes estimate   =   -1868.79848321 Ry
     estimated scf accuracy    <       0.28530551 Ry

     iteration # 11     ecut=    60.00 Ry     beta= 0.20
     Davidson diagonalization with overlap
     ethr =  1.25E-04,  avg # of iterations =  4.0

     negative rho (up, down):  9.299E-02 0.000E+00

     total cpu time spent up to now is      230.9 secs

     total energy              =   -1868.76673096 Ry
     Harris-Foulkes estimate   =   -1868.79102790 Ry
     estimated scf accuracy    <       0.15340192 Ry

     iteration # 12     ecut=    60.00 Ry     beta= 0.20
     Davidson diagonalization with overlap
     ethr =  6.70E-05,  avg # of iterations =  6.8

     negative rho (up, down):  9.260E-02 0.000E+00

     total cpu time spent up to now is      258.2 secs

     total energy              =   -1868.77322843 Ry
     Harris-Foulkes estimate   =   -1868.77793341 Ry
     estimated scf accuracy    <       0.11472046 Ry

     iteration # 13     ecut=    60.00 Ry     beta= 0.20
     Davidson diagonalization with overlap
     ethr =  5.01E-05,  avg # of iterations =  1.3

     negative rho (up, down):  9.382E-02 0.000E+00

     total cpu time spent up to now is      273.8 secs

     total energy              =   -1868.77314449 Ry
     Harris-Foulkes estimate   =   -1868.77516999 Ry
     estimated scf accuracy    <       0.05872862 Ry

     iteration # 14     ecut=    60.00 Ry     beta= 0.20
     Davidson diagonalization with overlap
     ethr =  2.56E-05,  avg # of iterations =  3.9

     negative rho (up, down):  9.279E-02 0.000E+00

     total cpu time spent up to now is      294.4 secs

     total energy              =   -1868.77333120 Ry
     Harris-Foulkes estimate   =   -1868.77421215 Ry
     estimated scf accuracy    <       0.03229687 Ry

     iteration # 15     ecut=    60.00 Ry     beta= 0.20
     Davidson diagonalization with overlap
     ethr =  1.41E-05,  avg # of iterations =  5.7

     negative rho (up, down):  9.162E-02 0.000E+00

     total cpu time spent up to now is      318.4 secs

     total energy              =   -1868.77338972 Ry
     Harris-Foulkes estimate   =   -1868.77409998 Ry
     estimated scf accuracy    <       0.01119284 Ry

     iteration # 16     ecut=    60.00 Ry     beta= 0.20
     Davidson diagonalization with overlap
     c_bands:  1 eigenvalues not converged
     ethr =  4.89E-06,  avg # of iterations =  6.4

     negative rho (up, down):  9.230E-02 0.000E+00

     total cpu time spent up to now is      343.2 secs

     total energy              =   -1868.77314598 Ry
     Harris-Foulkes estimate   =   -1868.77352342 Ry
     estimated scf accuracy    <       0.00819345 Ry

     iteration # 17     ecut=    60.00 Ry     beta= 0.20
     Davidson diagonalization with overlap
     ethr =  3.58E-06,  avg # of iterations =  4.2

     negative rho (up, down):  9.655E-02 0.000E+00

     total cpu time spent up to now is      365.2 secs

     total energy              =   -1868.77275617 Ry
     Harris-Foulkes estimate   =   -1868.77322446 Ry
     estimated scf accuracy    <       0.00693644 Ry

     iteration # 18     ecut=    60.00 Ry     beta= 0.20
     Davidson diagonalization with overlap
     ethr =  3.03E-06,  avg # of iterations =  8.4

     negative rho (up, down):  9.600E-02 0.000E+00

     total cpu time spent up to now is      394.5 secs

     total energy              =   -1868.77221888 Ry
     Harris-Foulkes estimate   =   -1868.77282630 Ry
     estimated scf accuracy    <       0.00668361 Ry

     iteration # 19     ecut=    60.00 Ry     beta= 0.20
     Davidson diagonalization with overlap
     ethr =  2.92E-06,  avg # of iterations =  3.5

     negative rho (up, down):  9.008E-02 0.000E+00

     total cpu time spent up to now is      415.9 secs

     total energy              =   -1868.77154648 Ry
     Harris-Foulkes estimate   =   -1868.77229288 Ry
     estimated scf accuracy    <       0.00740715 Ry

     iteration # 20     ecut=    60.00 Ry     beta= 0.20
     Davidson diagonalization with overlap
     c_bands:  1 eigenvalues not converged
     ethr =  2.92E-06,  avg # of iterations =  8.0

     negative rho (up, down):  8.978E-02 0.000E+00

     total cpu time spent up to now is      444.6 secs

     total energy              =   -1868.77112715 Ry
     Harris-Foulkes estimate   =   -1868.77160244 Ry
     estimated scf accuracy    <       0.00672651 Ry

     iteration # 21     ecut=    60.00 Ry     beta= 0.20
     Davidson diagonalization with overlap
     c_bands:  1 eigenvalues not converged
     ethr =  2.92E-06,  avg # of iterations =  6.9

     negative rho (up, down):  8.999E-02 0.000E+00

     total cpu time spent up to now is      471.8 secs

     total energy              =   -1868.77083454 Ry
     Harris-Foulkes estimate   =   -1868.77115734 Ry
     estimated scf accuracy    <       0.00674093 Ry

     iteration # 22     ecut=    60.00 Ry     beta= 0.20
     Davidson diagonalization with overlap
     ethr =  2.92E-06,  avg # of iterations =  3.4

     negative rho (up, down):  8.992E-02 0.000E+00

     total cpu time spent up to now is      492.8 secs

     total energy              =   -1868.77063580 Ry
     Harris-Foulkes estimate   =   -1868.77086160 Ry
     estimated scf accuracy    <       0.00485082 Ry

     iteration # 23     ecut=    60.00 Ry     beta= 0.20
     Davidson diagonalization with overlap
     ethr =  2.12E-06,  avg # of iterations =  5.9

     negative rho (up, down):  8.992E-02 0.000E+00

     total cpu time spent up to now is      517.3 secs

     total energy              =   -1868.77044387 Ry
     Harris-Foulkes estimate   =   -1868.77067246 Ry
     estimated scf accuracy    <       0.00396128 Ry

     iteration # 24     ecut=    60.00 Ry     beta= 0.20
     Davidson diagonalization with overlap
     ethr =  1.73E-06,  avg # of iterations =  3.6

     negative rho (up, down):  8.962E-02 0.000E+00

     total cpu time spent up to now is      538.9 secs

     total energy              =   -1868.76989196 Ry
     Harris-Foulkes estimate   =   -1868.77045525 Ry
     estimated scf accuracy    <       0.00370672 Ry

     iteration # 25     ecut=    60.00 Ry     beta= 0.20
     Davidson diagonalization with overlap
     ethr =  1.62E-06,  avg # of iterations =  7.2

     negative rho (up, down):  8.950E-02 0.000E+00

     total cpu time spent up to now is      566.6 secs

     total energy              =   -1868.76988187 Ry
     Harris-Foulkes estimate   =   -1868.76995940 Ry
     estimated scf accuracy    <       0.00229577 Ry

     iteration # 26     ecut=    60.00 Ry     beta= 0.20
     Davidson diagonalization with overlap
     ethr =  1.00E-06,  avg # of iterations =  3.7

     negative rho (up, down):  9.057E-02 0.000E+00

     total cpu time spent up to now is      588.4 secs

     total energy              =   -1868.76978823 Ry
     Harris-Foulkes estimate   =   -1868.76990549 Ry
     estimated scf accuracy    <       0.00094658 Ry

     iteration # 27     ecut=    60.00 Ry     beta= 0.20
     Davidson diagonalization with overlap
     ethr =  4.13E-07,  avg # of iterations =  5.2

     negative rho (up, down):  8.963E-02 0.000E+00

     total cpu time spent up to now is      612.9 secs

     total energy              =   -1868.76990882 Ry
     Harris-Foulkes estimate   =   -1868.76981643 Ry
     estimated scf accuracy    <       0.00061738 Ry

     iteration # 28     ecut=    60.00 Ry     beta= 0.20
     Davidson diagonalization with overlap
     ethr =  2.70E-07,  avg # of iterations =  3.2

     negative rho (up, down):  8.978E-02 0.000E+00

     total cpu time spent up to now is      634.1 secs

     total energy              =   -1868.76995277 Ry
     Harris-Foulkes estimate   =   -1868.76992197 Ry
     estimated scf accuracy    <       0.00050197 Ry

     iteration # 29     ecut=    60.00 Ry     beta= 0.20
     Davidson diagonalization with overlap
     ethr =  2.19E-07,  avg # of iterations =  2.7

     negative rho (up, down):  9.009E-02 0.000E+00

     total cpu time spent up to now is      654.4 secs

     total energy              =   -1868.76997510 Ry
     Harris-Foulkes estimate   =   -1868.76995867 Ry
     estimated scf accuracy    <       0.00033353 Ry

     iteration # 30     ecut=    60.00 Ry     beta= 0.20
     Davidson diagonalization with overlap
     ethr =  1.46E-07,  avg # of iterations =  4.1

     negative rho (up, down):  9.087E-02 0.000E+00

     total cpu time spent up to now is      676.8 secs

     total energy              =   -1868.76997752 Ry
     Harris-Foulkes estimate   =   -1868.76997916 Ry
     estimated scf accuracy    <       0.00022284 Ry

     iteration # 31     ecut=    60.00 Ry     beta= 0.20
     Davidson diagonalization with overlap
     ethr =  9.73E-08,  avg # of iterations =  1.1

     negative rho (up, down):  9.069E-02 0.000E+00

     total cpu time spent up to now is      695.2 secs

     total energy              =   -1868.76997584 Ry
     Harris-Foulkes estimate   =   -1868.76998104 Ry
     estimated scf accuracy    <       0.00009154 Ry

     iteration # 32     ecut=    60.00 Ry     beta= 0.20
     Davidson diagonalization with overlap
     ethr =  4.00E-08,  avg # of iterations =  2.5

     negative rho (up, down):  9.060E-02 0.000E+00

     total cpu time spent up to now is      715.1 secs

     total energy              =   -1868.76998291 Ry
     Harris-Foulkes estimate   =   -1868.76997884 Ry
     estimated scf accuracy    <       0.00006122 Ry

     iteration # 33     ecut=    60.00 Ry     beta= 0.20
     Davidson diagonalization with overlap
     ethr =  2.67E-08,  avg # of iterations =  1.5

     negative rho (up, down):  9.061E-02 0.000E+00

     total cpu time spent up to now is      733.3 secs

     total energy              =   -1868.76998539 Ry
     Harris-Foulkes estimate   =   -1868.76998477 Ry
     estimated scf accuracy    <       0.00004040 Ry

     iteration # 34     ecut=    60.00 Ry     beta= 0.20
     Davidson diagonalization with overlap
     ethr =  1.76E-08,  avg # of iterations =  1.1

     negative rho (up, down):  9.042E-02 0.000E+00

     total cpu time spent up to now is      749.4 secs

     total energy              =   -1868.76998479 Ry
     Harris-Foulkes estimate   =   -1868.76998590 Ry
     estimated scf accuracy    <       0.00002391 Ry

     iteration # 35     ecut=    60.00 Ry     beta= 0.20
     Davidson diagonalization with overlap
     ethr =  1.04E-08,  avg # of iterations =  2.2

     negative rho (up, down):  9.051E-02 0.000E+00

     total cpu time spent up to now is      768.6 secs

     total energy              =   -1868.76998539 Ry
     Harris-Foulkes estimate   =   -1868.76998577 Ry
     estimated scf accuracy    <       0.00000472 Ry

     iteration # 36     ecut=    60.00 Ry     beta= 0.20
     Davidson diagonalization with overlap
     ethr =  2.06E-09,  avg # of iterations =  2.1

     negative rho (up, down):  9.059E-02 0.000E+00

     total cpu time spent up to now is      787.8 secs

     total energy              =   -1868.76998566 Ry
     Harris-Foulkes estimate   =   -1868.76998574 Ry
     estimated scf accuracy    <       0.00000175 Ry

     iteration # 37     ecut=    60.00 Ry     beta= 0.20
     Davidson diagonalization with overlap
     ethr =  7.64E-10,  avg # of iterations =  2.0

     negative rho (up, down):  9.045E-02 0.000E+00

     total cpu time spent up to now is      805.8 secs

     End of self-consistent calculation

          k = 0.0000 0.0000 0.0000 ( 37989 PWs)   bands (ev):

   -38.5056 -38.1512 -24.4551 -23.1590 -23.1298 -23.0667 -19.0405 -18.6569
   -18.5099 -18.5006 -18.1746 -18.1574 -15.8354 -15.5484 -15.1414 -14.8762
   -14.6555 -14.6426 -14.6206 -14.4492 -14.4392 -14.3594 -14.1408 -14.1358
   -14.0951 -13.8883 -13.8735  -9.7704  -9.2856  -9.2625  -8.3840  -8.3448
    -8.3412  -8.1511  -8.1244  -8.1242  -8.0965  -8.0201  -7.9971  -2.4639
    -2.4297  -2.2979  -2.2495  -2.2436  -2.2421  -2.2388  -2.2064  -2.1739
    -2.0990  -2.0631  -1.8449  -1.7135  -1.3435  -1.2659  -0.9702  -0.9383
    -0.9011  -0.8483  -0.8403  -0.8116  -0.4926  -0.4513  -0.4492  -0.4148
    -0.4123  -0.3162  -0.2825  -0.2532  -0.2486  -0.2343  -0.1508  -0.0980
    -0.0924  -0.0801  -0.0443  -0.0085  -0.0001   0.0146   0.0266   0.0590
     0.1213   0.1511   0.1544   0.1630   0.1760   0.2784   0.2798   0.4381
     0.4866   0.5502   0.6901   0.6916   0.8473   0.8525   0.8748   0.9716
     0.9831   0.9960   1.0178   1.0200   1.0940   1.1216   1.1394   1.1822
     1.3601   1.3908   1.5452   1.5736   1.6034   1.6551   1.6912   1.8020
     1.8225   1.8282   1.9532   1.9637   2.0026   2.2865   2.2873   3.8052
     4.8451   4.9012   4.9367   5.4087   5.4833   5.9813   6.2957   6.3323
     6.5429   6.8993   7.2270   7.3100   7.5635   7.7788   7.7934   7.9708
     8.0983   8.2143

          k = 0.0000 0.1281 0.0000 ( 38019 PWs)   bands (ev):

   -38.5033 -38.1489 -24.4371 -23.1374 -23.1082 -23.0459 -19.0045 -18.6209
   -18.6049 -18.5067 -18.2621 -18.1714 -15.7265 -15.4491 -15.0957 -14.8846
   -14.6705 -14.6521 -14.5900 -14.4579 -14.4053 -14.4046 -14.1640 -14.1461
   -14.1421 -13.9532 -13.9003  -9.7562  -9.2973  -9.2297  -8.3661  -8.3307
    -8.3284  -8.1439  -8.1161  -8.1099  -8.0829  -8.0171  -7.9814  -2.5657
    -2.5395  -2.4899  -2.4145  -2.2438  -2.2247  -2.2229  -2.2087  -2.1405
    -2.1040  -2.0834  -1.8610  -1.8560  -1.6985  -1.3655  -1.3600  -1.2711
    -1.2119  -0.9061  -0.8679  -0.8159  -0.8030  -0.7606  -0.6682  -0.5637
    -0.5030  -0.4997  -0.4833  -0.4520  -0.3938  -0.3876  -0.2995  -0.2381
    -0.1331  -0.0945  -0.0876   0.0543   0.0595   0.1443   0.1600   0.1604
     0.1628   0.1769   0.2026   0.2422   0.3481   0.3732   0.4639   0.4661
     0.5232   0.5354   0.6545   0.7013   0.7479   0.7667   0.8010   0.9353
     0.9553   1.0701   1.1021   1.1204   1.1438   1.2494   1.2565   1.2899
     1.3379   1.4269   1.4571   1.5564   1.5794   1.6070   1.6613   1.7344
     1.7836   1.8198   2.0625   2.2086   2.4913   2.6080   2.6183   3.9863
     5.1623   5.2721   5.2815   5.6845   5.7444   6.1539   6.6112   6.6395
     6.7662   7.1006   7.3540   7.5531   7.7330   7.7583   7.9257   8.0162
     8.0363   8.1303

          k = 0.0000 0.2563 0.0000 ( 38042 PWs)   bands (ev):

   -38.4977 -38.1433 -24.3930 -23.0843 -23.0551 -22.9949 -18.9134 -18.8300
   -18.5351 -18.4990 -18.4820 -18.1636 -15.4783 -15.2334 -14.9765 -14.9601
   -14.7560 -14.7099 -14.5246 -14.5183 -14.4711 -14.3340 -14.2940 -14.1260
   -14.1233 -14.1059 -13.9371  -9.7161  -9.3253  -9.1486  -8.3243  -8.3020
    -8.2884  -8.1850  -8.1573  -8.0603  -8.0067  -7.9795  -7.8848  -2.9962
    -2.9070  -2.8844  -2.7662  -2.4786  -2.3920  -2.3842  -2.2728  -2.2023
    -2.1248  -2.1212  -2.0916  -2.0452  -2.0306  -1.8106  -1.7110  -1.6501
    -1.2610  -1.1669  -1.1608  -1.0759  -1.0103  -0.8919  -0.8664  -0.8109
    -0.7870  -0.7819  -0.7313  -0.7259  -0.6774  -0.5396  -0.4765  -0.4368
    -0.4314  -0.3139  -0.2519  -0.1273  -0.0606   0.0009   0.0269   0.1159
     0.1980   0.1983   0.2171   0.2272   0.3028   0.3811   0.5393   0.6257
     0.6473   0.7124   0.7977   0.8045   0.9153   0.9556   0.9805   1.0728
     1.1233   1.1262   1.1276   1.1793   1.2302   1.3359   1.3374   1.3427
     1.4269   1.4339   1.4399   1.5730   1.6774   1.7445   1.8673   1.8772
     1.8796   1.8810   2.2334   2.3547   2.9015   2.9136   3.3288   4.4651
     5.9238   6.1629   6.1641   6.3400   6.4097   6.4599   7.0525   7.4703
     7.5006   7.5280   7.6029   7.7364   7.9031   8.0479   8.1508   8.2728
     8.3802   8.4598

          k = 0.0000 0.3844 0.0000 ( 37942 PWs)   bands (ev):

   -38.4921 -38.1377 -24.3479 -23.0298 -23.0005 -22.9425 -19.0279 -18.8152
   -18.6892 -18.4912 -18.4271 -18.1557 -15.2283 -15.1030 -15.0618 -14.8605
   -14.8409 -14.8015 -14.6128 -14.5232 -14.5000 -14.4671 -14.2436 -14.1618
   -14.0716 -14.0643 -13.9631  -9.6646  -9.3572  -9.0642  -8.2858  -8.2668
    -8.2482  -8.2179  -8.1906  -8.1000  -7.8977  -7.8702  -7.7833  -3.5176
    -3.3501  -3.2820  -3.1255  -2.9509  -2.9481  -2.8081  -2.2999  -2.2955
    -2.2525  -2.1980  -2.0661  -1.9738  -1.9360  -1.9276  -1.9128  -1.5969
    -1.4374  -1.3305  -1.3121  -1.2245  -1.1942  -1.1303  -1.1289  -1.1038
    -0.9726  -0.9651  -0.8744  -0.8503  -0.8220  -0.7910  -0.6802  -0.6751
    -0.6149  -0.4800  -0.4296  -0.3004  -0.2939  -0.2454  -0.0591   0.0468
     0.1748   0.1924   0.2381   0.2410   0.2499   0.5159   0.5197   0.6616
     0.7249   0.7485   0.8389   0.8893   0.9979   1.0057   1.0556   1.0784
     1.1454   1.1682   1.1995   1.2894   1.3208   1.3634   1.5233   1.5980
     1.6156   1.7360   1.7486   1.7895   1.8452   1.8488   1.8890   1.9239
     2.2142   2.2836   2.2885   2.2956   2.8739   2.8826   3.8736   5.1073
     6.1106   6.8582   7.0385   7.0843   7.1353   7.2551   7.4904   7.6278
     7.7343   7.7880   8.1228   8.2878   8.3171   8.4817   8.5493   8.6783
     8.7477   8.8232

          k = 0.0000-0.5125 0.0000 ( 38102 PWs)   bands (ev):

   -38.4898 -38.1353 -24.3290 -23.0068 -22.9775 -22.9204 -19.1038 -18.7720
   -18.7651 -18.4880 -18.3839 -18.1525 -15.1833 -15.0966 -15.0463 -14.8860
   -14.8553 -14.7142 -14.6635 -14.6375 -14.5203 -14.4552 -14.2870 -14.0796
   -14.0330 -14.0327 -14.0053  -9.6381  -9.3739  -9.0282  -8.2711  -8.2485
    -8.2315  -8.2296  -8.2023  -8.1170  -7.8506  -7.8230  -7.7396  -3.7600
    -3.4975  -3.4336  -3.2591  -3.1868  -3.1799  -2.9411  -2.3345  -2.3298
    -2.3066  -2.2720  -2.0611  -2.0134  -1.9195  -1.8655  -1.7173  -1.6897
    -1.5032  -1.4317  -1.4134  -1.3558  -1.3139  -1.2504  -1.1320  -1.0769
    -1.0646  -1.0631  -0.9924  -0.9114  -0.8039  -0.7945  -0.7674  -0.7621
    -0.7056  -0.7029  -0.4776  -0.3700  -0.3666  -0.2875  -0.1284   0.1058
     0.1208   0.1629   0.1655   0.2469   0.2555   0.5059   0.6138   0.7169
     0.7496   0.7537   0.8176   0.9727   0.9806   1.0613   1.1188   1.1472
     1.1524   1.1554   1.1634   1.2759   1.3233   1.3577   1.6520   1.6737
     1.7460   1.7573   1.7715   1.8937   2.0001   2.0035   2.0869   2.1473
     2.1527   2.1538   2.4457   2.4509   2.7377   2.7452   4.0606   5.6515
     5.7687   7.1244   7.3463   7.4478   7.5440   7.5534   7.6519   7.6711
     7.7445   7.9343   8.3134   8.4897   8.6325   8.7234   8.8030   8.8526
     8.8909   8.9603

          k = 0.1250 0.0000 0.0000 ( 38032 PWs)   bands (ev):

   -38.5038 -38.1494 -24.4402 -23.1406 -23.1114 -23.0490 -19.0080 -18.6237
   -18.6099 -18.4981 -18.2765 -18.1549 -15.7200 -15.4396 -15.1666 -14.9023
   -14.7106 -14.6906 -14.5987 -14.4854 -14.4048 -14.3890 -14.1507 -14.1412
   -14.1386 -13.9238 -13.8824  -9.7914  -9.2591  -9.2215  -8.3942  -8.3602
    -8.3553  -8.1161  -8.0902  -8.0892  -8.0621  -7.9827  -7.9650  -2.5538
    -2.4676  -2.4480  -2.3803  -2.2319  -2.2066  -2.1994  -2.1954  -2.1632
    -2.1207  -2.0476  -1.8462  -1.8323  -1.3689  -1.2544  -0.9802  -0.9773
    -0.9556  -0.8681  -0.8428  -0.8348  -0.6918  -0.5477  -0.5359  -0.5300
    -0.5240  -0.4809  -0.4383  -0.4310  -0.3120  -0.3043  -0.2631  -0.2488
    -0.2024  -0.0288   0.0159   0.0245   0.0246   0.0922   0.1304   0.1348
     0.1401   0.1596   0.1632   0.1757   0.2740   0.2792   0.2956   0.3115
     0.5795   0.5896   0.6200   0.6346   0.7208   0.8143   0.8205   0.8637
     0.8650   0.8729   1.0227   1.0587   1.1154   1.1353   1.2143   1.3034
     1.3366   1.3855   1.4023   1.5732   1.6910   1.7128   1.7196   1.7488
     1.7916   1.8881   1.9546   2.0507   2.2312   2.3299   2.3309   3.9714
     5.0577   5.0923   5.1191   5.6430   5.7107   6.1141   6.5360   6.5666
     6.7309   7.0659   7.4642   7.5313   7.7485   7.7740   7.9381   8.0768
     8.1283   8.2414

          k = 0.1250 0.1281 0.0000 ( 38036 PWs)   bands (ev):

   -38.5015 -38.1471 -24.4227 -23.1197 -23.0906 -23.0289 -18.9725 -18.6139
   -18.5930 -18.5881 -18.2775 -18.2530 -15.6121 -15.3439 -15.1184 -14.9002
   -14.7105 -14.6872 -14.5709 -14.4429 -14.4423 -14.4239 -14.2001 -14.1406
   -14.1384 -13.9770 -13.9080  -9.7708  -9.4078  -9.1059  -8.3790  -8.3481
    -8.3436  -8.2638  -8.2360  -8.1357  -7.9663  -7.9389  -7.8449  -2.6602
    -2.6042  -2.5775  -2.4124  -2.2823  -2.2628  -2.2289  -2.2003  -2.1969
    -2.1437  -2.0437  -1.8987  -1.8703  -1.7886  -1.3611  -1.3542  -1.3240
    -1.1651  -1.0186  -0.9501  -0.9244  -0.8367  -0.8273  -0.7788  -0.7755
    -0.7115  -0.6886  -0.5167  -0.4974  -0.4699  -0.3141  -0.2436  -0.2151
    -0.1624  -0.1033  -0.0754   0.0199   0.0663   0.0825   0.1333   0.1340
     0.1754   0.2124   0.2148   0.2291   0.3183   0.3706   0.3825   0.4648
     0.4659   0.6054   0.6908   0.7612   0.8162   0.8237   0.8521   0.8685
     0.9223   0.9419   1.0775   1.1199   1.1449   1.1583   1.1926   1.3280
     1.3825   1.4065   1.4613   1.4865   1.5188   1.5451   1.6933   1.7811
     2.0984   2.1491   2.3080   2.5080   2.5173   2.6257   2.6300   4.1346
     5.3423   5.4155   5.4225   5.8826   5.9286   6.2499   6.8251   6.8518
     6.9179   7.2440   7.4547   7.6312   7.6926   7.8954   7.9540   8.0346
     8.1190   8.2770

          k = 0.1250 0.2563 0.0000 ( 38078 PWs)   bands (ev):

   -38.4960 -38.1415 -24.3798 -23.0686 -23.0393 -22.9795 -18.8826 -18.8255
   -18.5943 -18.5096 -18.4713 -18.2606 -15.3663 -15.1414 -14.9904 -14.9450
   -14.7437 -14.7109 -14.5273 -14.5077 -14.4959 -14.3310 -14.3294 -14.1170
   -14.1148 -14.1056 -13.9386  -9.7219  -9.5135  -9.0716  -8.3877  -8.3597
    -8.3241  -8.3114  -8.2893  -8.2462  -7.9222  -7.8949  -7.8083  -3.0960
    -2.9826  -2.9009  -2.7741  -2.5010  -2.4117  -2.3901  -2.3201  -2.2481
    -2.2121  -2.1779  -2.1151  -2.1133  -1.9840  -1.8614  -1.7491  -1.7164
    -1.3419  -1.2313  -1.2002  -1.1813  -1.1268  -1.1143  -1.0698  -0.9889
    -0.8764  -0.8327  -0.7778  -0.6688  -0.6496  -0.5778  -0.4830  -0.4282
    -0.2843  -0.2457  -0.2007  -0.0503   0.0053   0.0212   0.0817   0.0820
     0.1491   0.2056   0.2478   0.2487   0.3354   0.4029   0.4113   0.6015
     0.8200   0.8445   0.8605   0.8637   0.9165   1.0111   1.0168   1.0392
     1.0558   1.1478   1.1490   1.2129   1.2392   1.2616   1.3345   1.3353
     1.3700   1.4718   1.5245   1.5846   1.6760   1.8358   1.8494   1.8525
     2.3397   2.4064   2.5804   2.7444   2.9062   2.9324   3.3323   4.5949
     5.9786   6.2165   6.2194   6.3560   6.5142   6.5449   7.0669   7.4516
     7.5617   7.6706   7.6973   7.7391   7.8386   8.0616   8.1861   8.3898
     8.4233   8.4429

          k = 0.1250 0.3844 0.0000 ( 38067 PWs)   bands (ev):

   -38.4904 -38.1359 -24.3360 -23.0160 -22.9867 -22.9289 -19.0218 -18.7858
   -18.6831 -18.5844 -18.3971 -18.2507 -15.1264 -15.0585 -15.0043 -14.8288
   -14.7828 -14.7798 -14.5938 -14.5348 -14.4887 -14.4771 -14.2248 -14.1943
   -14.0669 -14.0603 -13.9539  -9.6712  -9.5229  -9.1257  -8.3924  -8.3649
    -8.2938  -8.2781  -8.2633  -8.2584  -7.9702  -7.9429  -7.8555  -3.5222
    -3.4451  -3.3708  -3.1781  -2.9443  -2.9379  -2.8488  -2.3320  -2.3147
    -2.2785  -2.1614  -2.1488  -2.0801  -2.0657  -1.8949  -1.8364  -1.7693
    -1.6460  -1.5561  -1.5124  -1.4105  -1.2995  -1.2632  -1.1997  -1.1125
    -1.0356  -0.8854  -0.8597  -0.8193  -0.7682  -0.7609  -0.7105  -0.6745
    -0.5467  -0.3377  -0.2443  -0.1490  -0.1255  -0.0017   0.0342   0.1061
     0.1905   0.2102   0.2426   0.2712   0.3469   0.3551   0.5520   0.6751
     0.7453   0.8684   0.8868   0.9001   1.0667   1.0681   1.1297   1.1348
     1.1769   1.2050   1.2131   1.2689   1.3295   1.4376   1.5096   1.5534
     1.6424   1.7643   1.7978   1.8635   1.8748   1.9214   2.2585   2.2625
     2.3680   2.4446   2.6012   2.7135   2.8982   2.9366   3.8732   5.2103
     5.9474   6.8218   6.9405   6.9698   7.0694   7.1483   7.3875   7.4290
     7.5333   7.9091   8.2219   8.2559   8.3245   8.5376   8.6371   8.7754
     8.8140   8.9176

          k = 0.1250-0.5125 0.0000 ( 38044 PWs)   bands (ev):

   -38.4881 -38.1335 -24.3176 -22.9939 -22.9645 -22.9076 -19.0974 -18.7586
   -18.7433 -18.5803 -18.3544 -18.2465 -15.1426 -15.0013 -14.9792 -14.8507
   -14.7567 -14.6694 -14.6432 -14.6362 -14.5164 -14.4912 -14.2616 -14.1155
   -14.0358 -14.0318 -13.9788  -9.6462  -9.5029  -9.1736  -8.3671  -8.3397
    -8.2816  -8.2611  -8.2473  -8.2441  -8.0182  -7.9909  -7.8984  -3.7504
    -3.6113  -3.5254  -3.3182  -3.1828  -3.1742  -2.9911  -2.3497  -2.3384
    -2.2871  -2.1823  -2.1012  -2.0276  -1.9681  -1.9178  -1.9014  -1.7981
    -1.7965  -1.7715  -1.5207  -1.4836  -1.4042  -1.3578  -1.2998  -1.1760
    -0.9969  -0.9538  -0.9304  -0.8736  -0.8105  -0.7653  -0.7559  -0.6944
    -0.6658  -0.3745  -0.2610  -0.2474  -0.1473  -0.0105  -0.0015   0.1235
     0.1879   0.2297   0.2308   0.2955   0.3240   0.3512   0.4158   0.7924
     0.8143   0.8680   0.9192   0.9557   1.0381   1.0481   1.1473   1.1667
     1.1883   1.2214   1.2481   1.2805   1.3108   1.4747   1.6092   1.7291
     1.7691   1.8651   1.9778   1.9868   2.1395   2.1459   2.3330   2.4096
     2.4251   2.4299   2.5186   2.5972   2.7948   2.8501   4.0583   5.5608
     5.8902   6.7890   7.1132   7.1627   7.2169   7.2369   7.3404   7.6205
     7.8868   8.0245   8.4294   8.6333   8.7412   8.7703   8.9093   8.9887
     9.0876   9.1474

          k = 0.2500 0.0000 0.0000 ( 38112 PWs)   bands (ev):

   -38.4995 -38.1450 -24.4036 -23.0954 -23.0661 -23.0056 -18.9263 -18.8247
   -18.5407 -18.4936 -18.4921 -18.1487 -15.4561 -15.2408 -15.2116 -15.0095
   -14.8424 -14.8016 -14.5903 -14.5616 -14.4247 -14.3168 -14.2844 -14.1386
   -14.1356 -13.9908 -13.8922  -9.8192  -9.1936  -9.1464  -8.4042  -8.3826
    -8.3666  -8.0461  -8.0194  -8.0049  -7.9766  -7.9199  -7.8851  -2.8616
    -2.7857  -2.7717  -2.3243  -2.2734  -2.2585  -2.2358  -2.2221  -2.1278
    -2.0903  -2.0366  -1.8042  -1.7866  -1.4420  -1.3470  -1.1590  -1.1087
    -1.0822  -1.0617  -0.9207  -0.9129  -0.8485  -0.8234  -0.8215  -0.7978
    -0.7366  -0.7366  -0.6947  -0.5408  -0.5387  -0.3758  -0.3378  -0.2851
    -0.2475  -0.1262  -0.1042  -0.0966  -0.0114  -0.0004   0.0726   0.0766
     0.1310   0.1392   0.2208   0.2900   0.3058   0.3077   0.3145   0.4047
     0.4250   0.4865   0.6597   0.7093   0.7418   0.7596   0.7714   0.8707
     0.9126   1.0174   1.0799   1.1041   1.1595   1.1773   1.2097   1.2121
     1.2975   1.3512   1.4267   1.5277   1.6268   1.6399   1.7338   1.7956
     1.8355   1.9028   2.0970   2.2401   2.3765   2.4677   2.5083   4.4051
     5.5396   5.5422   5.6013   6.2474   6.2894   6.4997   7.0863   7.1748
     7.2109   7.3923   7.6714   7.7285   7.8874   8.0266   8.1273   8.3085
     8.3910   8.5524

          k = 0.2500 0.1281 0.0000 ( 38100 PWs)   bands (ev):

   -38.4972 -38.1427 -24.3873 -23.0764 -23.0472 -22.9871 -18.8922 -18.8190
   -18.5921 -18.5088 -18.4855 -18.2491 -15.3509 -15.1843 -15.1323 -14.9822
   -14.8033 -14.7768 -14.5494 -14.5319 -14.4901 -14.3303 -14.2923 -14.1275
   -14.1252 -14.0198 -13.9150  -9.7995  -9.4458  -9.0428  -8.4079  -8.3825
    -8.3759  -8.2913  -8.2624  -8.1675  -7.8921  -7.8647  -7.7812  -3.0004
    -2.8848  -2.8171  -2.3795  -2.3560  -2.3199  -2.2902  -2.2472  -2.2136
    -2.2131  -1.9810  -1.9645  -1.8964  -1.7212  -1.4424  -1.3648  -1.3565
    -1.3498  -1.2292  -1.2099  -1.1814  -1.0960  -1.0518  -1.0256  -0.8959
    -0.8348  -0.8073  -0.7546  -0.6239  -0.5278  -0.3863  -0.2512  -0.2052
    -0.1493  -0.1380  -0.1185  -0.0420   0.0057   0.0076   0.0634   0.0900
     0.1178   0.1609   0.3310   0.3384   0.3464   0.3546   0.4448   0.4742
     0.4762   0.5759   0.6613   0.8483   0.8517   0.8983   0.9250   0.9483
     0.9973   1.0434   1.0460   1.0565   1.1455   1.1674   1.1713   1.2853
     1.3621   1.3641   1.4337   1.5732   1.6102   1.6207   1.6755   1.8092
     2.3933   2.4636   2.5497   2.6239   2.6660   2.7185   2.8661   4.5467
     5.7688   5.7837   5.7863   6.3497   6.4099   6.5431   7.0763   7.4075
     7.4215   7.4664   7.5120   7.7088   7.8498   7.9650   8.2688   8.3401
     8.4621   8.5962

          k = 0.2500 0.2563 0.0000 ( 38113 PWs)   bands (ev):

   -38.4916 -38.1371 -24.3475 -23.0299 -23.0006 -22.9419 -18.8258 -18.8061
   -18.7891 -18.4928 -18.4572 -18.4111 -15.1184 -15.0306 -14.9833 -14.9303
   -14.7270 -14.7151 -14.6328 -14.4754 -14.4655 -14.3613 -14.3244 -14.1001
   -14.0953 -14.0925 -13.9291  -9.7625  -9.6913  -9.1320  -8.5939  -8.5663
    -8.4615  -8.3405  -8.3179  -8.3076  -7.9894  -7.9620  -7.8778  -3.4208
    -3.2584  -3.0437  -2.7652  -2.6290  -2.4958  -2.4443  -2.4261  -2.3444
    -2.3330  -2.2066  -2.1260  -2.1238  -2.1236  -1.8627  -1.7926  -1.7589
    -1.6991  -1.6276  -1.6191  -1.2857  -1.2320  -1.1195  -1.1145  -1.0991
    -0.9817  -0.9050  -0.7628  -0.6993  -0.5976  -0.5488  -0.5247  -0.4501
    -0.4019  -0.2585  -0.1704  -0.0905  -0.0624   0.0740   0.1665   0.2027
     0.2996   0.3263   0.3312   0.3792   0.4249   0.4749   0.6868   0.8627
     0.8700   0.9211   0.9817   1.0085   1.0121   1.0188   1.0250   1.1068
     1.1395   1.1730   1.1763   1.1853   1.2291   1.3359   1.3948   1.4340
     1.5009   1.5794   1.6058   1.6531   1.7605   1.7767   1.7951   1.9032
     2.8758   2.8799   3.0062   3.0854   3.1952   3.3427   3.3783   4.9634
     5.7478   6.2958   6.3068   6.4812   6.7645   6.8617   7.0513   7.2471
     7.6100   7.7884   7.9539   7.9744   8.0153   8.3281   8.4193   8.5493
     8.6024   8.6950

          k = 0.2500 0.3844 0.0000 ( 38127 PWs)   bands (ev):

   -38.4861 -38.1316 -24.3068 -22.9824 -22.9530 -22.8957 -19.0074 -18.7892
   -18.7107 -18.6683 -18.4581 -18.3206 -14.9950 -14.8944 -14.8692 -14.8143
   -14.7059 -14.6831 -14.6409 -14.5524 -14.4222 -14.4122 -14.2322 -14.1792
   -14.0548 -14.0491 -13.9139  -9.8234  -9.6896  -9.3500  -8.7005  -8.6730
    -8.5601  -8.3200  -8.3049  -8.2860  -8.2261  -8.1990  -8.1008  -3.8352
    -3.6712  -3.4675  -3.3511  -3.0153  -2.9115  -2.9110  -2.5217  -2.4664
    -2.4246  -2.2338  -2.2292  -2.2236  -2.2150  -2.1044  -2.0548  -2.0095
    -1.8314  -1.6979  -1.6514  -1.4977  -1.3728  -1.2368  -1.2041  -1.0995
    -0.9890  -0.9438  -0.8918  -0.7636  -0.7399  -0.6989  -0.6840  -0.6326
    -0.4817  -0.4500  -0.2400  -0.0725   0.0315   0.0516   0.2426   0.2902
     0.3433   0.3948   0.4659   0.5187   0.5788   0.6804   0.9148   0.9376
     0.9479   0.9791   0.9824   1.1839   1.1884   1.2192   1.2236   1.3034
     1.3189   1.3431   1.3756   1.3860   1.4413   1.4486   1.5287   1.5997
     1.7091   1.7289   1.7675   1.8837   1.9034   1.9296   2.1925   2.1964
     2.8054   2.8065   3.2840   3.3781   3.4629   3.6239   3.8661   5.2469
     5.6521   6.4602   6.4784   6.6932   6.7231   6.8032   7.3608   7.5416
     7.6415   8.1148   8.3193   8.3608   8.4502   8.7507   8.8346   8.9985
     9.0881   9.1093

          k = 0.2500-0.5125 0.0000 ( 38142 PWs)   bands (ev):

   -38.4838 -38.1292 -24.2898 -22.9623 -22.9330 -22.8763 -19.0819 -18.7834
   -18.7428 -18.6700 -18.4524 -18.2796 -15.0393 -14.8822 -14.7632 -14.7178
   -14.6679 -14.6319 -14.6046 -14.5994 -14.5547 -14.4195 -14.1974 -14.1500
   -14.0333 -14.0283 -13.9134  -9.8112  -9.6711  -9.4889  -8.6851  -8.6575
    -8.5520  -8.3855  -8.3583  -8.3099  -8.2957  -8.2718  -8.2375  -3.9988
    -3.8376  -3.7035  -3.5160  -3.1909  -3.1504  -3.1371  -2.5149  -2.4582
    -2.3947  -2.3913  -2.2390  -2.2260  -2.2129  -2.1967  -2.1268  -2.0579
    -1.8593  -1.7349  -1.7144  -1.5268  -1.4422  -1.2573  -1.2425  -1.0752
    -1.0168  -0.9744  -0.9463  -0.8393  -0.7912  -0.7578  -0.6703  -0.6689
    -0.5328  -0.4654  -0.2548  -0.0700   0.0567   0.0923   0.3001   0.3351
     0.3543   0.4136   0.5135   0.5259   0.6551   0.7458   0.8151   1.0174
     1.0243   1.0606   1.0705   1.2184   1.2295   1.2757   1.2942   1.2961
     1.3228   1.3900   1.4066   1.4348   1.5019   1.5273   1.5937   1.7017
     1.7371   1.8251   1.9261   1.9389   2.1355   2.1406   2.3705   2.3750
     2.6478   2.6480   3.3415   3.4403   3.5172   3.6701   4.0425   5.0864
     6.1716   6.4130   6.4193   6.4791   6.6656   6.6989   7.1723   7.7551
     8.0112   8.2198   8.5686   8.7966   8.9269   8.9399   8.9785   9.1590
     9.2610   9.3063

          k = 0.3750 0.0000 0.0000 ( 38118 PWs)   bands (ev):

   -38.4951 -38.1406 -24.3664 -23.0491 -23.0197 -22.9611 -19.0138 -18.8377
   -18.6863 -18.4860 -18.4482 -18.1426 -15.3342 -15.2140 -15.1288 -15.1208
   -14.9180 -14.8626 -14.7107 -14.5720 -14.4187 -14.4044 -14.2262 -14.1268
   -14.1240 -14.0343 -13.9035  -9.8258  -9.1261  -9.0949  -8.4050  -8.3840
    -8.3682  -7.9868  -7.9605  -7.9155  -7.8869  -7.8804  -7.8018  -3.1850
    -3.1005  -3.0360  -2.6384  -2.3415  -2.3322  -2.2334  -2.0732  -2.0098
    -2.0079  -1.9497  -1.7979  -1.6901  -1.5325  -1.3943  -1.3300  -1.3084
    -1.2342  -1.1995  -1.1797  -1.1321  -1.1101  -1.0971  -0.9603  -0.9574
    -0.8420  -0.8147  -0.8060  -0.8007  -0.6042  -0.5829  -0.4843  -0.4024
    -0.3569  -0.3082  -0.3024  -0.2080  -0.0079   0.0321   0.0912   0.0977
     0.1174   0.1258   0.2203   0.3230   0.3494   0.3626   0.3706   0.4007
     0.4153   0.5301   0.5567   0.7140   0.8017   0.8730   0.8951   0.9047
     0.9525   1.0147   1.0998   1.1119   1.1579   1.1633   1.2020   1.2355
     1.4353   1.4835   1.5397   1.5479   1.5663   1.6093   1.7886   1.8527
     1.8987   1.9624   2.1240   2.2781   2.3581   2.5737   2.5880   5.0184
     6.0416   6.1787   6.1801   6.5801   6.8824   7.1465   7.2468   7.4695
     7.6789   7.6847   7.6921   7.9790   8.1247   8.3377   8.3727   8.4131
     8.5904   8.7456

          k = 0.3750 0.1281 0.0000 ( 38086 PWs)   bands (ev):

   -38.4928 -38.1383 -24.3514 -23.0321 -23.0027 -22.9444 -19.0066 -18.8047
   -18.6789 -18.5843 -18.4155 -18.2409 -15.2672 -15.1493 -15.0701 -15.0455
   -14.8743 -14.7926 -14.6574 -14.5368 -14.4849 -14.3806 -14.2160 -14.1118
   -14.1076 -14.0438 -13.9302  -9.8080  -9.3855  -9.1004  -8.4033  -8.3854
    -8.3699  -8.2336  -8.2058  -8.1105  -7.9481  -7.9207  -7.8425  -3.3332
    -3.2101  -3.0911  -2.6942  -2.3737  -2.3457  -2.2921  -2.2196  -2.1695
    -2.1439  -1.9464  -1.8939  -1.8917  -1.6973  -1.6693  -1.6078  -1.5620
    -1.5093  -1.3541  -1.3540  -1.2479  -1.1764  -1.1608  -1.1076  -1.0212
    -0.9428  -0.9083  -0.8802  -0.7226  -0.6948  -0.4690  -0.3857  -0.2980
    -0.2243  -0.2037  -0.1332  -0.0670  -0.0532   0.0104   0.0383   0.0608
     0.1287   0.2245   0.2984   0.4169   0.4169   0.4837   0.5049   0.5227
     0.5292   0.6147   0.7386   0.7973   0.8031   0.8877   0.9123   0.9721
     1.0208   1.0442   1.0887   1.1090   1.1682   1.2424   1.2483   1.2624
     1.4136   1.4582   1.5366   1.5753   1.5828   1.7761   1.7986   1.8217
     2.5020   2.5565   2.5782   2.6520   2.7044   2.8730   2.9819   5.1459
     5.9792   6.3015   6.3067   6.3907   6.9693   7.1217   7.3196   7.3371
     7.3871   7.7354   7.7535   7.8750   8.2100   8.4452   8.5542   8.6169
     8.6974   8.7995

          k = 0.3750 0.2563 0.0000 ( 38117 PWs)   bands (ev):

   -38.4873 -38.1328 -24.3147 -22.9905 -22.9612 -22.9036 -18.9891 -18.7995
   -18.7215 -18.6611 -18.4605 -18.3283 -15.0845 -15.0242 -14.9438 -14.8580
   -14.7365 -14.6809 -14.6503 -14.5456 -14.4524 -14.3261 -14.2014 -14.0827
   -14.0735 -14.0699 -13.9355  -9.8023  -9.7195  -9.3365  -8.6429  -8.6153
    -8.5149  -8.3591  -8.3326  -8.3259  -8.2168  -8.1898  -8.0988  -3.7729
    -3.5946  -3.3216  -2.9184  -2.7362  -2.5595  -2.5018  -2.4558  -2.3491
    -2.3442  -2.2316  -2.2154  -2.2067  -2.1352  -2.1300  -2.0560  -1.9797
    -1.7049  -1.6230  -1.6154  -1.4181  -1.2013  -1.1615  -1.0698  -1.0260
    -1.0008  -0.9671  -0.8457  -0.7228  -0.6406  -0.6010  -0.5626  -0.5411
    -0.3944  -0.3759  -0.2769   0.0163   0.0724   0.1167   0.2244   0.3401
     0.3936   0.4728   0.5010   0.5686   0.5758   0.7015   0.8762   0.9189
     0.9218   0.9805   1.0023   1.0639   1.0662   1.0790   1.1294   1.1430
     1.1834   1.2178   1.2967   1.2969   1.3180   1.3504   1.4108   1.5066
     1.6238   1.6554   1.6751   1.6794   1.7503   1.7911   1.8198   1.8566
     2.8770   2.8784   3.3438   3.4039   3.4725   3.5497   3.7150   5.3215
     5.5096   6.2751   6.2893   6.4754   6.7261   6.7534   7.4216   7.5550
     7.7093   7.9850   7.9955   8.0908   8.3434   8.6752   8.7171   8.8234
     8.9629   9.0378

          k = 0.3750 0.3844 0.0000 ( 38213 PWs)   bands (ev):

   -38.4818 -38.1272 -24.2773 -22.9481 -22.9187 -22.8620 -18.9941 -18.9687
   -18.6562 -18.6389 -18.6321 -18.2394 -14.9232 -14.8232 -14.8107 -14.8014
   -14.7234 -14.6148 -14.5642 -14.5483 -14.3774 -14.3254 -14.1303 -14.1022
   -14.0413 -14.0363 -13.8786 -10.0388  -9.7137  -9.6296  -8.9094  -8.8815
    -8.7659  -8.5456  -8.5189  -8.4065  -8.3497  -8.3276  -8.3134  -4.2249
    -4.0365  -3.6845  -3.3944  -3.2851  -2.8882  -2.8838  -2.6574  -2.6295
    -2.6095  -2.5438  -2.4166  -2.3005  -2.2397  -2.2348  -2.2204  -2.1280
    -1.7863  -1.7722  -1.5031  -1.3415  -1.3185  -1.2762  -1.1801  -1.1106
    -1.0761  -0.9519  -0.8881  -0.8364  -0.7888  -0.7695  -0.6774  -0.6146
    -0.5230  -0.3419  -0.3372   0.0346   0.1315   0.1815   0.4594   0.5073
     0.5968   0.6518   0.7655   0.8405   0.8903   1.0557   1.0764   1.0912
     1.1372   1.1638   1.1706   1.2728   1.3211   1.3338   1.3590   1.3738
     1.3863   1.4588   1.5033   1.5485   1.5731   1.5954   1.6586   1.6807
     1.7472   1.7498   1.8327   1.9171   1.9222   2.0012   2.1142   2.1176
     2.7954   2.7990   3.8441   3.9523   4.0320   4.0466   4.2109   4.7056
     5.9108   5.9227   6.0030   6.3807   6.4396   6.5952   7.3661   7.7834
     8.0383   8.2629   8.4126   8.5697   8.6387   8.6468   8.9814   8.9960
     9.0948   9.1996

          k = 0.3750-0.5125 0.0000 ( 38222 PWs)   bands (ev):

   -38.4795 -38.1249 -24.2617 -22.9303 -22.9009 -22.8445 -19.0663 -18.9634
   -18.7270 -18.6349 -18.5930 -18.2000 -14.9276 -14.8254 -14.7349 -14.6726
   -14.6347 -14.6243 -14.5759 -14.4714 -14.4281 -14.3485 -14.1274 -14.0412
   -14.0284 -14.0246 -13.8455 -10.1193  -9.7935  -9.6756  -8.9884  -8.9603
    -8.8466  -8.7007  -8.6742  -8.5472  -8.3479  -8.3202  -8.3078  -4.4059
    -4.2180  -3.8536  -3.6377  -3.4541  -3.1267  -3.1219  -2.7704  -2.6734
    -2.6288  -2.5565  -2.5491  -2.3116  -2.2356  -2.2299  -2.2200  -2.1776
    -1.8471  -1.7930  -1.5232  -1.4110  -1.3612  -1.2396  -1.1651  -1.1644
    -1.1219  -0.9775  -0.9624  -0.8667  -0.8519  -0.8502  -0.6745  -0.6565
    -0.5531  -0.3096  -0.3086   0.0422   0.1552   0.2109   0.4727   0.5730
     0.7492   0.7777   0.8333   0.9541   1.0061   1.1008   1.1384   1.1867
     1.1933   1.2138   1.2866   1.3451   1.4059   1.4180   1.4241   1.5157
     1.5488   1.5506   1.5698   1.5779   1.6370   1.6383   1.7003   1.7669
     1.8507   1.8669   1.9513   1.9913   2.1563   2.1595   2.3097   2.3142
     2.6233   2.6294   3.9886   4.1197   4.2047   4.2098   4.3681   4.4709
     5.7138   5.7249   6.2432   6.3651   6.3652   6.5240   7.1733   7.9310
     8.0194   8.4037   8.5981   8.6205   8.8302   8.8899   8.8956   9.0750
     9.2013   9.2541

          k =-0.5000 0.0000 0.0000 ( 38122 PWs)   bands (ev):

   -38.4933 -38.1388 -24.3508 -23.0296 -23.0002 -22.9424 -19.0859 -18.7993
   -18.7592 -18.4835 -18.4086 -18.1400 -15.3785 -15.2406 -15.1600 -15.0280
   -14.9827 -14.8060 -14.7545 -14.6081 -14.4455 -14.4058 -14.1935 -14.1184
   -14.1098 -14.0463 -13.9164  -9.8240  -9.0974  -9.0792  -8.4043  -8.3797
    -8.3673  -7.9640  -7.9379  -7.8772  -7.8689  -7.8485  -7.7662  -3.3085
    -3.2253  -3.1507  -2.7672  -2.3682  -2.3598  -2.2296  -2.0396  -2.0394
    -1.8763  -1.8444  -1.7885  -1.5829  -1.5739  -1.5733  -1.4553  -1.3863
    -1.3514  -1.2501  -1.2313  -1.2229  -1.1846  -1.0562  -1.0515  -1.0237
    -0.9320  -0.9152  -0.8190  -0.8085  -0.8001  -0.6226  -0.5115  -0.5060
    -0.4283  -0.3671  -0.3079  -0.2778   0.0145   0.0576   0.1052   0.1095
     0.1118   0.1202   0.1806   0.3382   0.3636   0.3775   0.3837   0.4437
     0.4437   0.4508   0.5648   0.8092   0.8469   0.8506   0.9047   0.9479
     0.9851   1.0547   1.0751   1.1461   1.1487   1.1824   1.1949   1.2457
     1.4971   1.5036   1.5242   1.5484   1.5841   1.6636   1.8815   1.8826
     1.9427   1.9726   2.1279   2.2661   2.3157   2.5811   2.5868   5.6446
     5.7827   6.5038   6.9213   6.9537   7.0285   7.0322   7.1997   7.4613
     7.5381   7.6670   7.6923   7.9598   8.3056   8.4658   8.5153   8.6613
     8.8082   8.8531

          k =-0.5000 0.1281 0.0000 ( 38100 PWs)   bands (ev):

   -38.4910 -38.1365 -24.3363 -23.0134 -22.9840 -22.9265 -19.0782 -18.7670
   -18.7513 -18.5811 -18.3767 -18.2374 -15.3072 -15.1904 -15.1048 -14.9411
   -14.9120 -14.7730 -14.6652 -14.5719 -14.4725 -14.4103 -14.1623 -14.1000
   -14.0923 -14.0487 -13.9547  -9.8055  -9.2898  -9.2024  -8.3984  -8.3780
    -8.3636  -8.0991  -8.0886  -8.0731  -8.0599  -7.9942  -7.9701  -3.4620
    -3.3410  -3.2139  -2.8295  -2.3879  -2.3674  -2.2865  -2.2110  -2.1341
    -1.9530  -1.9360  -1.9152  -1.8978  -1.7827  -1.7656  -1.7541  -1.6943
    -1.5441  -1.3613  -1.3558  -1.3082  -1.2748  -1.1290  -1.1132  -0.9812
    -0.9746  -0.9336  -0.8990  -0.8286  -0.7509  -0.5185  -0.4421  -0.3144
    -0.2768  -0.2509  -0.1930  -0.0835  -0.0768   0.0120   0.0314   0.0726
     0.1139   0.2683   0.3100   0.4094   0.4108   0.4953   0.4986   0.6054
     0.6127   0.6861   0.7088   0.7440   0.7996   0.9220   0.9262   0.9911
     1.0551   1.0863   1.0898   1.0989   1.1946   1.2094   1.2518   1.2522
     1.4574   1.5040   1.5351   1.5791   1.6507   1.7772   1.8492   1.9616
     2.5268   2.5688   2.5770   2.6459   2.6986   2.8962   2.9820   5.7277
     5.8748   6.0625   6.7500   6.7688   7.1568   7.1669   7.2970   7.3617
     7.3799   7.5479   7.8183   7.8821   8.4664   8.7056   8.7702   8.8356
     8.9075   8.9703

          k =-0.5000 0.2563 0.0000 ( 38154 PWs)   bands (ev):

   -38.4855 -38.1310 -24.3009 -22.9740 -22.9446 -22.8875 -19.0594 -18.7951
   -18.7323 -18.6853 -18.4555 -18.2914 -15.1163 -15.0572 -14.9585 -14.8321
   -14.6945 -14.6534 -14.6361 -14.5385 -14.4850 -14.3256 -14.0860 -14.0720
   -14.0598 -14.0541 -13.9820  -9.7705  -9.7040  -9.4944  -8.5652  -8.5367
    -8.4525  -8.4103  -8.3843  -8.3652  -8.3319  -8.3291  -8.2836  -3.9146
    -3.7357  -3.4572  -3.0627  -2.7230  -2.5744  -2.5130  -2.4463  -2.3862
    -2.3445  -2.3430  -2.2131  -2.2042  -2.1965  -2.1355  -2.1314  -2.0628
    -1.6995  -1.6788  -1.6015  -1.4046  -1.1829  -1.1607  -1.0275  -1.0087
    -0.9696  -0.9685  -0.8894  -0.7204  -0.6947  -0.6010  -0.5881  -0.5842
    -0.4007  -0.3833  -0.3095   0.0550   0.0730   0.2203   0.3038   0.4155
     0.4211   0.4609   0.5760   0.6075   0.6124   0.8174   0.8580   0.9576
     0.9650   1.0118   1.0244   1.0665   1.1637   1.1647   1.1784   1.1858
     1.2142   1.2337   1.2416   1.2714   1.3001   1.3946   1.5306   1.5921
     1.6185   1.6249   1.6495   1.6824   1.6976   1.8138   1.8171   1.9254
     2.8739   2.8740   3.3515   3.5114   3.5806   3.6450   3.8033   5.1328
     6.0841   6.0951   6.2344   6.2468   6.6338   6.6663   7.5289   7.7734
     8.0200   8.0917   8.1179   8.1237   8.5902   8.6211   8.8607   8.8782
     9.0540   9.0818

          k =-0.5000 0.3844 0.0000 ( 38246 PWs)   bands (ev):

   -38.4800 -38.1254 -24.2650 -22.9338 -22.9044 -22.8479 -19.0407 -18.9860
   -18.7132 -18.6465 -18.5977 -18.2039 -14.9485 -14.8224 -14.8062 -14.7788
   -14.7011 -14.6272 -14.5659 -14.4162 -14.4038 -14.2870 -14.1069 -14.0354
   -14.0306 -13.9989 -13.8826 -10.1004  -9.7814  -9.7088  -8.9587  -8.9305
    -8.8188  -8.7042  -8.6779  -8.5562  -8.3645  -8.3377  -8.3265  -4.3853
    -4.1923  -3.8243  -3.4258  -3.3823  -2.8774  -2.8720  -2.7729  -2.6906
    -2.6469  -2.5722  -2.5483  -2.3432  -2.2387  -2.2348  -2.2158  -2.1647
    -1.8323  -1.7653  -1.4264  -1.3318  -1.3316  -1.2466  -1.2338  -1.0697
    -1.0595  -1.0198  -0.8766  -0.8099  -0.8072  -0.8046  -0.6778  -0.6558
    -0.5635  -0.2904  -0.2892   0.0343   0.1717   0.2901   0.4993   0.6270
     0.7263   0.8722   0.8851   0.9976   1.0194   1.0723   1.1184   1.1632
     1.1861   1.2073   1.2268   1.3072   1.3182   1.4077   1.4362   1.4617
     1.4958   1.5188   1.5459   1.5498   1.6022   1.6093   1.6180   1.7104
     1.8468   1.8870   1.9147   1.9249   1.9474   1.9612   2.0778   2.0797
     2.7915   2.7971   3.8427   4.1744   4.2514   4.2551   4.4118   4.4629
     5.6725   5.6846   6.2202   6.3013   6.3812   6.4138   7.3921   7.9128
     8.0574   8.4009   8.4309   8.5701   8.6060   8.8283   8.9023   9.0461
     9.2040   9.2687

          k =-0.5000-0.5125 0.0000 ( 38244 PWs)   bands (ev):

   -38.4778 -38.1231 -24.2499 -22.9169 -22.8875 -22.8312 -19.0599 -19.0329
   -18.7205 -18.7053 -18.5594 -18.1654 -14.8910 -14.8782 -14.6662 -14.6360
   -14.6343 -14.6288 -14.6087 -14.3758 -14.3684 -14.3233 -14.0955 -14.0298
   -14.0228 -13.9653 -13.8167 -10.2481  -9.8997  -9.6895  -9.1108  -9.0825
    -8.9666  -8.8216  -8.7953  -8.6645  -8.3655  -8.3311  -8.3229  -4.5747
    -4.3808  -3.9929  -3.6289  -3.5946  -3.1154  -3.1097  -2.9042  -2.7184
    -2.6772  -2.6768  -2.5956  -2.3659  -2.2270  -2.2230  -2.2127  -2.2000
    -1.8822  -1.7831  -1.4476  -1.4102  -1.3296  -1.3082  -1.1972  -1.1245
    -1.1034  -1.0488  -0.9665  -0.8924  -0.8879  -0.7642  -0.6859  -0.6682
    -0.6458  -0.2493  -0.2461   0.0432   0.2145   0.3096   0.5165   0.6951
     0.9161   1.0023   1.0247   1.1255   1.1590   1.1842   1.2034   1.2107
     1.2243   1.2442   1.3303   1.3761   1.3868   1.4596   1.4758   1.6246
     1.6480   1.6581   1.6712   1.6761   1.6987   1.7072   1.7451   1.7544
     1.7560   2.0062   2.0998   2.1116   2.1745   2.1794   2.2824   2.2868
     2.6154   2.6243   3.9767   4.2063   4.3907   4.4781   4.4837   4.6251
     5.4231   5.4349   6.1118   6.2510   6.3838   6.5448   7.2963   7.9358
     8.0266   8.3423   8.5125   8.6057   8.6723   8.7757   8.8054   8.8553
     9.1119   9.1465

     the Fermi energy is     2.5854 ev

!    total energy              =   -1868.76998521 Ry
     Harris-Foulkes estimate   =   -1868.76998572 Ry
     estimated scf accuracy    <       0.00000092 Ry

     The total energy is the sum of the following terms:

     one-electron contribution =  -24916.30299217 Ry
     hartree contribution      =   12608.84250724 Ry
     xc contribution           =    -642.20253166 Ry
     ewald contribution        =   11080.90152882 Ry
     smearing contrib. (-TS)   =      -0.00849743 Ry

     convergence has been achieved in  37 iterations

     negative rho (up, down):  9.045E-02 0.000E+00

     Forces acting on atoms (cartesian axes, Ry/au):

     atom    1 type  3   force =     0.00000000    0.00000000   -0.00014561
     atom    2 type  2   force =     0.00000000    0.00000000    0.00007967
     atom    3 type  3   force =     0.00000000    0.00000000   -0.00017998
     atom    4 type  1   force =     0.00000000    0.00000000   -0.00020414
     atom    5 type  2   force =     0.00000000    0.00000000   -0.00067563
     atom    6 type  3   force =     0.00000000    0.00000000    0.00036374
     atom    7 type  3   force =     0.00000000    0.00000000   -0.00010681
     atom    8 type  4   force =     0.00000000    0.00000000   -0.00093939
     atom    9 type  3   force =     0.00000000    0.00000000    0.00118874
     atom   10 type  3   force =     0.00000000    0.00000000    0.00153692
     atom   11 type  2   force =     0.00000000    0.00000000   -0.00165124
     atom   12 type  1   force =     0.00000000    0.00000000   -0.00542149
     atom   13 type  3   force =     0.00000000    0.00000000    0.00299770
     atom   14 type  3   force =     0.00000000    0.00000000    0.01692262
     atom   15 type  2   force =     0.00000000    0.00000000   -0.01371656
     atom   16 type  3   force =     0.00000000    0.00000000    0.04110442
     atom   17 type  1   force =     0.00000000    0.00000000   -0.03946238
     atom   18 type  2   force =     0.00000000    0.00000000    0.00183953
     atom   19 type  3   force =     0.00000000    0.00000000    0.01838469
     atom   20 type  3   force =     0.00000000    0.00000000    0.00979038
     atom   21 type  4   force =     0.00000000    0.00000000   -0.04243456
     atom   22 type  3   force =     0.00000000    0.00000000    0.00399335
     atom   23 type  3   force =     0.00000000    0.00000000    0.00673876
     atom   24 type  2   force =     0.00000000    0.00000000    0.00233901
     atom   25 type  1   force =     0.00000000    0.00000000   -0.00192409
     atom   26 type  3   force =     0.00000000    0.00000000    0.00134901
     atom   27 type  2   force =     0.00000000    0.00000000   -0.00201415
     atom   28 type  3   force =     0.00000000    0.00000000    0.00024752

     Total force =     0.077989     Total SCF correction =     0.004502


     Computing stress (Cartesian axis) and pressure


     negative rho (up, down):  9.045E-02 0.000E+00
          total   stress  (Ry/bohr**3)                   (kbar)     P=       -7.08
  -0.00008289   0.00000000   0.00000000          -12.19        0.00        0.00
   0.00000000  -0.00004016   0.00000000            0.00       -5.91        0.00
   0.00000000   0.00000000  -0.00002131            0.00        0.00       -3.13

 
     init_run     :     10.79s CPU     11.41s WALL (       1 calls)
     electrons    :    741.69s CPU    793.48s WALL (       1 calls)
     forces       :      4.43s CPU      4.84s WALL (       1 calls)
     stress       :     44.17s CPU     45.56s WALL (       1 calls)

     Called by init_run:
     wfcinit      :      7.79s CPU      7.97s WALL (       1 calls)
     potinit      :      0.77s CPU      0.78s WALL (       1 calls)
     hinit0       :      1.12s CPU      1.15s WALL (       1 calls)

     Called by electrons:
     c_bands      :    577.11s CPU    599.53s WALL (      37 calls)
     sum_band     :    109.49s CPU    125.71s WALL (      37 calls)
     v_of_rho     :      6.29s CPU      6.37s WALL (      38 calls)
     newd         :     20.64s CPU     33.65s WALL (      38 calls)
     mix_rho      :     28.08s CPU     28.44s WALL (      37 calls)

     Called by c_bands:
     init_us_2    :      4.26s CPU      4.36s WALL (    1925 calls)
     cegterg      :    542.77s CPU    564.39s WALL (     925 calls)

     Called by sum_band:
     sum_band:bec :      0.26s CPU      0.27s WALL (     925 calls)
     addusdens    :     21.60s CPU     36.33s WALL (      37 calls)

     Called by *egterg:
     h_psi        :    253.25s CPU    265.45s WALL (    4241 calls)
     s_psi        :     25.19s CPU     25.70s WALL (    4241 calls)
     g_psi        :      0.74s CPU      0.76s WALL (    3291 calls)
     cdiaghg      :    134.71s CPU    136.07s WALL (    4216 calls)

     Called by h_psi:
     h_psi:calbec :     33.17s CPU     34.57s WALL (    4241 calls)
     vloc_psi     :    192.36s CPU    196.66s WALL (    4241 calls)
     add_vuspsi   :     26.22s CPU     30.02s WALL (    4241 calls)

     General routines
     calbec       :     73.77s CPU     75.54s WALL (    5291 calls)
     fft          :      6.29s CPU      6.35s WALL (     517 calls)
     ffts         :     13.60s CPU     13.78s WALL (   15825 calls)
     fftw         :    226.39s CPU    231.31s WALL (  662502 calls)
     interpolate  :      0.41s CPU      0.42s WALL (      38 calls)
 
     Parallel routines
     fft_scatt_xy :     27.30s CPU     27.87s WALL (  678844 calls)
     fft_scatt_yz :    153.34s CPU    156.46s WALL (  678844 calls)
 
     PWSCF        :  13m22.00s CPU  14m16.28s WALL

 
   This run was terminated on:  17:43:36   5May2021            

=------------------------------------------------------------------------------=
   JOB DONE.
=------------------------------------------------------------------------------=
[1620251016.567153] [holy7c08308:175845:0]          mpool.c:43   UCX  WARN  object 0x3224900 was not returned to mpool ucp_requests
[1620251016.570778] [holy7c08503:125137:0]          mpool.c:43   UCX  WARN  object 0x29af480 was not returned to mpool ucp_requests
[1620251016.570796] [holy7c08503:125137:0]          mpool.c:43   UCX  WARN  object 0x29af9c0 was not returned to mpool ucp_requests
[1620251016.569122] [holy7c08403:111181:0]          mpool.c:43   UCX  WARN  object 0x4059680 was not returned to mpool ucp_requests
[1620251016.569143] [holy7c08403:111181:0]          mpool.c:43   UCX  WARN  object 0x4059a00 was not returned to mpool ucp_requests
[1620251016.574434] [holy7c08306:118349:0]          mpool.c:43   UCX  WARN  object 0x456db80 was not returned to mpool ucp_requests
[1620251016.574455] [holy7c08306:118349:0]          mpool.c:43   UCX  WARN  object 0x456e0c0 was not returned to mpool ucp_requests
[1620251016.576495] [holy7c08605:194961:0]          mpool.c:43   UCX  WARN  object 0x29d2f40 was not returned to mpool ucp_requests
[1620251016.568931] [holy7c08503:125138:0]          mpool.c:43   UCX  WARN  object 0x318e600 was not returned to mpool ucp_requests
