
     Program PWSCF v.6.5 starts on  5May2021 at 17:15:50 

     This program is part of the open-source Quantum ESPRESSO suite
     for quantum simulation of materials; please cite
         "P. Giannozzi et al., J. Phys.:Condens. Matter 21 395502 (2009);
         "P. Giannozzi et al., J. Phys.:Condens. Matter 29 465901 (2017);
          URL http://www.quantum-espresso.org", 
     in publications or presentations arising from this work. More details at
     http://www.quantum-espresso.org/quote

     Parallel version (MPI), running on    20 processors

     MPI processes distributed on    12 nodes
     R & G space division:  proc/nbgrp/npool/nimage =      20
     Reading input from YBCO_CuO_cleave_3.0_sep_scf.pwi
Warning: card &IONS ignored
Warning: card     ION_DYNAMICS = 'BFGS' ignored
Warning: card / ignored
Warning: card &CELL ignored
Warning: card     CELL_DYNAMICS = 'BFGS' ignored
Warning: card / ignored

     Current dimensions of program PWSCF are:
     Max number of different atomic species (ntypx) = 10
     Max number of k-points (npk) =  40000
     Max angular momentum in pseudopotentials (lmaxx) =  3

     Subspace diagonalization in iterative solution of the eigenvalue problem:
     one sub-group per band group will be used
     scalapack distributed-memory algorithm (size of sub-group:  4*  4 procs)

     Message from routine setup:
     using ibrav=0 with symmetry is DISCOURAGED, use correct ibrav instead
 
     Parallelization info
     --------------------
     sticks:   dense  smooth     PW     G-vecs:    dense   smooth      PW
     Min         150      50     14                75932    14604    2278
     Max         151      51     15                75973    14629    2325
     Sum        3015    1011    293              1519021   292277   46055
 


     bravais-lattice index     =            0
     lattice parameter (alat)  =       7.3477  a.u.
     unit-cell volume          =    4655.3630 (a.u.)^3
     number of atoms/cell      =           28
     number of atomic types    =            4
     number of electrons       =       229.00
     number of Kohn-Sham states=          138
     kinetic-energy cutoff     =      60.0000  Ry
     charge density cutoff     =     720.0000  Ry
     convergence threshold     =      1.0E-06
     mixing beta               =       0.2000
     number of iterations used =           10  local-TF  mixing
     Exchange-correlation= SLA PW PBE PBE
                           (   1   4   3   4   0   0   0)

     celldm(1)=   7.347715  celldm(2)=   0.000000  celldm(3)=   0.000000
     celldm(4)=   0.000000  celldm(5)=   0.000000  celldm(6)=   0.000000

     crystal axes: (cart. coord. in units of alat)
               a(1) = (   1.000000   0.000000   0.000000 )  
               a(2) = (   0.000000   0.975577   0.000000 )  
               a(3) = (   0.000000   0.000000  12.029150 )  

     reciprocal axes: (cart. coord. in units 2 pi/alat)
               b(1) = (  1.000000  0.000000  0.000000 )  
               b(2) = (  0.000000  1.025034  0.000000 )  
               b(3) = (  0.000000  0.000000  0.083131 )  


     PseudoPot. # 1 for Ba read from file:
     /n/holyscratch01/hoffman_lab/ruizhe/YBCO_Project/pseudo/Ba.pbe-nsp-van.UPF
     MD5 check sum: 2b9c31dd849566dd297d80989662b7a0
     Pseudo is Ultrasoft + core correction, Zval = 10.0
     Generated by new atomic code, or converted to UPF format
     Using radial grid of  907 points,  6 beta functions with: 
                l(1) =   0
                l(2) =   0
                l(3) =   1
                l(4) =   1
                l(5) =   2
                l(6) =   2
     Q(r) pseudized with  6 coefficients,  rinner =    1.200   1.200   1.200
                                                       1.200   1.200

     PseudoPot. # 2 for Cu read from file:
     /n/holyscratch01/hoffman_lab/ruizhe/YBCO_Project/pseudo/Cu.pbe-n-van_ak.UPF
     MD5 check sum: 34e3282627ffb533726feb647e090d62
     Pseudo is Ultrasoft + core correction, Zval = 11.0
     Generated by new atomic code, or converted to UPF format
     Using radial grid of  867 points,  6 beta functions with: 
                l(1) =   0
                l(2) =   0
                l(3) =   1
                l(4) =   1
                l(5) =   2
                l(6) =   2
     Q(r) pseudized with  8 coefficients,  rinner =    1.400   1.400   1.400
                                                       1.400   1.400

     PseudoPot. # 3 for O  read from file:
     /n/holyscratch01/hoffman_lab/ruizhe/YBCO_Project/pseudo/O.pbe-van_ak.UPF
     MD5 check sum: 783ce7fe4c79b6a4916957118fed0856
     Pseudo is Ultrasoft, Zval =  6.0
     Generated by new atomic code, or converted to UPF format
     Using radial grid of  737 points,  4 beta functions with: 
                l(1) =   0
                l(2) =   0
                l(3) =   1
                l(4) =   1
     Q(r) pseudized with  8 coefficients,  rinner =    0.800   0.800   0.800


     PseudoPot. # 4 for Y  read from file:
     /n/holyscratch01/hoffman_lab/ruizhe/YBCO_Project/pseudo/Y.pbe-nsp-van.UPF
     MD5 check sum: 4412fed3ab108fed87a1b7d6a69a4a38
     Pseudo is Ultrasoft + core correction, Zval = 11.0
     Generated by new atomic code, or converted to UPF format
     Using radial grid of  885 points,  6 beta functions with: 
                l(1) =   0
                l(2) =   0
                l(3) =   1
                l(4) =   1
                l(5) =   2
                l(6) =   2
     Q(r) pseudized with  6 coefficients,  rinner =    1.200   1.200   1.200
                                                       1.200   1.200

     atomic species   valence    mass     pseudopotential
        Ba            10.00   137.32700     Ba( 1.00)
        Cu            11.00    63.54600     Cu( 1.00)
        O              6.00    15.99900     O ( 1.00)
        Y             11.00    88.90584     Y ( 1.00)

      4 Sym. Ops. (no inversion) found



   Cartesian axes

     site n.     atom                  positions (alat units)
         1           O   tau(   1) = (   0.0000000   0.4877884  -0.0257983  )
         2           Cu  tau(   2) = (   0.0000000   0.0000000   0.0215779  )
         3           O   tau(   3) = (   0.0000000   0.0000000   0.5073114  )
         4           Ba  tau(   4) = (   0.4999996   0.4877884   0.5319677  )
         5           Cu  tau(   5) = (   0.0000000   0.0000000   1.0495845  )
         6           O   tau(   6) = (   0.4999996   0.0000000   1.1181579  )
         7           O   tau(   7) = (   0.0000000   0.4877884   1.1273137  )
         8           Y   tau(   8) = (   0.4999996   0.4877884   1.4938777  )
         9           O   tau(   9) = (   0.0000000   0.4877884   1.8497402  )
        10           O   tau(  10) = (   0.4999996   0.0000000   1.8692709  )
        11           Cu  tau(  11) = (   0.0000000   0.0000000   1.9417560  )
        12           Ba  tau(  12) = (   0.4999996   0.4877884   2.4526063  )
        13           O   tau(  13) = (   0.0000000   0.0000000   2.5103470  )
        14           O   tau(  14) = (   0.0000000   0.4877884   2.9968469  )
        15           Cu  tau(  15) = (   0.0000000   0.0000000   2.9968521  )
        16           O   tau(  16) = (   0.0000000   0.0000000   4.2548855  )
        17           Ba  tau(  17) = (   0.4999996   0.4877884   4.3126185  )
        18           Cu  tau(  18) = (   0.0000000   0.0000000   4.8234918  )
        19           O   tau(  19) = (   0.4999996   0.0000000   4.8959642  )
        20           O   tau(  20) = (   0.0000000   0.4877884   4.9154768  )
        21           Y   tau(  21) = (   0.4999996   0.4877884   5.2713419  )
        22           O   tau(  22) = (   0.0000000   0.4877884   5.6379059  )
        23           O   tau(  23) = (   0.4999996   0.0000000   5.6470746  )
        24           Cu  tau(  24) = (   0.0000000   0.0000000   5.7156531  )
        25           Ba  tau(  25) = (   0.4999996   0.4877884   6.2332544  )
        26           O   tau(  26) = (   0.0000000   0.0000000   6.2579108  )
        27           Cu  tau(  27) = (   0.0000000   0.0000000   6.7436160  )
        28           O   tau(  28) = (   0.0000000   0.4877884   6.7909973  )

     number of k points=    25  Gaussian smearing, width (Ry)=  0.0100
                       cart. coord. in units 2pi/alat
        k(    1) = (   0.0000000   0.0000000   0.0000000), wk =   0.0312500
        k(    2) = (   0.0000000   0.1281293   0.0000000), wk =   0.0625000
        k(    3) = (   0.0000000   0.2562585   0.0000000), wk =   0.0625000
        k(    4) = (   0.0000000   0.3843878   0.0000000), wk =   0.0625000
        k(    5) = (   0.0000000  -0.5125170   0.0000000), wk =   0.0312500
        k(    6) = (   0.1250000   0.0000000   0.0000000), wk =   0.0625000
        k(    7) = (   0.1250000   0.1281293   0.0000000), wk =   0.1250000
        k(    8) = (   0.1250000   0.2562585   0.0000000), wk =   0.1250000
        k(    9) = (   0.1250000   0.3843878   0.0000000), wk =   0.1250000
        k(   10) = (   0.1250000  -0.5125170   0.0000000), wk =   0.0625000
        k(   11) = (   0.2500000   0.0000000   0.0000000), wk =   0.0625000
        k(   12) = (   0.2500000   0.1281293   0.0000000), wk =   0.1250000
        k(   13) = (   0.2500000   0.2562585   0.0000000), wk =   0.1250000
        k(   14) = (   0.2500000   0.3843878   0.0000000), wk =   0.1250000
        k(   15) = (   0.2500000  -0.5125170   0.0000000), wk =   0.0625000
        k(   16) = (   0.3750000   0.0000000   0.0000000), wk =   0.0625000
        k(   17) = (   0.3750000   0.1281293   0.0000000), wk =   0.1250000
        k(   18) = (   0.3750000   0.2562585   0.0000000), wk =   0.1250000
        k(   19) = (   0.3750000   0.3843878   0.0000000), wk =   0.1250000
        k(   20) = (   0.3750000  -0.5125170   0.0000000), wk =   0.0625000
        k(   21) = (  -0.5000000   0.0000000   0.0000000), wk =   0.0312500
        k(   22) = (  -0.5000000   0.1281293   0.0000000), wk =   0.0625000
        k(   23) = (  -0.5000000   0.2562585   0.0000000), wk =   0.0625000
        k(   24) = (  -0.5000000   0.3843878   0.0000000), wk =   0.0625000
        k(   25) = (  -0.5000000  -0.5125170   0.0000000), wk =   0.0312500

     Dense  grid:  1519021 G-vectors     FFT dimensions: (  64,  64, 768)

     Smooth grid:   292277 G-vectors     FFT dimensions: (  40,  36, 450)

     Estimated max dynamical RAM per process >     484.76 MB

     Estimated total dynamical RAM >       9.47 GB

     Initial potential from superposition of free atoms

     starting charge  228.84827, renormalised to  229.00000

     negative rho (up, down):  8.959E-02 0.000E+00
     Starting wfcs are  201 randomized atomic wfcs

     total cpu time spent up to now is       10.9 secs

     Self-consistent Calculation

     iteration #  1     ecut=    60.00 Ry     beta= 0.20
     Davidson diagonalization with overlap
     ethr =  1.00E-02,  avg # of iterations =  2.0

     negative rho (up, down):  8.742E-02 0.000E+00

     total cpu time spent up to now is       27.5 secs

     total energy              =   -1869.51269777 Ry
     Harris-Foulkes estimate   =   -1871.09402454 Ry
     estimated scf accuracy    <      13.35717610 Ry

     iteration #  2     ecut=    60.00 Ry     beta= 0.20
     Davidson diagonalization with overlap
     ethr =  5.83E-03,  avg # of iterations =  1.0

     negative rho (up, down):  8.616E-02 0.000E+00

     total cpu time spent up to now is       41.9 secs

     total energy              =   -1868.86960828 Ry
     Harris-Foulkes estimate   =   -1869.86613383 Ry
     estimated scf accuracy    <       5.81717956 Ry

     iteration #  3     ecut=    60.00 Ry     beta= 0.20
     Davidson diagonalization with overlap
     ethr =  2.54E-03,  avg # of iterations =  1.0

     negative rho (up, down):  8.576E-02 0.000E+00

     total cpu time spent up to now is       56.9 secs

     total energy              =   -1868.70028195 Ry
     Harris-Foulkes estimate   =   -1869.14834406 Ry
     estimated scf accuracy    <       4.13661644 Ry

     iteration #  4     ecut=    60.00 Ry     beta= 0.20
     Davidson diagonalization with overlap
     ethr =  1.81E-03,  avg # of iterations =  1.7

     negative rho (up, down):  8.598E-02 0.000E+00

     total cpu time spent up to now is       72.2 secs

     total energy              =   -1868.83267877 Ry
     Harris-Foulkes estimate   =   -1868.91104351 Ry
     estimated scf accuracy    <       2.21725977 Ry

     iteration #  5     ecut=    60.00 Ry     beta= 0.20
     Davidson diagonalization with overlap
     ethr =  9.68E-04,  avg # of iterations =  1.0

     negative rho (up, down):  8.658E-02 0.000E+00

     total cpu time spent up to now is       87.0 secs

     total energy              =   -1868.79841685 Ry
     Harris-Foulkes estimate   =   -1868.87380966 Ry
     estimated scf accuracy    <       1.12295728 Ry

     iteration #  6     ecut=    60.00 Ry     beta= 0.20
     Davidson diagonalization with overlap
     ethr =  4.90E-04,  avg # of iterations =  1.0

     negative rho (up, down):  8.724E-02 0.000E+00

     total cpu time spent up to now is      101.4 secs

     total energy              =   -1868.75927330 Ry
     Harris-Foulkes estimate   =   -1868.81714158 Ry
     estimated scf accuracy    <       0.43105002 Ry

     iteration #  7     ecut=    60.00 Ry     beta= 0.20
     Davidson diagonalization with overlap
     ethr =  1.88E-04,  avg # of iterations =  6.6

     negative rho (up, down):  8.787E-02 0.000E+00

     total cpu time spent up to now is      122.9 secs

     total energy              =   -1868.74996919 Ry
     Harris-Foulkes estimate   =   -1868.77493720 Ry
     estimated scf accuracy    <       0.29400431 Ry

     iteration #  8     ecut=    60.00 Ry     beta= 0.20
     Davidson diagonalization with overlap
     ethr =  1.28E-04,  avg # of iterations =  3.8

     negative rho (up, down):  8.909E-02 0.000E+00

     total cpu time spent up to now is      140.8 secs

     total energy              =   -1868.74157256 Ry
     Harris-Foulkes estimate   =   -1868.77012268 Ry
     estimated scf accuracy    <       0.51665417 Ry

     iteration #  9     ecut=    60.00 Ry     beta= 0.20
     Davidson diagonalization with overlap
     ethr =  1.28E-04,  avg # of iterations =  3.5

     negative rho (up, down):  8.954E-02 0.000E+00

     total cpu time spent up to now is      158.6 secs

     total energy              =   -1868.74696414 Ry
     Harris-Foulkes estimate   =   -1868.74993931 Ry
     estimated scf accuracy    <       0.40591411 Ry

     iteration # 10     ecut=    60.00 Ry     beta= 0.20
     Davidson diagonalization with overlap
     ethr =  1.28E-04,  avg # of iterations =  1.0

     negative rho (up, down):  9.023E-02 0.000E+00

     total cpu time spent up to now is      173.4 secs

     total energy              =   -1868.73199300 Ry
     Harris-Foulkes estimate   =   -1868.74922008 Ry
     estimated scf accuracy    <       0.33817088 Ry

     iteration # 11     ecut=    60.00 Ry     beta= 0.20
     Davidson diagonalization with overlap
     ethr =  1.28E-04,  avg # of iterations =  1.2

     negative rho (up, down):  9.062E-02 0.000E+00

     total cpu time spent up to now is      189.0 secs

     total energy              =   -1868.73415572 Ry
     Harris-Foulkes estimate   =   -1868.73936231 Ry
     estimated scf accuracy    <       0.29416851 Ry

     iteration # 12     ecut=    60.00 Ry     beta= 0.20
     Davidson diagonalization with overlap
     ethr =  1.28E-04,  avg # of iterations =  1.0

     negative rho (up, down):  9.068E-02 0.000E+00

     total cpu time spent up to now is      203.6 secs

     total energy              =   -1868.73287547 Ry
     Harris-Foulkes estimate   =   -1868.73658984 Ry
     estimated scf accuracy    <       0.21999735 Ry

     iteration # 13     ecut=    60.00 Ry     beta= 0.20
     Davidson diagonalization with overlap
     ethr =  9.61E-05,  avg # of iterations =  1.2

     negative rho (up, down):  9.050E-02 0.000E+00

     total cpu time spent up to now is      218.6 secs

     total energy              =   -1868.73171804 Ry
     Harris-Foulkes estimate   =   -1868.73384523 Ry
     estimated scf accuracy    <       0.06173302 Ry

     iteration # 14     ecut=    60.00 Ry     beta= 0.20
     Davidson diagonalization with overlap
     ethr =  2.70E-05,  avg # of iterations =  7.8

     negative rho (up, down):  9.007E-02 0.000E+00

     total cpu time spent up to now is      241.9 secs

     total energy              =   -1868.72920216 Ry
     Harris-Foulkes estimate   =   -1868.73213828 Ry
     estimated scf accuracy    <       0.02966106 Ry

     iteration # 15     ecut=    60.00 Ry     beta= 0.20
     Davidson diagonalization with overlap
     ethr =  1.30E-05,  avg # of iterations =  4.3

     negative rho (up, down):  9.018E-02 0.000E+00

     total cpu time spent up to now is      260.8 secs

     total energy              =   -1868.72944984 Ry
     Harris-Foulkes estimate   =   -1868.72996113 Ry
     estimated scf accuracy    <       0.03119817 Ry

     iteration # 16     ecut=    60.00 Ry     beta= 0.20
     Davidson diagonalization with overlap
     ethr =  1.30E-05,  avg # of iterations =  1.0

     negative rho (up, down):  8.926E-02 0.000E+00

     total cpu time spent up to now is      275.3 secs

     total energy              =   -1868.72852050 Ry
     Harris-Foulkes estimate   =   -1868.72957124 Ry
     estimated scf accuracy    <       0.02399177 Ry

     iteration # 17     ecut=    60.00 Ry     beta= 0.20
     Davidson diagonalization with overlap
     ethr =  1.05E-05,  avg # of iterations =  1.4

     negative rho (up, down):  9.068E-02 0.000E+00

     total cpu time spent up to now is      290.5 secs

     total energy              =   -1868.72741727 Ry
     Harris-Foulkes estimate   =   -1868.72877725 Ry
     estimated scf accuracy    <       0.02250858 Ry

     iteration # 18     ecut=    60.00 Ry     beta= 0.20
     Davidson diagonalization with overlap
     ethr =  9.83E-06,  avg # of iterations =  2.8

     negative rho (up, down):  1.037E-01 0.000E+00

     total cpu time spent up to now is      307.1 secs

     total energy              =   -1868.72629262 Ry
     Harris-Foulkes estimate   =   -1868.72754706 Ry
     estimated scf accuracy    <       0.01350310 Ry

     iteration # 19     ecut=    60.00 Ry     beta= 0.20
     Davidson diagonalization with overlap
     ethr =  5.90E-06,  avg # of iterations =  7.0

     negative rho (up, down):  1.040E-01 0.000E+00

     total cpu time spent up to now is      329.9 secs

     total energy              =   -1868.72586083 Ry
     Harris-Foulkes estimate   =   -1868.72646265 Ry
     estimated scf accuracy    <       0.00754200 Ry

     iteration # 20     ecut=    60.00 Ry     beta= 0.20
     Davidson diagonalization with overlap
     ethr =  3.29E-06,  avg # of iterations =  5.0

     negative rho (up, down):  1.082E-01 0.000E+00

     total cpu time spent up to now is      349.3 secs

     total energy              =   -1868.72475337 Ry
     Harris-Foulkes estimate   =   -1868.72592993 Ry
     estimated scf accuracy    <       0.00661188 Ry

     iteration # 21     ecut=    60.00 Ry     beta= 0.20
     Davidson diagonalization with overlap
     ethr =  2.89E-06,  avg # of iterations =  8.2

     negative rho (up, down):  1.047E-01 0.000E+00

     total cpu time spent up to now is      373.9 secs

     total energy              =   -1868.72455805 Ry
     Harris-Foulkes estimate   =   -1868.72496788 Ry
     estimated scf accuracy    <       0.00574119 Ry

     iteration # 22     ecut=    60.00 Ry     beta= 0.20
     Davidson diagonalization with overlap
     ethr =  2.51E-06,  avg # of iterations =  2.5

     negative rho (up, down):  1.049E-01 0.000E+00

     total cpu time spent up to now is      390.3 secs

     total energy              =   -1868.72446397 Ry
     Harris-Foulkes estimate   =   -1868.72470577 Ry
     estimated scf accuracy    <       0.00127203 Ry

     iteration # 23     ecut=    60.00 Ry     beta= 0.20
     Davidson diagonalization with overlap
     ethr =  5.55E-07,  avg # of iterations =  6.3

     negative rho (up, down):  1.018E-01 0.000E+00

     total cpu time spent up to now is      411.5 secs

     total energy              =   -1868.72432755 Ry
     Harris-Foulkes estimate   =   -1868.72449183 Ry
     estimated scf accuracy    <       0.00105629 Ry

     iteration # 24     ecut=    60.00 Ry     beta= 0.20
     Davidson diagonalization with overlap
     ethr =  4.61E-07,  avg # of iterations =  4.4

     negative rho (up, down):  9.496E-02 0.000E+00

     total cpu time spent up to now is      430.2 secs

     total energy              =   -1868.72419698 Ry
     Harris-Foulkes estimate   =   -1868.72435217 Ry
     estimated scf accuracy    <       0.00076220 Ry

     iteration # 25     ecut=    60.00 Ry     beta= 0.20
     Davidson diagonalization with overlap
     ethr =  3.33E-07,  avg # of iterations =  5.7

     negative rho (up, down):  9.156E-02 0.000E+00

     total cpu time spent up to now is      451.2 secs

     total energy              =   -1868.72419921 Ry
     Harris-Foulkes estimate   =   -1868.72420809 Ry
     estimated scf accuracy    <       0.00033934 Ry

     iteration # 26     ecut=    60.00 Ry     beta= 0.20
     Davidson diagonalization with overlap
     c_bands:  1 eigenvalues not converged
     c_bands:  1 eigenvalues not converged
     ethr =  1.48E-07,  avg # of iterations =  7.1

     negative rho (up, down):  9.074E-02 0.000E+00

     total cpu time spent up to now is      473.6 secs

     total energy              =   -1868.72421693 Ry
     Harris-Foulkes estimate   =   -1868.72421582 Ry
     estimated scf accuracy    <       0.00018264 Ry

     iteration # 27     ecut=    60.00 Ry     beta= 0.20
     Davidson diagonalization with overlap
     c_bands:  1 eigenvalues not converged
     ethr =  7.98E-08,  avg # of iterations =  3.7

     negative rho (up, down):  9.067E-02 0.000E+00

     total cpu time spent up to now is      491.3 secs

     total energy              =   -1868.72421632 Ry
     Harris-Foulkes estimate   =   -1868.72421813 Ry
     estimated scf accuracy    <       0.00014523 Ry

     iteration # 28     ecut=    60.00 Ry     beta= 0.20
     Davidson diagonalization with overlap
     ethr =  6.34E-08,  avg # of iterations =  3.6

     negative rho (up, down):  8.993E-02 0.000E+00

     total cpu time spent up to now is      508.8 secs

     total energy              =   -1868.72424658 Ry
     Harris-Foulkes estimate   =   -1868.72422311 Ry
     estimated scf accuracy    <       0.00007384 Ry

     iteration # 29     ecut=    60.00 Ry     beta= 0.20
     Davidson diagonalization with overlap
     ethr =  3.22E-08,  avg # of iterations =  5.2

     negative rho (up, down):  9.036E-02 0.000E+00

     total cpu time spent up to now is      528.1 secs

     total energy              =   -1868.72425470 Ry
     Harris-Foulkes estimate   =   -1868.72424839 Ry
     estimated scf accuracy    <       0.00002152 Ry

     iteration # 30     ecut=    60.00 Ry     beta= 0.20
     Davidson diagonalization with overlap
     ethr =  9.40E-09,  avg # of iterations =  2.1

     negative rho (up, down):  9.059E-02 0.000E+00

     total cpu time spent up to now is      544.0 secs

     total energy              =   -1868.72425619 Ry
     Harris-Foulkes estimate   =   -1868.72425571 Ry
     estimated scf accuracy    <       0.00001337 Ry

     iteration # 31     ecut=    60.00 Ry     beta= 0.20
     Davidson diagonalization with overlap
     ethr =  5.84E-09,  avg # of iterations =  1.0

     negative rho (up, down):  9.050E-02 0.000E+00

     total cpu time spent up to now is      558.6 secs

     total energy              =   -1868.72425887 Ry
     Harris-Foulkes estimate   =   -1868.72425648 Ry
     estimated scf accuracy    <       0.00000753 Ry

     iteration # 32     ecut=    60.00 Ry     beta= 0.20
     Davidson diagonalization with overlap
     ethr =  3.29E-09,  avg # of iterations =  2.4

     negative rho (up, down):  9.049E-02 0.000E+00

     total cpu time spent up to now is      574.8 secs

     total energy              =   -1868.72425958 Ry
     Harris-Foulkes estimate   =   -1868.72425920 Ry
     estimated scf accuracy    <       0.00000331 Ry

     iteration # 33     ecut=    60.00 Ry     beta= 0.20
     Davidson diagonalization with overlap
     ethr =  1.45E-09,  avg # of iterations =  1.7

     negative rho (up, down):  9.057E-02 0.000E+00

     total cpu time spent up to now is      589.6 secs

     End of self-consistent calculation

          k = 0.0000 0.0000 0.0000 ( 36431 PWs)   bands (ev):

   -38.4263 -38.3499 -23.0555 -23.0434 -22.9216 -22.8979 -18.9594 -18.8918
   -18.4316 -18.4228 -18.3561 -18.3429 -15.7508 -15.7006 -14.7930 -14.7392
   -14.5399 -14.5361 -14.5299 -14.4862 -14.4472 -14.2750 -14.2211 -14.0370
   -14.0247 -13.7855 -12.4947  -8.2910  -8.2762  -8.2531  -8.1127  -8.0478
    -8.0363  -8.0208  -8.0095  -7.8714  -7.8479  -7.7964  -7.7151  -2.3823
    -2.3520  -2.3303  -2.3028  -2.2117  -2.1564  -2.1378  -2.1286  -2.0950
    -2.0559  -2.0187  -1.9646  -1.8428  -1.1874  -1.1254  -0.7353  -0.7186
    -0.6766  -0.4044  -0.3481  -0.3463  -0.3373  -0.3088  -0.3020  -0.1478
    -0.1459  -0.1146  -0.0940  -0.0792  -0.0730  -0.0154  -0.0116   0.0145
     0.0240   0.1152   0.1191   0.1300   0.1320   0.1532   0.2157   0.2312
     0.2698   0.2711   0.2836   0.2923   0.3410   0.3834   0.3882   0.4051
     0.6653   0.8277   0.8716   0.9288   0.9372   0.9786   1.0089   1.0477
     1.0820   1.0866   1.1034   1.1892   1.1939   1.2096   1.2202   1.2235
     1.2656   1.6447   1.6857   1.7072   1.7148   1.7969   1.9067   1.9136
     1.9940   2.2093   2.3522   2.3975   2.4384   2.4811   2.5142   4.8457
     5.0167   5.0472   5.5877   5.6740   6.3582   6.4003   6.4562   6.6397
     6.9464   7.1417   7.5478   7.8676   7.8968   7.9409   8.0994   8.3072
     8.3802   8.4437

          k = 0.0000 0.1281 0.0000 ( 36471 PWs)   bands (ev):

   -38.4239 -38.3476 -23.0339 -23.0218 -22.9031 -22.8768 -18.9235 -18.8557
   -18.5271 -18.4477 -18.4284 -18.3529 -15.6419 -15.5926 -14.8011 -14.7455
   -14.5490 -14.5380 -14.5060 -14.4552 -14.4286 -14.3205 -14.2689 -14.0428
   -14.0288 -13.8190 -12.5658  -8.2780  -8.2592  -8.2401  -8.1018  -8.0402
    -8.0291  -8.0066  -7.9950  -7.8700  -7.8318  -7.7635  -7.7149  -2.4724
    -2.4644  -2.4465  -2.3923  -2.3327  -2.2819  -2.1399  -2.1330  -2.0248
    -2.0033  -1.9662  -1.9495  -1.8525  -1.2562  -1.2383  -1.1896  -1.1229
    -1.0695  -0.7349  -0.6993  -0.5171  -0.4368  -0.4036  -0.3973  -0.3911
    -0.3818  -0.3754  -0.3473  -0.3095  -0.1828  -0.0555  -0.0068   0.0183
     0.0324   0.0880   0.0950   0.1493   0.1723   0.2473   0.2500   0.2613
     0.2823   0.2842   0.3435   0.3728   0.3762   0.3992   0.5667   0.5963
     0.6320   0.6689   0.7452   0.8082   0.8906   0.9000   0.9309   1.1322
     1.1691   1.2017   1.2195   1.2398   1.3642   1.4075   1.4218   1.4295
     1.4431   1.6219   1.6836   1.6923   1.7480   1.7578   1.8621   1.9940
     2.0471   2.2784   2.3025   2.5457   2.5612   2.7233   2.7387   5.1843
     5.3804   5.3966   5.8297   5.9118   6.6426   6.7215   6.7477   6.9486
     7.2058   7.4091   7.7538   7.8070   7.8802   8.0601   8.2504   8.5622
     8.5639   8.6653

          k = 0.0000 0.2563 0.0000 ( 36496 PWs)   bands (ev):

   -38.4183 -38.3420 -22.9809 -22.9687 -22.8575 -22.8249 -18.8324 -18.7644
   -18.7522 -18.6735 -18.4207 -18.3451 -15.3935 -15.3474 -14.8761 -14.8169
   -14.6126 -14.5878 -14.4602 -14.3895 -14.3856 -14.3740 -14.3406 -14.0208
   -14.0040 -13.8711 -12.7334  -8.2505  -8.2186  -8.2032  -8.0814  -8.0732
    -8.0703  -7.9180  -7.9034  -7.8917  -7.7330  -7.7119  -7.6817  -2.9006
    -2.8669  -2.7667  -2.7025  -2.2871  -2.2804  -2.1903  -2.1863  -2.1434
    -2.0160  -2.0032  -1.9512  -1.9442  -1.8973  -1.8790  -1.7890  -1.1882
    -1.1364  -1.1209  -1.0301  -0.9087  -0.7676  -0.7549  -0.7400  -0.6879
    -0.6255  -0.6200  -0.5615  -0.5480  -0.3747  -0.3260  -0.3120  -0.2676
    -0.1779  -0.1410  -0.0658   0.0167   0.0549   0.0746   0.2543   0.3019
     0.3206   0.3212   0.3241   0.3943   0.4056   0.4183   0.4703   0.5207
     0.8980   0.9168   0.9724   1.0297   1.0570   1.1195   1.1618   1.2322
     1.2387   1.3053   1.3383   1.3939   1.4617   1.4852   1.4875   1.5651
     1.5888   1.6910   1.7616   1.8817   1.9218   1.9847   1.9993   2.0127
     2.0519   2.1663   2.2249   2.6490   2.9287   3.0357   3.0579   5.9376
     6.2694   6.2838   6.4814   6.5593   7.2779   7.5758   7.5917   7.6765
     7.7498   7.7871   7.9021   7.9866   8.2359   8.4917   8.5529   8.7155
     8.8577   8.9136

          k = 0.0000 0.3844 0.0000 ( 36396 PWs)   bands (ev):

   -38.4127 -38.3364 -22.9264 -22.9142 -22.8109 -22.7716 -18.9501 -18.8719
   -18.7342 -18.6659 -18.4129 -18.3373 -15.1416 -15.1047 -15.0204 -14.9558
   -14.7262 -14.6802 -14.4803 -14.3860 -14.3483 -14.3333 -14.3193 -13.9623
   -13.9441 -13.8728 -12.8945  -8.2248  -8.1784  -8.1631  -8.1142  -8.1034
    -8.0403  -7.9627  -7.7944  -7.7826  -7.7055  -7.6288  -7.5967  -3.2677
    -3.2378  -3.0793  -3.0077  -2.8449  -2.8360  -2.8295  -2.1937  -2.1896
    -1.9957  -1.9815  -1.9422  -1.9329  -1.8723  -1.8584  -1.8027  -1.4997
    -1.3403  -1.1709  -1.1319  -1.1043  -1.0983  -1.0481  -1.0374  -0.9820
    -0.8670  -0.8624  -0.7085  -0.6610  -0.5968  -0.5699  -0.5555  -0.5112
    -0.3938  -0.3783  -0.3618  -0.2718  -0.0063   0.1206   0.1870   0.2930
     0.3149   0.3260   0.3449   0.3500   0.4015   0.4443   0.6904   0.7603
     0.9657   1.0116   1.0826   1.1151   1.1344   1.1606   1.1789   1.1914
     1.2938   1.3078   1.3753   1.4625   1.5885   1.6364   1.6739   1.6832
     1.7794   1.8195   1.8299   1.9476   1.9658   2.1463   2.1941   2.2606
     2.3923   2.4078   2.4683   2.6156   2.9314   3.0140   3.0984   6.7830
     7.1146   7.1567   7.3372   7.3793   7.5637   7.6373   7.9219   8.2957
     8.3195   8.4571   8.5052   8.6236   8.6943   8.7780   8.8513   8.9452
     9.0358   9.4048

          k = 0.0000-0.5125 0.0000 ( 36494 PWs)   bands (ev):

   -38.4104 -38.3340 -22.9033 -22.8911 -22.7913 -22.7490 -19.0262 -18.9480
   -18.6910 -18.6226 -18.4097 -18.3341 -15.0969 -15.0434 -15.0114 -14.9740
   -14.7999 -14.7364 -14.5077 -14.3743 -14.3345 -14.3254 -14.2962 -13.9311
   -13.9126 -13.8592 -12.9588  -8.2144  -8.1620  -8.1460  -8.1258  -8.1151
    -8.0193  -7.9867  -7.7474  -7.7355  -7.7021  -7.5840  -7.5604  -3.4110
    -3.3832  -3.2231  -3.1398  -3.0856  -3.0670  -3.0613  -2.2284  -2.2249
    -2.0551  -1.9954  -1.8951  -1.8322  -1.7998  -1.7890  -1.7336  -1.6223
    -1.4110  -1.3342  -1.2770  -1.2644  -1.2352  -1.2331  -0.9713  -0.9670
    -0.9170  -0.8490  -0.8040  -0.7479  -0.6948  -0.6570  -0.6424  -0.6173
    -0.5967  -0.5567  -0.3952  -0.3344  -0.0434   0.2062   0.2622   0.2707
     0.2813   0.2862   0.3509   0.3565   0.3854   0.4503   0.7826   0.8143
     1.0022   1.0213   1.0908   1.1026   1.1675   1.1678   1.2321   1.2474
     1.2605   1.2657   1.3323   1.3797   1.6674   1.7376   1.7493   1.7555
     1.7676   1.8273   1.8683   2.0732   2.1306   2.2558   2.2753   2.4974
     2.5339   2.5547   2.5703   2.6334   2.7961   2.8925   3.0189   7.4277
     7.4675   7.5210   7.5229   7.5948   7.6482   7.6623   8.0449   8.2145
     8.5704   8.6344   8.8644   8.8754   8.9279   8.9580   9.0392   9.0456
     9.3299   9.4130

          k = 0.1250 0.0000 0.0000 ( 36458 PWs)   bands (ev):

   -38.4244 -38.3481 -23.0371 -23.0250 -22.9065 -22.8800 -18.9270 -18.8590
   -18.5316 -18.4572 -18.4203 -18.3404 -15.6356 -15.5838 -14.8175 -14.7674
   -14.5876 -14.5771 -14.5198 -14.4815 -14.4654 -14.3044 -14.2477 -14.0378
   -14.0247 -13.7969 -12.5710  -8.2862  -8.2857  -8.2595  -8.1373  -8.0127
    -8.0012  -7.9866  -7.9752  -7.8333  -7.8151  -7.7604  -7.6877  -2.4671
    -2.4248  -2.3786  -2.3029  -2.3011  -2.2537  -2.1270  -2.1125  -2.0841
    -2.0458  -2.0422  -1.9866  -1.8430  -1.1731  -1.1111  -0.7298  -0.7159
    -0.7131  -0.6221  -0.5551  -0.4438  -0.4270  -0.4238  -0.4129  -0.3633
    -0.3371  -0.3356  -0.3004  -0.1674  -0.1122  -0.0783  -0.0684   0.0760
     0.1297   0.1462   0.1958   0.2060   0.2256   0.2364   0.2664   0.2735
     0.2812   0.3491   0.3572   0.3694   0.3786   0.3866   0.4060   0.4191
     0.6091   0.6755   0.7228   0.7505   0.7643   0.9568   0.9643   0.9811
     0.9978   0.9987   1.0533   1.1743   1.1955   1.2413   1.3063   1.4312
     1.4483   1.5848   1.7195   1.7618   1.8531   1.8607   1.9281   2.0043
     2.0253   2.2578   2.2674   2.3644   2.4083   2.4395   2.5606   5.0343
     5.2027   5.2166   5.7930   5.8759   6.5716   6.6477   6.6690   6.9058
     7.1498   7.3709   7.7224   7.8482   7.9210   8.0514   8.2528   8.5555
     8.6209   8.6843

          k = 0.1250 0.1281 0.0000 ( 36476 PWs)   bands (ev):

   -38.4221 -38.3458 -23.0163 -23.0041 -22.8884 -22.8595 -18.8915 -18.8235
   -18.5358 -18.5149 -18.4597 -18.4371 -15.5276 -15.4768 -14.8155 -14.7634
   -14.5836 -14.5735 -14.4886 -14.4623 -14.4372 -14.3578 -14.3019 -14.0374
   -14.0231 -13.8206 -12.6205  -8.2735  -8.2713  -8.2521  -8.1608  -8.1488
    -8.1225  -7.9848  -7.8857  -7.8628  -7.8514  -7.6976  -7.5823  -2.5695
    -2.5338  -2.5226  -2.4396  -2.3317  -2.2885  -2.1779  -2.1427  -2.1158
    -2.0953  -1.9656  -1.8979  -1.8427  -1.2498  -1.2327  -1.2100  -1.0791
    -1.0212  -0.9383  -0.8931  -0.7288  -0.7123  -0.6318  -0.6022  -0.5096
    -0.3919  -0.3828  -0.2731  -0.1879  -0.1723  -0.1025  -0.0910   0.0048
     0.0169   0.0457   0.0782   0.1684   0.1781   0.2212   0.2247   0.2638
     0.3123   0.3131   0.3275   0.3348   0.4428   0.4468   0.5682   0.5975
     0.6888   0.7416   0.8282   0.8739   0.8883   0.9074   0.9499   1.0034
     1.0050   1.1404   1.1931   1.2190   1.2710   1.2868   1.3292   1.5636
     1.5753   1.6180   1.6289   1.6328   1.7372   1.9442   2.0714   2.1735
     2.3033   2.3659   2.5192   2.5691   2.5793   2.7342   2.7516   5.3190
     5.5218   5.5368   5.9985   6.0814   6.8185   6.9545   6.9641   7.2057
     7.3952   7.5898   7.7479   7.7987   7.9338   8.2114   8.3879   8.6486
     8.7372   8.8250

          k = 0.1250 0.2563 0.0000 ( 36530 PWs)   bands (ev):

   -38.4166 -38.3402 -22.9651 -22.9529 -22.8441 -22.8094 -18.8017 -18.7477
   -18.7334 -18.6690 -18.5159 -18.4414 -15.2815 -15.2343 -14.8612 -14.8024
   -14.6114 -14.5915 -14.4573 -14.4319 -14.4034 -14.3927 -14.3602 -14.0121
   -13.9954 -13.8603 -12.7417  -8.2842  -8.2729  -8.2412  -8.2188  -8.2045
    -8.1051  -8.0791  -7.9644  -7.8188  -7.8073  -7.6619  -7.5451  -3.0064
    -2.9629  -2.7982  -2.7320  -2.3099  -2.2986  -2.2407  -2.1881  -2.1763
    -2.1329  -2.1020  -2.0105  -1.9980  -1.8888  -1.8141  -1.7798  -1.2879
    -1.2271  -1.1287  -1.0861  -1.0747  -1.0618  -1.0202  -0.9578  -0.9239
    -0.5648  -0.5548  -0.4958  -0.4579  -0.3606  -0.3145  -0.3058  -0.2593
    -0.0785  -0.0711  -0.0181   0.0931   0.1193   0.1257   0.2120   0.2278
     0.2590   0.3171   0.3533   0.3678   0.4164   0.4625   0.6799   0.7234
     0.9182   0.9397   0.9656   1.0413   1.0532   1.1485   1.1512   1.1705
     1.1873   1.2890   1.3473   1.3597   1.4413   1.4465   1.5718   1.5797
     1.5966   1.6422   1.7280   1.9548   1.9689   2.0303   2.1470   2.4108
     2.4616   2.5241   2.6300   2.7442   2.9276   3.0428   3.0641   6.0158
     6.3224   6.3373   6.5858   6.6576   7.3647   7.5267   7.6091   7.7777
     7.7918   8.0083   8.0856   8.1579   8.3205   8.4752   8.5196   8.7598
     8.7868   8.8683

          k = 0.1250 0.3844 0.0000 ( 36519 PWs)   bands (ev):

   -38.4110 -38.3346 -22.9126 -22.9004 -22.7989 -22.7579 -18.9441 -18.8658
   -18.7049 -18.6363 -18.5061 -18.4315 -15.0357 -15.0052 -14.9807 -14.9057
   -14.6936 -14.6565 -14.4605 -14.4460 -14.4095 -14.3136 -14.3093 -13.9583
   -13.9402 -13.8664 -12.8634  -8.2887  -8.2778  -8.2191  -8.1885  -8.1737
    -8.1277  -8.0470  -7.9248  -7.8668  -7.8552  -7.7061  -7.6191  -3.3884
    -3.3488  -3.1249  -3.0551  -2.8345  -2.8242  -2.8191  -2.2286  -2.2197
    -2.1169  -2.0526  -2.0377  -2.0246  -1.8881  -1.8402  -1.8227  -1.5498
    -1.5315  -1.5274  -1.4482  -1.3479  -1.2517  -1.1279  -0.9552  -0.8963
    -0.7502  -0.7441  -0.7242  -0.7023  -0.5813  -0.5570  -0.5141  -0.4992
    -0.1943  -0.1706  -0.0904  -0.0549   0.0616   0.2031   0.2121   0.2634
     0.3194   0.3262   0.3361   0.3727   0.4041   0.4632   0.7849   0.8421
     0.9682   1.0112   1.1005   1.1546   1.1771   1.2255   1.2380   1.2780
     1.3055   1.3094   1.4180   1.5237   1.5914   1.6124   1.6295   1.6311
     1.8904   1.9628   1.9741   2.2092   2.3658   2.3819   2.4385   2.4568
     2.4610   2.4980   2.6670   2.7380   2.9295   3.0434   3.1142   6.7957
     7.0184   7.0506   7.2157   7.2706   7.4746   7.5347   7.8430   8.3225
     8.3349   8.3843   8.5513   8.7385   8.7833   8.8907   8.9299   9.1137
     9.1524   9.4468

          k = 0.1250-0.5125 0.0000 ( 36492 PWs)   bands (ev):

   -38.4086 -38.3323 -22.8904 -22.8782 -22.7798 -22.7362 -19.0197 -18.9416
   -18.6624 -18.5937 -18.5019 -18.4273 -15.0565 -15.0021 -14.8940 -14.8559
   -14.7623 -14.7067 -14.4781 -14.4348 -14.3955 -14.3024 -14.2774 -13.9298
   -13.9113 -13.8581 -12.9134  -8.2633  -8.2526  -8.2104  -8.1745  -8.1589
    -8.1154  -8.0332  -7.9150  -7.9031  -7.8385  -7.7453  -7.7186  -3.5365
    -3.4986  -3.2711  -3.1941  -3.0769  -3.0634  -3.0550  -2.2451  -2.2389
    -2.0622  -1.9889  -1.9368  -1.9089  -1.8888  -1.8859  -1.8154  -1.7317
    -1.6916  -1.6806  -1.6762  -1.4313  -1.2977  -1.1845  -0.9068  -0.8763
    -0.8284  -0.8252  -0.7875  -0.7374  -0.6688  -0.6476  -0.5998  -0.5685
    -0.2400  -0.2003  -0.1731  -0.1268  -0.0429   0.2091   0.2256   0.2898
     0.3069   0.3376   0.3495   0.4076   0.4498   0.4611   0.8814   0.9148
     1.0129   1.0813   1.1054   1.1358   1.1541   1.2483   1.2705   1.2736
     1.2832   1.2842   1.3725   1.5625   1.6768   1.6932   1.7142   1.8150
     1.8519   2.2490   2.2684   2.4090   2.4263   2.4527   2.4789   2.5336
     2.5493   2.6034   2.6255   2.6388   2.8113   2.9523   3.0410   7.1818
     7.2315   7.3016   7.3170   7.3504   7.5524   7.6143   8.0482   8.1300
     8.7503   8.8337   8.8704   8.9533   9.0635   9.1195   9.1326   9.2354
     9.2431   9.4095

          k = 0.2500 0.0000 0.0000 ( 36542 PWs)   bands (ev):

   -38.4201 -38.3437 -22.9919 -22.9798 -22.8694 -22.8358 -18.8455 -18.7766
   -18.7463 -18.6739 -18.4142 -18.3343 -15.3718 -15.3175 -14.9253 -14.8816
   -14.7068 -14.6857 -14.5916 -14.4641 -14.4287 -14.3400 -14.2768 -14.0324
   -14.0181 -13.8133 -12.7487  -8.2969  -8.2850  -8.2464  -8.1633  -7.9427
    -7.9313  -7.9013  -7.8899  -7.7757  -7.7336  -7.6790  -7.6203  -2.7705
    -2.7356  -2.6954  -2.6013  -2.1677  -2.1645  -2.1608  -2.1104  -2.0473
    -2.0127  -1.9618  -1.8857  -1.8833  -1.2549  -1.2050  -0.9257  -0.8542
    -0.8180  -0.8125  -0.8005  -0.7235  -0.7081  -0.7035  -0.6895  -0.6325
    -0.6244  -0.4389  -0.3818  -0.3272  -0.1615  -0.1033  -0.0773  -0.0771
    -0.0229   0.0063   0.0137   0.1765   0.1926   0.1964   0.2459   0.2596
     0.3611   0.3922   0.3962   0.4147   0.4304   0.4462   0.4860   0.5187
     0.5470   0.5914   0.6029   0.8132   0.8273   0.9494   1.0138   1.0461
     1.0495   1.1112   1.1351   1.2730   1.3015   1.3177   1.3257   1.3797
     1.4112   1.4287   1.7429   1.7537   1.7933   1.7998   1.9185   1.9534
     2.1133   2.2409   2.2835   2.3715   2.4841   2.5739   2.6869   5.4651
     5.6484   5.6616   6.3464   6.4345   7.0732   7.2788   7.2899   7.6540
     7.6594   7.8026   7.8436   7.8744   8.1135   8.4954   8.6652   8.7349
     8.8974   9.0420

          k = 0.2500 0.1281 0.0000 ( 36518 PWs)   bands (ev):

   -38.4178 -38.3414 -22.9730 -22.9608 -22.8526 -22.8171 -18.8114 -18.7424
   -18.7405 -18.6681 -18.5143 -18.4348 -15.2663 -15.2136 -14.8990 -14.8524
   -14.6792 -14.6618 -14.5525 -14.4398 -14.4057 -14.4028 -14.3386 -14.0222
   -14.0073 -13.8191 -12.7523  -8.3041  -8.2915  -8.2407  -8.1885  -8.1757
    -8.1682  -8.0077  -7.9309  -7.7886  -7.7773  -7.6368  -7.5133  -2.9149
    -2.8626  -2.7355  -2.6519  -2.2627  -2.2519  -2.2395  -2.2004  -2.1429
    -2.1366  -1.8760  -1.8670  -1.7963  -1.2980  -1.2495  -1.2397  -1.2390
    -1.2268  -1.1361  -1.0905  -1.0891  -1.0513  -0.9491  -0.9066  -0.6417
    -0.5273  -0.4737  -0.3351  -0.2588  -0.1625  -0.1193  -0.0936  -0.0309
    -0.0249  -0.0062   0.0328   0.0912   0.1143   0.1440   0.2054   0.2187
     0.2409   0.3040   0.4207   0.4455   0.4589   0.5507   0.5780   0.5943
     0.7409   0.7746   0.9012   0.9595   0.9775   1.0395   1.0585   1.0978
     1.1346   1.1637   1.2350   1.2404   1.2531   1.2861   1.3200   1.4692
     1.4781   1.5236   1.6672   1.6752   1.6941   1.7650   2.2078   2.4758
     2.5133   2.5804   2.6264   2.7055   2.7486   2.8129   2.8409   5.6795
     5.8899   5.9034   6.4811   6.5622   7.2318   7.5258   7.5486   7.5992
     7.6646   7.9106   7.9383   8.0733   8.2720   8.5406   8.5984   8.7071
     8.7573   8.9074

          k = 0.2500 0.2563 0.0000 ( 36545 PWs)   bands (ev):

   -38.4122 -38.3359 -22.9265 -22.9143 -22.8114 -22.7713 -18.7481 -18.7254
   -18.7104 -18.6717 -18.6559 -18.6358 -15.0311 -14.9880 -14.8531 -14.7895
   -14.6252 -14.6132 -14.5490 -14.4965 -14.4563 -14.3820 -14.3239 -13.9901
   -13.9737 -13.8339 -12.7660  -8.4904  -8.4790  -8.3114  -8.2375  -8.2257
    -8.2208  -8.1796  -8.0948  -7.8859  -7.8745  -7.7353  -7.6036  -3.3382
    -3.2797  -2.9588  -2.8802  -2.3968  -2.3821  -2.3647  -2.3065  -2.2399
    -2.2325  -2.1247  -2.0185  -2.0063  -1.8317  -1.7751  -1.7297  -1.6617
    -1.6437  -1.6137  -1.5307  -1.1221  -1.0824  -1.0541  -0.9765  -0.8853
    -0.6287  -0.5974  -0.4694  -0.4274  -0.3895  -0.3655  -0.3261  -0.2957
    -0.2829  -0.1727  -0.0640   0.1316   0.2577   0.2697   0.3052   0.3892
     0.4355   0.4568   0.4965   0.5053   0.6002   0.6192   0.9549   0.9876
     1.0223   1.0414   1.0721   1.1067   1.1231   1.1259   1.1393   1.1922
     1.2146   1.2373   1.2586   1.3212   1.5338   1.5363   1.6011   1.6695
     1.6952   1.7632   1.7904   1.8800   1.8910   1.9696   2.4357   2.5478
     2.9233   3.0095   3.0341   3.0864   3.1187   3.2743   3.3057   6.2136
     6.4004   6.4157   6.8301   6.8853   7.3232   7.4258   7.5297   8.0606
     8.0757   8.4090   8.4645   8.5189   8.5293   8.6246   8.6973   8.7840
     8.8782   8.9337

          k = 0.2500 0.3844 0.0000 ( 36557 PWs)   bands (ev):

   -38.4067 -38.3303 -22.8789 -22.8667 -22.7694 -22.7245 -18.9297 -18.8513
   -18.7110 -18.6381 -18.6297 -18.5605 -14.9050 -14.8647 -14.7892 -14.7139
   -14.6112 -14.5940 -14.5902 -14.5591 -14.4002 -14.2917 -14.2661 -13.9471
   -13.9291 -13.8487 -12.7863  -8.5970  -8.5858  -8.4193  -8.2569  -8.2160
    -8.2084  -8.1987  -8.1228  -8.1111  -8.0792  -7.9557  -7.8498  -3.7513
    -3.6955  -3.3080  -3.2325  -2.8075  -2.7935  -2.7923  -2.4278  -2.4073
    -2.3465  -2.2846  -2.1325  -2.1252  -2.1200  -2.0929  -1.8999  -1.8509
    -1.8350  -1.6133  -1.5539  -1.1638  -1.1308  -1.0934  -0.9947  -0.9658
    -0.8475  -0.7831  -0.6303  -0.6173  -0.5980  -0.5556  -0.5513  -0.3850
    -0.3442  -0.2333  -0.0958   0.1491   0.3238   0.3664   0.4068   0.4521
     0.5198   0.5554   0.6299   0.7115   0.7660   0.8169   1.0038   1.0234
     1.0333   1.0684   1.1687   1.2582   1.2915   1.3343   1.3372   1.3886
     1.4662   1.4930   1.5403   1.5430   1.6070   1.6279   1.7052   1.7645
     1.9730   1.9752   2.1994   2.3003   2.3155   2.3434   2.4076   2.4658
     2.8819   2.9429   3.0571   3.3607   3.3931   3.5503   3.5727   6.5545
     6.5777   6.6584   6.8253   6.9035   7.5191   7.6493   7.8078   8.2677
     8.4267   8.4397   8.7178   8.8335   8.9497   9.0867   9.1254   9.3624
     9.4139   9.4615

          k = 0.2500-0.5125 0.0000 ( 36598 PWs)   bands (ev):

   -38.4044 -38.3280 -22.8589 -22.8466 -22.7518 -22.7048 -19.0042 -18.9259
   -18.7052 -18.6323 -18.5890 -18.5197 -14.9543 -14.8967 -14.6679 -14.6337
   -14.6303 -14.5952 -14.5847 -14.5420 -14.4012 -14.2469 -14.2357 -13.9263
   -13.9079 -13.8555 -12.7965  -8.5814  -8.5706  -8.4156  -8.2823  -8.2705
    -8.2059  -8.2019  -8.1847  -8.1635  -8.1067  -8.0670  -8.0564  -3.9136
    -3.8590  -3.4652  -3.3887  -3.0495  -3.0428  -3.0308  -2.4225  -2.4002
    -2.3061  -2.2937  -2.2534  -2.2439  -2.1186  -2.1090  -2.0124  -1.9657
    -1.8368  -1.6132  -1.5595  -1.1709  -1.1432  -1.1200  -0.9955  -0.9433
    -0.9428  -0.8696  -0.6993  -0.6736  -0.6726  -0.6343  -0.5928  -0.3881
    -0.3619  -0.2424  -0.1021   0.1591   0.3492   0.3836   0.4297   0.4612
     0.5042   0.5594   0.6362   0.7300   0.8958   0.9464   1.0780   1.0861
     1.1116   1.1548   1.2456   1.2982   1.3247   1.3763   1.3913   1.4416
     1.4430   1.5162   1.5378   1.5899   1.6124   1.7842   1.8037   2.0366
     2.0666   2.2438   2.2632   2.3722   2.4507   2.4789   2.4945   2.5902
     2.7228   2.7980   2.9839   3.4182   3.4518   3.6060   3.6275   6.5157
     6.5320   6.7074   6.7520   6.8412   7.7068   7.8104   7.9138   8.3245
     8.7209   8.8609   9.0428   9.0452   9.0678   9.1962   9.3259   9.4162
     9.4832   9.5019

          k = 0.3750 0.0000 0.0000 ( 36578 PWs)   bands (ev):

   -38.4157 -38.3393 -22.9456 -22.9334 -22.8316 -22.7906 -18.9356 -18.8643
   -18.7567 -18.6871 -18.4081 -18.3282 -15.1208 -15.0910 -15.0621 -14.9900
   -14.8386 -14.8004 -14.6919 -14.4484 -14.4273 -14.3334 -14.2664 -14.0210
   -14.0061 -13.8182 -12.9169  -8.2985  -8.2855  -8.2199  -8.1640  -7.8833
    -7.8722  -7.8120  -7.8004  -7.7448  -7.6484  -7.6035  -7.5505  -3.0965
    -3.0570  -2.9599  -2.8742  -2.2359  -2.2336  -2.0054  -1.9609  -1.9482
    -1.9214  -1.9127  -1.8840  -1.8434  -1.2662  -1.2299  -1.2216  -1.1962
    -1.1920  -1.0279  -1.0093  -0.9860  -0.9493  -0.8552  -0.8484  -0.7010
    -0.6843  -0.5319  -0.4718  -0.4679  -0.4212  -0.3964  -0.3311  -0.2128
    -0.0785   0.0043   0.0588   0.1186   0.2013   0.2218   0.2325   0.2463
     0.3469   0.4524   0.4570   0.4722   0.4886   0.5072   0.5271   0.5300
     0.5741   0.6375   0.6500   0.8228   0.8466   0.8851   1.0949   1.1188
     1.1349   1.2102   1.2122   1.2548   1.2880   1.3076   1.4830   1.5237
     1.5603   1.5653   1.6312   1.6471   1.6700   1.6850   1.8963   1.9805
     1.9969   2.2623   2.2975   2.4148   2.4965   2.6777   2.7681   6.0866
     6.2852   6.2983   6.9533   7.0109   7.6551   7.7586   7.7844   7.7962
     7.8295   7.8829   8.2060   8.3120   8.5715   8.6519   8.6911   8.7649
     8.8899   9.2541

          k = 0.3750 0.1281 0.0000 ( 36524 PWs)   bands (ev):

   -38.4134 -38.3370 -22.9286 -22.9164 -22.8161 -22.7738 -18.9283 -18.8570
   -18.7238 -18.6541 -18.5065 -18.4269 -15.0564 -15.0327 -14.9822 -14.9012
   -14.7857 -14.7575 -14.6432 -14.4192 -14.4008 -14.3966 -14.3317 -14.0046
   -13.9895 -13.8119 -12.8823  -8.2993  -8.2862  -8.2166  -8.1680  -8.1301
    -8.1185  -7.9598  -7.8571  -7.8446  -7.8333  -7.6998  -7.5673  -3.2490
    -3.1958  -3.0117  -2.9300  -2.2767  -2.2634  -2.2037  -2.1677  -2.0724
    -2.0350  -1.9036  -1.8223  -1.7468  -1.5766  -1.5458  -1.5143  -1.4513
    -1.2850  -1.2453  -1.2312  -1.1214  -1.0675  -1.0621  -0.9788  -0.8066
    -0.7537  -0.5055  -0.4082  -0.3476  -0.2309  -0.2147  -0.1756  -0.1154
    -0.0918  -0.0642  -0.0564   0.0252   0.0889   0.1624   0.1665   0.2549
     0.3328   0.3522   0.3641   0.5212   0.5366   0.6325   0.6444   0.6503
     0.8202   0.8672   0.9256   1.0048   1.0082   1.0494   1.1025   1.1264
     1.1774   1.1890   1.2824   1.3501   1.3623   1.4053   1.5004   1.5253
     1.5301   1.5646   1.5808   1.6061   1.6852   1.7514   1.9781   2.5346
     2.5854   2.6322   2.6532   2.7381   2.7659   2.9590   2.9870   6.2303
     6.4074   6.4210   7.0331   7.0864   7.4100   7.4929   7.6706   7.8599
     7.8709   8.0132   8.5276   8.5641   8.6324   8.6829   8.6936   8.7712
     8.9025   9.2370

          k = 0.3750 0.2563 0.0000 ( 36559 PWs)   bands (ev):

   -38.4079 -38.3315 -22.8871 -22.8749 -22.7782 -22.7325 -18.9108 -18.8394
   -18.7217 -18.6429 -18.6406 -18.5706 -14.9393 -14.9115 -14.7897 -14.7270
   -14.6418 -14.6093 -14.5651 -14.5031 -14.5022 -14.3517 -14.3117 -13.9673
   -13.9512 -13.8070 -12.7961  -8.5395  -8.5281  -8.3649  -8.2559  -8.2429
    -8.2384  -8.1913  -8.1137  -8.1119  -8.1020  -7.9591  -7.8241  -3.6924
    -3.6293  -3.2412  -3.1587  -2.4666  -2.4470  -2.3878  -2.3467  -2.2446
    -2.2380  -2.1404  -2.0987  -2.0845  -2.0250  -2.0115  -1.8884  -1.8611
    -1.8359  -1.5394  -1.4692  -1.1110  -1.0599  -1.0147  -0.9519  -0.8428
    -0.7529  -0.7467  -0.5386  -0.4788  -0.4471  -0.4211  -0.3873  -0.3053
    -0.2826  -0.1814  -0.0979   0.1033   0.2910   0.4163   0.4523   0.4663
     0.6104   0.6472   0.7174   0.7320   0.7914   0.8323   1.0020   1.0332
     1.0341   1.0682   1.1439   1.1688   1.1849   1.2119   1.2383   1.3184
     1.3717   1.4064   1.4145   1.4410   1.5713   1.5775   1.7127   1.7190
     1.7512   1.7783   1.7939   1.7964   1.8560   1.8933   2.3838   2.4959
     2.9234   3.0138   3.0457   3.4788   3.5026   3.6241   3.6482   6.3630
     6.3925   6.4328   6.8216   6.8897   7.4259   7.5447   7.7011   8.1030
     8.1155   8.2417   8.5405   8.8398   8.8856   8.9055   8.9543   9.1146
     9.2857   9.3263

          k = 0.3750 0.3844 0.0000 ( 36631 PWs)   bands (ev):

   -38.4024 -38.3260 -22.8447 -22.8324 -22.7396 -22.6905 -18.9163 -18.8905
   -18.8386 -18.8183 -18.5512 -18.4810 -14.8342 -14.7943 -14.7285 -14.6765
   -14.6323 -14.6018 -14.4694 -14.4160 -14.3260 -14.2914 -14.2318 -13.9341
   -13.9165 -13.8277 -12.7058  -8.8059  -8.7946  -8.6224  -8.4650  -8.4422
    -8.4307  -8.2668  -8.2438  -8.2326  -8.2015  -8.1649  -8.1049  -4.1449
    -4.0825  -3.6021  -3.5221  -2.7794  -2.7643  -2.7627  -2.5602  -2.5440
    -2.5347  -2.4935  -2.4786  -2.4313  -2.1333  -2.1307  -2.0278  -1.9797
    -1.8426  -1.3884  -1.3356  -1.2029  -1.1515  -1.0150  -0.9882  -0.9694
    -0.9055  -0.8191  -0.7977  -0.7360  -0.6695  -0.6503  -0.6143  -0.2394
    -0.2340  -0.1222  -0.1158   0.1577   0.4284   0.5677   0.7175   0.7344
     0.7505   0.7655   0.9393   1.0796   1.1355   1.1617   1.1731   1.1870
     1.2288   1.2977   1.3065   1.3632   1.3722   1.3924   1.4460   1.4555
     1.4659   1.5427   1.5984   1.6734   1.7010   1.7047   1.8879   1.9854
     2.0047   2.1674   2.2087   2.2217   2.2370   2.3370   2.3653   2.6080
     2.8666   2.9428   3.0711   4.0196   4.0469   4.1345   4.1509   6.0134
     6.0283   6.2181   6.5170   6.6110   7.6356   7.8755   8.0599   8.0877
     8.5387   8.6732   8.7109   8.7752   8.8646   9.1464   9.1993   9.3094
     9.3531   9.4411

          k = 0.3750-0.5125 0.0000 ( 36666 PWs)   bands (ev):

   -38.4001 -38.3237 -22.8268 -22.8146 -22.7234 -22.6729 -18.9886 -18.9103
   -18.8850 -18.8135 -18.5121 -18.4418 -14.8439 -14.7815 -14.7396 -14.7034
   -14.5689 -14.5591 -14.3881 -14.3457 -14.3071 -14.2084 -14.1921 -13.9227
   -13.9042 -13.8530 -12.6672  -8.8848  -8.8737  -8.7046  -8.5975  -8.5859
    -8.4870  -8.4068  -8.3882  -8.2392  -8.2282  -8.1868  -8.1003  -4.3257
    -4.2641  -3.7672  -3.6881  -3.0196  -3.0161  -3.0021  -2.6755  -2.6320
    -2.5753  -2.5618  -2.4898  -2.4408  -2.1288  -2.1267  -2.0754  -2.0286
    -1.8251  -1.4098  -1.3628  -1.1594  -1.1090  -1.0768  -1.0481  -1.0455
    -0.9190  -0.8895  -0.8695  -0.7970  -0.7511  -0.7334  -0.6984  -0.2038
    -0.2016  -0.1236  -0.0803   0.1833   0.4623   0.5845   0.7767   0.7931
     0.8287   0.8758   1.0151   1.1900   1.1936   1.2010   1.2177   1.2624
     1.3663   1.3734   1.4099   1.4110   1.4488   1.4708   1.5160   1.6107
     1.6230   1.6666   1.6674   1.7248   1.7572   1.7808   1.8660   2.2155
     2.2627   2.2817   2.4181   2.4337   2.4444   2.4985   2.5050   2.5342
     2.6966   2.7878   2.9987   4.1813   4.2108   4.3024   4.3174   5.8183
     5.8310   6.0537   6.4147   6.5210   7.8196   7.8405   8.0092   8.2254
     8.7115   8.8149   8.8159   8.9519   9.0796   9.1045   9.1887   9.2439
     9.2915   9.4376

          k =-0.5000 0.0000 0.0000 ( 36502 PWs)   bands (ev):

   -38.4139 -38.3375 -22.9261 -22.9139 -22.8157 -22.7715 -19.0077 -18.9369
   -18.7184 -18.6484 -18.4056 -18.3257 -15.1594 -15.1287 -14.9450 -14.9227
   -14.8806 -14.8635 -14.7375 -14.4576 -14.4502 -14.3221 -14.2545 -14.0152
   -14.0003 -13.8177 -12.9837  -8.2978  -8.2848  -8.2080  -8.1589  -7.8605
    -7.8495  -7.7737  -7.7621  -7.7377  -7.6120  -7.5736  -7.5210  -3.2199
    -3.1814  -3.0751  -2.9905  -2.2625  -2.2605  -1.9682  -1.9539  -1.9492
    -1.9288  -1.8699  -1.7045  -1.6609  -1.5059  -1.4737  -1.3217  -1.1602
    -1.1409  -1.1202  -1.1099  -1.1046  -1.0196  -0.9509  -0.9444  -0.7117
    -0.6951  -0.6784  -0.6601  -0.5503  -0.4502  -0.4124  -0.4097  -0.2704
    -0.0769  -0.0253   0.0968   0.1591   0.2133   0.2269   0.2327   0.2408
     0.3410   0.4674   0.4695   0.4808   0.5183   0.5358   0.5483   0.5543
     0.5671   0.5719   0.6377   0.7494   0.9818   1.0102   1.1307   1.1359
     1.1588   1.1762   1.1978   1.2269   1.2942   1.3340   1.3979   1.6004
     1.6077   1.6092   1.6297   1.6635   1.7279   1.7959   1.8044   1.9659
     1.9787   2.2514   2.2773   2.4162   2.4863   2.6913   2.7741   6.8708
     6.9139   7.0159   7.0567   7.1400   7.1543   7.2582   7.3344   7.7408
     7.8114   8.1225   8.3717   8.3964   8.6603   8.9368   8.9639   9.0704
     9.1660   9.1708

          k =-0.5000 0.1281 0.0000 ( 36528 PWs)   bands (ev):

   -38.4116 -38.3352 -22.9100 -22.8978 -22.8007 -22.7555 -18.9999 -18.9291
   -18.6861 -18.6160 -18.5032 -18.4236 -15.1108 -15.0794 -14.8729 -14.8291
   -14.8235 -14.7646 -14.6866 -14.4269 -14.4194 -14.3888 -14.3207 -13.9969
   -13.9817 -13.8076 -12.9351  -8.2936  -8.2804  -8.2057  -8.1565  -7.9957
    -7.9850  -7.9846  -7.9735  -7.8615  -7.8173  -7.7113  -7.7066  -3.3779
    -3.3256  -3.1351  -3.0537  -2.2874  -2.2786  -2.1934  -2.1551  -1.9633
    -1.8485  -1.8338  -1.8312  -1.8104  -1.7877  -1.7431  -1.6716  -1.6008
    -1.2659  -1.2516  -1.2354  -1.1453  -1.0453  -0.9945  -0.9916  -0.8695
    -0.8599  -0.4824  -0.4722  -0.3971  -0.2638  -0.2424  -0.1963  -0.1892
    -0.1608  -0.1187  -0.0674  -0.0206  -0.0150   0.1653   0.1770   0.2584
     0.3458   0.4181   0.4481   0.5141   0.5314   0.6653   0.7189   0.7335
     0.8392   0.8583   0.9748   0.9928   1.0892   1.0962   1.1444   1.1494
     1.1640   1.1941   1.2604   1.3137   1.3246   1.3620   1.5465   1.5823
     1.5869   1.6286   1.6362   1.7092   1.7154   1.7766   1.7975   2.5181
     2.6109   2.6401   2.6482   2.7312   2.7580   2.9807   3.0067   6.8301
     6.8621   6.8824   7.0732   7.2558   7.3147   7.3443   7.4295   7.4835
     7.5118   8.1659   8.4968   8.8019   8.8645   8.9304   8.9965   9.1017
     9.1474   9.2759

          k =-0.5000 0.2563 0.0000 ( 36566 PWs)   bands (ev):

   -38.4061 -38.3297 -22.8705 -22.8583 -22.7642 -22.7163 -18.9811 -18.9102
   -18.7173 -18.6384 -18.6045 -18.5341 -14.9884 -14.9547 -14.7452 -14.7186
   -14.5734 -14.5498 -14.5463 -14.5241 -14.4653 -14.3521 -14.3450 -13.9575
   -13.9415 -13.7956 -12.8100  -8.4616  -8.4502  -8.3070  -8.2957  -8.2918
    -8.2620  -8.2490  -8.2071  -8.1472  -8.1184  -8.1062  -8.0409  -3.8346
    -3.7709  -3.3775  -3.2956  -2.4837  -2.4629  -2.3740  -2.3365  -2.2946
    -2.2500  -2.2387  -2.2318  -2.0676  -2.0264  -2.0130  -1.9684  -1.9145
    -1.8795  -1.5103  -1.4404  -1.0929  -1.0429  -0.9736  -0.8732  -0.8635
    -0.8506  -0.7438  -0.5392  -0.4800  -0.4789  -0.4646  -0.4170  -0.3005
    -0.2836  -0.1752  -0.1120   0.0888   0.3094   0.4578   0.4832   0.4899
     0.6200   0.6915   0.7470   0.7750   0.9509   0.9921   1.0333   1.0855
     1.0933   1.1229   1.1943   1.2460   1.2709   1.2803   1.2839   1.2883
     1.3165   1.4062   1.4598   1.5124   1.6079   1.6974   1.7229   1.7304
     1.7334   1.7399   1.7510   1.8195   1.8642   2.0720   2.1308   2.4549
     2.9221   3.0104   3.0454   3.5902   3.6124   3.7189   3.7413   6.3342
     6.3513   6.4903   6.7339   6.8257   7.5732   7.6750   7.7114   8.1978
     8.2139   8.2627   8.3812   8.8958   8.9245   9.0577   9.0797   9.1494
     9.3262   9.3703

          k =-0.5000 0.3844 0.0000 ( 36670 PWs)   bands (ev):

   -38.4006 -38.3242 -22.8303 -22.8181 -22.7271 -22.6763 -18.9624 -18.9083
   -18.8913 -18.8299 -18.5169 -18.4463 -14.8597 -14.8239 -14.7232 -14.6585
   -14.5991 -14.5925 -14.3691 -14.3330 -14.2754 -14.2747 -14.2628 -13.9284
   -13.9109 -13.8179 -12.6715  -8.8552  -8.8439  -8.6729  -8.6009  -8.5894
    -8.4833  -8.4167  -8.3711  -8.2576  -8.2452  -8.1873  -8.1193  -4.3060
    -4.2424  -3.7442  -3.6641  -2.7675  -2.7524  -2.7502  -2.6788  -2.6333
    -2.5921  -2.5792  -2.5076  -2.4645  -2.1323  -2.1300  -2.0655  -2.0159
    -1.8428  -1.3025  -1.2678  -1.2461  -1.2219  -0.9888  -0.9680  -0.9502
    -0.9409  -0.8744  -0.7886  -0.7630  -0.6999  -0.6851  -0.6511  -0.1826
    -0.1716  -0.1364  -0.0672   0.1628   0.4609   0.6086   0.8416   0.8460
     0.8959   0.9416   1.0778   1.1540   1.1634   1.1994   1.2137   1.3172
     1.3207   1.3408   1.3534   1.3995   1.4442   1.4726   1.5312   1.5501
     1.5820   1.6388   1.6392   1.6802   1.7126   1.7902   1.8606   1.9905
     2.0226   2.1837   2.1988   2.2317   2.2896   2.2954   2.5186   2.5198
     2.8644   2.9411   3.0765   4.2439   4.2696   4.3410   4.3553   5.7760
     5.7896   6.0015   6.4068   6.5128   7.7679   7.8763   8.0034   8.2031
     8.4885   8.6276   8.7394   8.8897   9.0511   9.0679   9.1672   9.2376
     9.3351   9.3740

          k =-0.5000-0.5125 0.0000 ( 36660 PWs)   bands (ev):

   -38.3984 -38.3220 -22.8134 -22.8012 -22.7115 -22.6595 -18.9822 -18.9546
   -18.9038 -18.8835 -18.4786 -18.4079 -14.8051 -14.7953 -14.7690 -14.7300
   -14.5279 -14.5270 -14.2933 -14.2502 -14.2402 -14.2238 -14.1700 -13.9209
   -13.9024 -13.8518 -12.6092  -9.0072  -8.9960  -8.8219  -8.7184  -8.7068
    -8.6221  -8.5240  -8.5095  -8.2551  -8.2442  -8.1850  -8.1160  -4.4952
    -4.4322  -3.9116  -3.8323  -3.0072  -3.0044  -2.9898  -2.8092  -2.7645
    -2.6192  -2.6072  -2.5305  -2.4859  -2.1204  -2.1187  -2.0989  -2.0509
    -1.8154  -1.3479  -1.3038  -1.2277  -1.1787  -1.0913  -1.0064  -0.9963
    -0.9852  -0.8871  -0.8635  -0.8586  -0.7830  -0.7683  -0.7365  -0.1392
    -0.1362  -0.1282  -0.0273   0.1945   0.4980   0.6293   0.9043   0.9703
     1.1092   1.1533   1.2015   1.2185   1.2343   1.2462   1.2564   1.2668
     1.2862   1.3649   1.4620   1.4928   1.5378   1.5525   1.5804   1.7377
     1.7610   1.7669   1.7734   1.7803   1.7854   1.9004   1.9858   2.0961
     2.2829   2.3015   2.3908   2.4063   2.4582   2.4961   2.6807   2.6915
     2.6917   2.7824   3.0080   4.4573   4.4842   4.5712   4.5841   5.5280
     5.5402   5.7747   6.2961   6.4120   7.8065   7.8417   8.1130   8.1211
     8.4393   8.6341   8.8582   8.9509   8.9684   8.9878   9.1263   9.2368
     9.2563   9.3233

     the Fermi energy is     2.6869 ev

!    total energy              =   -1868.72425909 Ry
     Harris-Foulkes estimate   =   -1868.72425965 Ry
     estimated scf accuracy    <       0.00000095 Ry

     The total energy is the sum of the following terms:

     one-electron contribution =  -26792.93893305 Ry
     hartree contribution      =   13548.70024155 Ry
     xc contribution           =    -642.19900654 Ry
     ewald contribution        =   12017.72419160 Ry
     smearing contrib. (-TS)   =      -0.01075266 Ry

     convergence has been achieved in  33 iterations

     negative rho (up, down):  9.057E-02 0.000E+00

     Forces acting on atoms (cartesian axes, Ry/au):

     atom    1 type  3   force =     0.00000000    0.00000000   -0.00065640
     atom    2 type  2   force =     0.00000000    0.00000000   -0.00010579
     atom    3 type  3   force =     0.00000000    0.00000000    0.00031348
     atom    4 type  1   force =     0.00000000    0.00000000   -0.00025305
     atom    5 type  2   force =     0.00000000    0.00000000    0.00086594
     atom    6 type  3   force =     0.00000000    0.00000000    0.00134789
     atom    7 type  3   force =     0.00000000    0.00000000    0.00105097
     atom    8 type  4   force =     0.00000000    0.00000000   -0.00298831
     atom    9 type  3   force =     0.00000000    0.00000000    0.00509480
     atom   10 type  3   force =     0.00000000    0.00000000    0.00347412
     atom   11 type  2   force =     0.00000000    0.00000000   -0.00209585
     atom   12 type  1   force =     0.00000000    0.00000000    0.01616134
     atom   13 type  3   force =     0.00000000    0.00000000   -0.01944444
     atom   14 type  3   force =     0.00000000    0.00000000    0.02262799
     atom   15 type  2   force =     0.00000000    0.00000000   -0.02188672
     atom   16 type  3   force =     0.00000000    0.00000000    0.02064898
     atom   17 type  1   force =     0.00000000    0.00000000   -0.00546088
     atom   18 type  2   force =     0.00000000    0.00000000   -0.02292794
     atom   19 type  3   force =     0.00000000    0.00000000    0.00425333
     atom   20 type  3   force =     0.00000000    0.00000000    0.00299126
     atom   21 type  4   force =     0.00000000    0.00000000   -0.00077885
     atom   22 type  3   force =     0.00000000    0.00000000   -0.00075716
     atom   23 type  3   force =     0.00000000    0.00000000    0.00063990
     atom   24 type  2   force =     0.00000000    0.00000000   -0.00141240
     atom   25 type  1   force =     0.00000000    0.00000000   -0.00001238
     atom   26 type  3   force =     0.00000000    0.00000000   -0.00205769
     atom   27 type  2   force =     0.00000000    0.00000000    0.00107631
     atom   28 type  3   force =     0.00000000    0.00000000    0.00029156

     Total force =     0.051999     Total SCF correction =     0.005050


     Computing stress (Cartesian axis) and pressure


     negative rho (up, down):  9.057E-02 0.000E+00
          total   stress  (Ry/bohr**3)                   (kbar)     P=       -6.85
  -0.00000158   0.00000000   0.00000000           -0.23        0.00        0.00
   0.00000000  -0.00010856   0.00000000            0.00      -15.97        0.00
   0.00000000   0.00000000  -0.00002951            0.00        0.00       -4.34

 
     init_run     :      9.09s CPU      9.89s WALL (       1 calls)
     electrons    :    539.97s CPU    578.78s WALL (       1 calls)
     forces       :      3.62s CPU      3.97s WALL (       1 calls)
     stress       :     19.43s CPU     20.37s WALL (       1 calls)

     Called by init_run:
     wfcinit      :      6.45s CPU      6.67s WALL (       1 calls)
     potinit      :      0.72s CPU      0.76s WALL (       1 calls)
     hinit0       :      0.96s CPU      1.15s WALL (       1 calls)

     Called by electrons:
     c_bands      :    429.25s CPU    444.68s WALL (      33 calls)
     sum_band     :     74.41s CPU     87.52s WALL (      33 calls)
     v_of_rho     :      2.51s CPU      2.55s WALL (      34 calls)
     newd         :     17.74s CPU     28.10s WALL (      34 calls)
     mix_rho      :     16.45s CPU     16.61s WALL (      33 calls)

     Called by c_bands:
     init_us_2    :      3.95s CPU      4.03s WALL (    1725 calls)
     cegterg      :    405.16s CPU    420.05s WALL (     825 calls)

     Called by sum_band:
     sum_band:bec :      0.24s CPU      0.24s WALL (     825 calls)
     addusdens    :     19.40s CPU     31.79s WALL (      33 calls)

     Called by *egterg:
     h_psi        :    203.05s CPU    212.06s WALL (    3583 calls)
     s_psi        :     22.97s CPU     23.29s WALL (    3583 calls)
     g_psi        :      0.66s CPU      0.67s WALL (    2733 calls)
     cdiaghg      :    107.42s CPU    107.99s WALL (    3558 calls)

     Called by h_psi:
     h_psi:calbec :     23.81s CPU     24.95s WALL (    3583 calls)
     vloc_psi     :    154.39s CPU    157.18s WALL (    3583 calls)
     add_vuspsi   :     23.49s CPU     26.37s WALL (    3583 calls)

     General routines
     calbec       :     37.64s CPU     38.85s WALL (    4533 calls)
     fft          :      1.73s CPU      1.85s WALL (     465 calls)
     ffts         :      8.55s CPU      8.65s WALL (   14615 calls)
     fftw         :    175.08s CPU    178.13s WALL (  590998 calls)
     interpolate  :      0.23s CPU      0.25s WALL (      34 calls)
 
     Parallel routines
     fft_scatt_xy :     23.04s CPU     23.39s WALL (  606078 calls)
     fft_scatt_yz :    100.69s CPU    102.46s WALL (  606078 calls)
 
     PWSCF        :   9m33.03s CPU  10m14.02s WALL

 
   This run was terminated on:  17:26: 4   5May2021            

=------------------------------------------------------------------------------=
   JOB DONE.
=------------------------------------------------------------------------------=
[1620249964.286772] [holy7c16301:46904:0]          mpool.c:43   UCX  WARN  object 0x45ade40 was not returned to mpool ucp_requests
[1620249964.287126] [holy7c16303:53270:0]          mpool.c:43   UCX  WARN  object 0x3f21840 was not returned to mpool ucp_requests
[1620249964.291251] [holy7c16206:22143:0]          mpool.c:43   UCX  WARN  object 0x32d0340 was not returned to mpool ucp_requests
[1620249964.291270] [holy7c16206:22143:0]          mpool.c:43   UCX  WARN  object 0x32d06c0 was not returned to mpool ucp_requests
[1620249964.292415] [holy7c16110:213946:0]          mpool.c:43   UCX  WARN  object 0x4189680 was not returned to mpool ucp_requests
[1620249964.292432] [holy7c16110:213946:0]          mpool.c:43   UCX  WARN  object 0x4189a00 was not returned to mpool ucp_requests
[1620249964.291618] [holy7c16110:213947:0]          mpool.c:43   UCX  WARN  object 0x3971300 was not returned to mpool ucp_requests
[1620249964.290605] [holy7c16309:185145:0]          mpool.c:43   UCX  WARN  object 0x387d1c0 was not returned to mpool ucp_requests
[1620249964.293222] [holy7c16303:53269:0]          mpool.c:43   UCX  WARN  object 0x33e4b40 was not returned to mpool ucp_requests
[1620249964.293243] [holy7c16303:53269:0]          mpool.c:43   UCX  WARN  object 0x33e5080 was not returned to mpool ucp_requests
