
     Program PWSCF v.6.5 starts on  5May2021 at 18:27:45 

     This program is part of the open-source Quantum ESPRESSO suite
     for quantum simulation of materials; please cite
         "P. Giannozzi et al., J. Phys.:Condens. Matter 21 395502 (2009);
         "P. Giannozzi et al., J. Phys.:Condens. Matter 29 465901 (2017);
          URL http://www.quantum-espresso.org", 
     in publications or presentations arising from this work. More details at
     http://www.quantum-espresso.org/quote

     Parallel version (MPI), running on    20 processors

     MPI processes distributed on    10 nodes
     R & G space division:  proc/nbgrp/npool/nimage =      20
     Reading input from YBCO_CuO_cleave_6.5_sep_scf.pwi
Warning: card &IONS ignored
Warning: card     ION_DYNAMICS = 'BFGS' ignored
Warning: card / ignored
Warning: card &CELL ignored
Warning: card     CELL_DYNAMICS = 'BFGS' ignored
Warning: card / ignored

     Current dimensions of program PWSCF are:
     Max number of different atomic species (ntypx) = 10
     Max number of k-points (npk) =  40000
     Max angular momentum in pseudopotentials (lmaxx) =  3

     Subspace diagonalization in iterative solution of the eigenvalue problem:
     one sub-group per band group will be used
     scalapack distributed-memory algorithm (size of sub-group:  4*  4 procs)

     Message from routine setup:
     using ibrav=0 with symmetry is DISCOURAGED, use correct ibrav instead
 
     Parallelization info
     --------------------
     sticks:   dense  smooth     PW     G-vecs:    dense   smooth      PW
     Min         150      50     14                81608    15700    2446
     Max         151      51     15                81651    15725    2499
     Sum        3015    1011    293              1632577   314191   49477
 


     bravais-lattice index     =            0
     lattice parameter (alat)  =       7.3477  a.u.
     unit-cell volume          =    5003.7270 (a.u.)^3
     number of atoms/cell      =           28
     number of atomic types    =            4
     number of electrons       =       229.00
     number of Kohn-Sham states=          138
     kinetic-energy cutoff     =      60.0000  Ry
     charge density cutoff     =     720.0000  Ry
     convergence threshold     =      1.0E-06
     mixing beta               =       0.2000
     number of iterations used =           10  local-TF  mixing
     Exchange-correlation= SLA PW PBE PBE
                           (   1   4   3   4   0   0   0)

     celldm(1)=   7.347715  celldm(2)=   0.000000  celldm(3)=   0.000000
     celldm(4)=   0.000000  celldm(5)=   0.000000  celldm(6)=   0.000000

     crystal axes: (cart. coord. in units of alat)
               a(1) = (   1.000000   0.000000   0.000000 )  
               a(2) = (   0.000000   0.975577   0.000000 )  
               a(3) = (   0.000000   0.000000  12.929299 )  

     reciprocal axes: (cart. coord. in units 2 pi/alat)
               b(1) = (  1.000000  0.000000  0.000000 )  
               b(2) = (  0.000000  1.025034  0.000000 )  
               b(3) = (  0.000000  0.000000  0.077344 )  


     PseudoPot. # 1 for Ba read from file:
     /n/holyscratch01/hoffman_lab/ruizhe/YBCO_Project/pseudo/Ba.pbe-nsp-van.UPF
     MD5 check sum: 2b9c31dd849566dd297d80989662b7a0
     Pseudo is Ultrasoft + core correction, Zval = 10.0
     Generated by new atomic code, or converted to UPF format
     Using radial grid of  907 points,  6 beta functions with: 
                l(1) =   0
                l(2) =   0
                l(3) =   1
                l(4) =   1
                l(5) =   2
                l(6) =   2
     Q(r) pseudized with  6 coefficients,  rinner =    1.200   1.200   1.200
                                                       1.200   1.200

     PseudoPot. # 2 for Cu read from file:
     /n/holyscratch01/hoffman_lab/ruizhe/YBCO_Project/pseudo/Cu.pbe-n-van_ak.UPF
     MD5 check sum: 34e3282627ffb533726feb647e090d62
     Pseudo is Ultrasoft + core correction, Zval = 11.0
     Generated by new atomic code, or converted to UPF format
     Using radial grid of  867 points,  6 beta functions with: 
                l(1) =   0
                l(2) =   0
                l(3) =   1
                l(4) =   1
                l(5) =   2
                l(6) =   2
     Q(r) pseudized with  8 coefficients,  rinner =    1.400   1.400   1.400
                                                       1.400   1.400

     PseudoPot. # 3 for O  read from file:
     /n/holyscratch01/hoffman_lab/ruizhe/YBCO_Project/pseudo/O.pbe-van_ak.UPF
     MD5 check sum: 783ce7fe4c79b6a4916957118fed0856
     Pseudo is Ultrasoft, Zval =  6.0
     Generated by new atomic code, or converted to UPF format
     Using radial grid of  737 points,  4 beta functions with: 
                l(1) =   0
                l(2) =   0
                l(3) =   1
                l(4) =   1
     Q(r) pseudized with  8 coefficients,  rinner =    0.800   0.800   0.800


     PseudoPot. # 4 for Y  read from file:
     /n/holyscratch01/hoffman_lab/ruizhe/YBCO_Project/pseudo/Y.pbe-nsp-van.UPF
     MD5 check sum: 4412fed3ab108fed87a1b7d6a69a4a38
     Pseudo is Ultrasoft + core correction, Zval = 11.0
     Generated by new atomic code, or converted to UPF format
     Using radial grid of  885 points,  6 beta functions with: 
                l(1) =   0
                l(2) =   0
                l(3) =   1
                l(4) =   1
                l(5) =   2
                l(6) =   2
     Q(r) pseudized with  6 coefficients,  rinner =    1.200   1.200   1.200
                                                       1.200   1.200

     atomic species   valence    mass     pseudopotential
        Ba            10.00   137.32700     Ba( 1.00)
        Cu            11.00    63.54600     Cu( 1.00)
        O              6.00    15.99900     O ( 1.00)
        Y             11.00    88.90584     Y ( 1.00)

      4 Sym. Ops. (no inversion) found



   Cartesian axes

     site n.     atom                  positions (alat units)
         1           O   tau(   1) = (   0.0000000   0.4877884  -0.0257983  )
         2           Cu  tau(   2) = (   0.0000000   0.0000000   0.0215779  )
         3           O   tau(   3) = (   0.0000000   0.0000000   0.5073114  )
         4           Ba  tau(   4) = (   0.4999996   0.4877884   0.5319677  )
         5           Cu  tau(   5) = (   0.0000000   0.0000000   1.0495845  )
         6           O   tau(   6) = (   0.4999996   0.0000000   1.1181579  )
         7           O   tau(   7) = (   0.0000000   0.4877884   1.1273137  )
         8           Y   tau(   8) = (   0.4999996   0.4877884   1.4938777  )
         9           O   tau(   9) = (   0.0000000   0.4877884   1.8497402  )
        10           O   tau(  10) = (   0.4999996   0.0000000   1.8692709  )
        11           Cu  tau(  11) = (   0.0000000   0.0000000   1.9417560  )
        12           Ba  tau(  12) = (   0.4999996   0.4877884   2.4526063  )
        13           O   tau(  13) = (   0.0000000   0.0000000   2.5103470  )
        14           O   tau(  14) = (   0.0000000   0.4877884   2.9968469  )
        15           Cu  tau(  15) = (   0.0000000   0.0000000   2.9968521  )
        16           O   tau(  16) = (   0.0000000   0.0000000   5.1550349  )
        17           Ba  tau(  17) = (   0.4999996   0.4877884   5.2127679  )
        18           Cu  tau(  18) = (   0.0000000   0.0000000   5.7236413  )
        19           O   tau(  19) = (   0.4999996   0.0000000   5.7961136  )
        20           O   tau(  20) = (   0.0000000   0.4877884   5.8156263  )
        21           Y   tau(  21) = (   0.4999996   0.4877884   6.1714913  )
        22           O   tau(  22) = (   0.0000000   0.4877884   6.5380553  )
        23           O   tau(  23) = (   0.4999996   0.0000000   6.5472240  )
        24           Cu  tau(  24) = (   0.0000000   0.0000000   6.6158025  )
        25           Ba  tau(  25) = (   0.4999996   0.4877884   7.1334039  )
        26           O   tau(  26) = (   0.0000000   0.0000000   7.1580602  )
        27           Cu  tau(  27) = (   0.0000000   0.0000000   7.6437654  )
        28           O   tau(  28) = (   0.0000000   0.4877884   7.6911467  )

     number of k points=    25  Gaussian smearing, width (Ry)=  0.0100
                       cart. coord. in units 2pi/alat
        k(    1) = (   0.0000000   0.0000000   0.0000000), wk =   0.0312500
        k(    2) = (   0.0000000   0.1281293   0.0000000), wk =   0.0625000
        k(    3) = (   0.0000000   0.2562585   0.0000000), wk =   0.0625000
        k(    4) = (   0.0000000   0.3843878   0.0000000), wk =   0.0625000
        k(    5) = (   0.0000000  -0.5125170   0.0000000), wk =   0.0312500
        k(    6) = (   0.1250000   0.0000000   0.0000000), wk =   0.0625000
        k(    7) = (   0.1250000   0.1281293   0.0000000), wk =   0.1250000
        k(    8) = (   0.1250000   0.2562585   0.0000000), wk =   0.1250000
        k(    9) = (   0.1250000   0.3843878   0.0000000), wk =   0.1250000
        k(   10) = (   0.1250000  -0.5125170   0.0000000), wk =   0.0625000
        k(   11) = (   0.2500000   0.0000000   0.0000000), wk =   0.0625000
        k(   12) = (   0.2500000   0.1281293   0.0000000), wk =   0.1250000
        k(   13) = (   0.2500000   0.2562585   0.0000000), wk =   0.1250000
        k(   14) = (   0.2500000   0.3843878   0.0000000), wk =   0.1250000
        k(   15) = (   0.2500000  -0.5125170   0.0000000), wk =   0.0625000
        k(   16) = (   0.3750000   0.0000000   0.0000000), wk =   0.0625000
        k(   17) = (   0.3750000   0.1281293   0.0000000), wk =   0.1250000
        k(   18) = (   0.3750000   0.2562585   0.0000000), wk =   0.1250000
        k(   19) = (   0.3750000   0.3843878   0.0000000), wk =   0.1250000
        k(   20) = (   0.3750000  -0.5125170   0.0000000), wk =   0.0625000
        k(   21) = (  -0.5000000   0.0000000   0.0000000), wk =   0.0312500
        k(   22) = (  -0.5000000   0.1281293   0.0000000), wk =   0.0625000
        k(   23) = (  -0.5000000   0.2562585   0.0000000), wk =   0.0625000
        k(   24) = (  -0.5000000   0.3843878   0.0000000), wk =   0.0625000
        k(   25) = (  -0.5000000  -0.5125170   0.0000000), wk =   0.0312500

     Dense  grid:  1632577 G-vectors     FFT dimensions: (  64,  64, 864)

     Smooth grid:   314191 G-vectors     FFT dimensions: (  40,  36, 480)

     Estimated max dynamical RAM per process >     520.97 MB

     Estimated total dynamical RAM >      10.18 GB

     Initial potential from superposition of free atoms

     starting charge  228.84827, renormalised to  229.00000

     negative rho (up, down):  8.945E-02 0.000E+00
     Starting wfcs are  201 randomized atomic wfcs

     total cpu time spent up to now is       11.0 secs

     Self-consistent Calculation

     iteration #  1     ecut=    60.00 Ry     beta= 0.20
     Davidson diagonalization with overlap
     ethr =  1.00E-02,  avg # of iterations =  2.0

     negative rho (up, down):  8.733E-02 0.000E+00

     total cpu time spent up to now is       28.3 secs

     total energy              =   -1869.52047489 Ry
     Harris-Foulkes estimate   =   -1871.09974303 Ry
     estimated scf accuracy    <      13.52284272 Ry

     iteration #  2     ecut=    60.00 Ry     beta= 0.20
     Davidson diagonalization with overlap
     ethr =  5.91E-03,  avg # of iterations =  1.0

     negative rho (up, down):  8.610E-02 0.000E+00

     total cpu time spent up to now is       44.4 secs

     total energy              =   -1868.88670014 Ry
     Harris-Foulkes estimate   =   -1869.87477935 Ry
     estimated scf accuracy    <       5.82971410 Ry

     iteration #  3     ecut=    60.00 Ry     beta= 0.20
     Davidson diagonalization with overlap
     ethr =  2.55E-03,  avg # of iterations =  1.0

     negative rho (up, down):  8.571E-02 0.000E+00

     total cpu time spent up to now is       60.1 secs

     total energy              =   -1868.70969584 Ry
     Harris-Foulkes estimate   =   -1869.16202233 Ry
     estimated scf accuracy    <       4.26958897 Ry

     iteration #  4     ecut=    60.00 Ry     beta= 0.20
     Davidson diagonalization with overlap
     ethr =  1.86E-03,  avg # of iterations =  1.8

     negative rho (up, down):  8.589E-02 0.000E+00

     total cpu time spent up to now is       76.7 secs

     total energy              =   -1868.85806563 Ry
     Harris-Foulkes estimate   =   -1868.92485610 Ry
     estimated scf accuracy    <       2.31396752 Ry

     iteration #  5     ecut=    60.00 Ry     beta= 0.20
     Davidson diagonalization with overlap
     ethr =  1.01E-03,  avg # of iterations =  1.0

     negative rho (up, down):  8.640E-02 0.000E+00

     total cpu time spent up to now is       92.6 secs

     total energy              =   -1868.82654081 Ry
     Harris-Foulkes estimate   =   -1868.89306179 Ry
     estimated scf accuracy    <       1.27367564 Ry

     iteration #  6     ecut=    60.00 Ry     beta= 0.20
     Davidson diagonalization with overlap
     ethr =  5.56E-04,  avg # of iterations =  1.0

     negative rho (up, down):  8.714E-02 0.000E+00

     total cpu time spent up to now is      108.4 secs

     total energy              =   -1868.77389226 Ry
     Harris-Foulkes estimate   =   -1868.84307641 Ry
     estimated scf accuracy    <       0.53307599 Ry

     iteration #  7     ecut=    60.00 Ry     beta= 0.20
     Davidson diagonalization with overlap
     ethr =  2.33E-04,  avg # of iterations =  5.0

     negative rho (up, down):  8.761E-02 0.000E+00

     total cpu time spent up to now is      128.7 secs

     total energy              =   -1868.77374967 Ry
     Harris-Foulkes estimate   =   -1868.79181725 Ry
     estimated scf accuracy    <       0.39037725 Ry

     iteration #  8     ecut=    60.00 Ry     beta= 0.20
     Davidson diagonalization with overlap
     ethr =  1.70E-04,  avg # of iterations =  3.1

     negative rho (up, down):  8.884E-02 0.000E+00

     total cpu time spent up to now is      146.8 secs

     total energy              =   -1868.75463993 Ry
     Harris-Foulkes estimate   =   -1868.78832430 Ry
     estimated scf accuracy    <       0.59478751 Ry

     iteration #  9     ecut=    60.00 Ry     beta= 0.20
     Davidson diagonalization with overlap
     ethr =  1.70E-04,  avg # of iterations =  4.0

     negative rho (up, down):  8.947E-02 0.000E+00

     total cpu time spent up to now is      166.0 secs

     total energy              =   -1868.75678582 Ry
     Harris-Foulkes estimate   =   -1868.76294169 Ry
     estimated scf accuracy    <       0.39635192 Ry

     iteration # 10     ecut=    60.00 Ry     beta= 0.20
     Davidson diagonalization with overlap
     ethr =  1.70E-04,  avg # of iterations =  1.3

     negative rho (up, down):  9.031E-02 0.000E+00

     total cpu time spent up to now is      182.5 secs

     total energy              =   -1868.73889809 Ry
     Harris-Foulkes estimate   =   -1868.75981299 Ry
     estimated scf accuracy    <       0.38624267 Ry

     iteration # 11     ecut=    60.00 Ry     beta= 0.20
     Davidson diagonalization with overlap
     ethr =  1.69E-04,  avg # of iterations =  2.4

     negative rho (up, down):  9.108E-02 0.000E+00

     total cpu time spent up to now is      200.0 secs

     total energy              =   -1868.73370367 Ry
     Harris-Foulkes estimate   =   -1868.74755884 Ry
     estimated scf accuracy    <       0.79500681 Ry

     iteration # 12     ecut=    60.00 Ry     beta= 0.20
     Davidson diagonalization with overlap
     ethr =  1.69E-04,  avg # of iterations =  2.6

     negative rho (up, down):  9.109E-02 0.000E+00

     total cpu time spent up to now is      217.6 secs

     total energy              =   -1868.73423401 Ry
     Harris-Foulkes estimate   =   -1868.73983866 Ry
     estimated scf accuracy    <       0.74109885 Ry

     iteration # 13     ecut=    60.00 Ry     beta= 0.20
     Davidson diagonalization with overlap
     ethr =  1.69E-04,  avg # of iterations =  1.0

     negative rho (up, down):  9.079E-02 0.000E+00

     total cpu time spent up to now is      233.1 secs

     total energy              =   -1868.72836656 Ry
     Harris-Foulkes estimate   =   -1868.73544965 Ry
     estimated scf accuracy    <       0.31382549 Ry

     iteration # 14     ecut=    60.00 Ry     beta= 0.20
     Davidson diagonalization with overlap
     ethr =  1.37E-04,  avg # of iterations =  3.0

     negative rho (up, down):  9.036E-02 0.000E+00

     total cpu time spent up to now is      250.9 secs

     total energy              =   -1868.72332045 Ry
     Harris-Foulkes estimate   =   -1868.72993314 Ry
     estimated scf accuracy    <       0.05411668 Ry

     iteration # 15     ecut=    60.00 Ry     beta= 0.20
     Davidson diagonalization with overlap
     ethr =  2.36E-05,  avg # of iterations =  8.2

     negative rho (up, down):  9.174E-02 0.000E+00

     total cpu time spent up to now is      276.7 secs

     total energy              =   -1868.72469680 Ry
     Harris-Foulkes estimate   =   -1868.72572364 Ry
     estimated scf accuracy    <       0.02704057 Ry

     iteration # 16     ecut=    60.00 Ry     beta= 0.20
     Davidson diagonalization with overlap
     ethr =  1.18E-05,  avg # of iterations =  2.1

     negative rho (up, down):  9.112E-02 0.000E+00

     total cpu time spent up to now is      293.5 secs

     total energy              =   -1868.72480709 Ry
     Harris-Foulkes estimate   =   -1868.72499482 Ry
     estimated scf accuracy    <       0.01586503 Ry

     iteration # 17     ecut=    60.00 Ry     beta= 0.20
     Davidson diagonalization with overlap
     ethr =  6.93E-06,  avg # of iterations =  3.2

     negative rho (up, down):  8.960E-02 0.000E+00

     total cpu time spent up to now is      311.8 secs

     total energy              =   -1868.72461489 Ry
     Harris-Foulkes estimate   =   -1868.72493540 Ry
     estimated scf accuracy    <       0.01252726 Ry

     iteration # 18     ecut=    60.00 Ry     beta= 0.20
     Davidson diagonalization with overlap
     ethr =  5.47E-06,  avg # of iterations =  3.9

     negative rho (up, down):  9.520E-02 0.000E+00

     total cpu time spent up to now is      331.0 secs

     total energy              =   -1868.72476744 Ry
     Harris-Foulkes estimate   =   -1868.72476827 Ry
     estimated scf accuracy    <       0.00915664 Ry

     iteration # 19     ecut=    60.00 Ry     beta= 0.20
     Davidson diagonalization with overlap
     ethr =  4.00E-06,  avg # of iterations =  2.7

     negative rho (up, down):  9.743E-02 0.000E+00

     total cpu time spent up to now is      348.7 secs

     total energy              =   -1868.72404561 Ry
     Harris-Foulkes estimate   =   -1868.72481777 Ry
     estimated scf accuracy    <       0.00906231 Ry

     iteration # 20     ecut=    60.00 Ry     beta= 0.20
     Davidson diagonalization with overlap
     ethr =  3.96E-06,  avg # of iterations =  6.9

     negative rho (up, down):  9.825E-02 0.000E+00

     total cpu time spent up to now is      372.1 secs

     total energy              =   -1868.72409133 Ry
     Harris-Foulkes estimate   =   -1868.72444658 Ry
     estimated scf accuracy    <       0.01589169 Ry

     iteration # 21     ecut=    60.00 Ry     beta= 0.20
     Davidson diagonalization with overlap
     ethr =  3.96E-06,  avg # of iterations =  2.8

     negative rho (up, down):  1.021E-01 0.000E+00

     total cpu time spent up to now is      389.8 secs

     total energy              =   -1868.72297274 Ry
     Harris-Foulkes estimate   =   -1868.72414356 Ry
     estimated scf accuracy    <       0.01644549 Ry

     iteration # 22     ecut=    60.00 Ry     beta= 0.20
     Davidson diagonalization with overlap
     ethr =  3.96E-06,  avg # of iterations =  4.8

     negative rho (up, down):  1.015E-01 0.000E+00

     total cpu time spent up to now is      410.4 secs

     total energy              =   -1868.72240323 Ry
     Harris-Foulkes estimate   =   -1868.72305287 Ry
     estimated scf accuracy    <       0.01374554 Ry

     iteration # 23     ecut=    60.00 Ry     beta= 0.20
     Davidson diagonalization with overlap
     ethr =  3.96E-06,  avg # of iterations =  6.4

     negative rho (up, down):  1.038E-01 0.000E+00

     total cpu time spent up to now is      432.4 secs

     total energy              =   -1868.72211236 Ry
     Harris-Foulkes estimate   =   -1868.72247211 Ry
     estimated scf accuracy    <       0.01009921 Ry

     iteration # 24     ecut=    60.00 Ry     beta= 0.20
     Davidson diagonalization with overlap
     ethr =  3.96E-06,  avg # of iterations =  7.3

     negative rho (up, down):  9.434E-02 0.000E+00

     total cpu time spent up to now is      456.0 secs

     total energy              =   -1868.72153396 Ry
     Harris-Foulkes estimate   =   -1868.72214624 Ry
     estimated scf accuracy    <       0.00702221 Ry

     iteration # 25     ecut=    60.00 Ry     beta= 0.20
     Davidson diagonalization with overlap
     ethr =  3.07E-06,  avg # of iterations =  6.0

     negative rho (up, down):  9.383E-02 0.000E+00

     total cpu time spent up to now is      477.8 secs

     total energy              =   -1868.72153137 Ry
     Harris-Foulkes estimate   =   -1868.72163046 Ry
     estimated scf accuracy    <       0.00188601 Ry

     iteration # 26     ecut=    60.00 Ry     beta= 0.20
     Davidson diagonalization with overlap
     ethr =  8.24E-07,  avg # of iterations =  6.6

     negative rho (up, down):  9.337E-02 0.000E+00

     total cpu time spent up to now is      500.8 secs

     total energy              =   -1868.72160401 Ry
     Harris-Foulkes estimate   =   -1868.72156086 Ry
     estimated scf accuracy    <       0.00090286 Ry

     iteration # 27     ecut=    60.00 Ry     beta= 0.20
     Davidson diagonalization with overlap
     ethr =  3.94E-07,  avg # of iterations =  4.0

     negative rho (up, down):  9.175E-02 0.000E+00

     total cpu time spent up to now is      520.1 secs

     total energy              =   -1868.72160090 Ry
     Harris-Foulkes estimate   =   -1868.72162825 Ry
     estimated scf accuracy    <       0.00030021 Ry

     iteration # 28     ecut=    60.00 Ry     beta= 0.20
     Davidson diagonalization with overlap
     ethr =  1.31E-07,  avg # of iterations =  5.9

     negative rho (up, down):  9.108E-02 0.000E+00

     total cpu time spent up to now is      542.0 secs

     total energy              =   -1868.72159754 Ry
     Harris-Foulkes estimate   =   -1868.72161253 Ry
     estimated scf accuracy    <       0.00009981 Ry

     iteration # 29     ecut=    60.00 Ry     beta= 0.20
     Davidson diagonalization with overlap
     ethr =  4.36E-08,  avg # of iterations =  4.8

     negative rho (up, down):  9.137E-02 0.000E+00

     total cpu time spent up to now is      563.8 secs

     total energy              =   -1868.72162400 Ry
     Harris-Foulkes estimate   =   -1868.72160669 Ry
     estimated scf accuracy    <       0.00007065 Ry

     iteration # 30     ecut=    60.00 Ry     beta= 0.20
     Davidson diagonalization with overlap
     c_bands:  1 eigenvalues not converged
     ethr =  3.09E-08,  avg # of iterations =  6.0

     negative rho (up, down):  9.101E-02 0.000E+00

     total cpu time spent up to now is      585.7 secs

     total energy              =   -1868.72161937 Ry
     Harris-Foulkes estimate   =   -1868.72162645 Ry
     estimated scf accuracy    <       0.00001818 Ry

     iteration # 31     ecut=    60.00 Ry     beta= 0.20
     Davidson diagonalization with overlap
     ethr =  7.94E-09,  avg # of iterations =  4.2

     negative rho (up, down):  9.115E-02 0.000E+00

     total cpu time spent up to now is      604.7 secs

     total energy              =   -1868.72162177 Ry
     Harris-Foulkes estimate   =   -1868.72162025 Ry
     estimated scf accuracy    <       0.00000903 Ry

     iteration # 32     ecut=    60.00 Ry     beta= 0.20
     Davidson diagonalization with overlap
     ethr =  3.94E-09,  avg # of iterations =  1.9

     negative rho (up, down):  9.115E-02 0.000E+00

     total cpu time spent up to now is      620.9 secs

     total energy              =   -1868.72162116 Ry
     Harris-Foulkes estimate   =   -1868.72162208 Ry
     estimated scf accuracy    <       0.00000625 Ry

     iteration # 33     ecut=    60.00 Ry     beta= 0.20
     Davidson diagonalization with overlap
     ethr =  2.73E-09,  avg # of iterations =  1.0

     negative rho (up, down):  9.109E-02 0.000E+00

     total cpu time spent up to now is      636.6 secs

     total energy              =   -1868.72162037 Ry
     Harris-Foulkes estimate   =   -1868.72162124 Ry
     estimated scf accuracy    <       0.00000547 Ry

     iteration # 34     ecut=    60.00 Ry     beta= 0.20
     Davidson diagonalization with overlap
     ethr =  2.39E-09,  avg # of iterations =  1.0

     negative rho (up, down):  9.104E-02 0.000E+00

     total cpu time spent up to now is      652.5 secs

     total energy              =   -1868.72161983 Ry
     Harris-Foulkes estimate   =   -1868.72162043 Ry
     estimated scf accuracy    <       0.00000431 Ry

     iteration # 35     ecut=    60.00 Ry     beta= 0.20
     Davidson diagonalization with overlap
     ethr =  1.88E-09,  avg # of iterations =  1.7

     negative rho (up, down):  9.079E-02 0.000E+00

     total cpu time spent up to now is      669.1 secs

     total energy              =   -1868.72161901 Ry
     Harris-Foulkes estimate   =   -1868.72161985 Ry
     estimated scf accuracy    <       0.00000345 Ry

     iteration # 36     ecut=    60.00 Ry     beta= 0.20
     Davidson diagonalization with overlap
     ethr =  1.51E-09,  avg # of iterations =  2.4

     negative rho (up, down):  9.053E-02 0.000E+00

     total cpu time spent up to now is      686.4 secs

     total energy              =   -1868.72162142 Ry
     Harris-Foulkes estimate   =   -1868.72161906 Ry
     estimated scf accuracy    <       0.00000218 Ry

     iteration # 37     ecut=    60.00 Ry     beta= 0.20
     Davidson diagonalization with overlap
     ethr =  9.51E-10,  avg # of iterations =  3.0

     negative rho (up, down):  9.054E-02 0.000E+00

     total cpu time spent up to now is      705.1 secs

     total energy              =   -1868.72162170 Ry
     Harris-Foulkes estimate   =   -1868.72162165 Ry
     estimated scf accuracy    <       0.00000124 Ry

     iteration # 38     ecut=    60.00 Ry     beta= 0.20
     Davidson diagonalization with overlap
     ethr =  5.41E-10,  avg # of iterations =  1.4

     negative rho (up, down):  9.052E-02 0.000E+00

     total cpu time spent up to now is      720.7 secs

     End of self-consistent calculation

          k = 0.0000 0.0000 0.0000 ( 39193 PWs)   bands (ev):

   -38.9326 -38.8556 -23.5613 -23.5485 -23.4655 -23.4001 -19.4653 -19.3974
   -18.9379 -18.9291 -18.8616 -18.8486 -16.2558 -16.2056 -15.2981 -15.2445
   -15.0452 -15.0414 -15.0354 -14.9911 -14.9423 -14.7800 -14.7261 -14.5425
   -14.5302 -14.2815 -12.9999  -8.8410  -8.7819  -8.7629  -8.6139  -8.5534
    -8.5413  -8.5266  -8.5146  -8.3734  -8.3504  -8.3368  -8.2550  -2.8874
    -2.8570  -2.8352  -2.8073  -2.7168  -2.6616  -2.6433  -2.6340  -2.6001
    -2.5598  -2.5239  -2.4692  -2.3481  -1.6926  -1.6302  -1.2409  -1.2243
    -1.1725  -0.9092  -0.8518  -0.8517  -0.8428  -0.8143  -0.8075  -0.6532
    -0.6510  -0.6190  -0.5991  -0.5801  -0.5727  -0.5205  -0.5153  -0.4893
    -0.4800  -0.3900  -0.3865  -0.3746  -0.3733  -0.3503  -0.2893  -0.2735
    -0.2357  -0.2311  -0.2219  -0.2072  -0.1567  -0.1217  -0.1179  -0.1006
     0.1842   0.3226   0.3670   0.4321   0.4356   0.4746   0.5050   0.5426
     0.5811   0.5934   0.5990   0.6844   0.6920   0.7044   0.7164   0.7186
     0.7611   1.1397   1.1814   1.2018   1.2095   1.2933   1.4013   1.4082
     1.4900   1.7068   1.8443   1.8925   1.9285   1.9713   1.9996   4.4204
     4.5153   4.5712   5.0891   5.1299   5.5862   5.8828   5.8979   6.0535
     6.1017   6.6036   6.7243   7.3616   7.3780   7.4359   7.5293   7.5812
     7.8039   7.8646

          k = 0.0000 0.1281 0.0000 ( 39189 PWs)   bands (ev):

   -38.9303 -38.8533 -23.5397 -23.5270 -23.4469 -23.3790 -19.4294 -19.3613
   -19.0334 -18.9533 -18.9347 -18.8584 -16.1469 -16.0976 -15.3063 -15.2509
   -15.0545 -15.0435 -15.0110 -14.9601 -14.9250 -14.8254 -14.7739 -14.5483
   -14.5343 -14.3137 -13.0715  -8.8301  -8.7649  -8.7478  -8.6029  -8.5459
    -8.5342  -8.5122  -8.5000  -8.3726  -8.3338  -8.3040  -8.2541  -2.9774
    -2.9695  -2.9514  -2.8958  -2.8378  -2.7868  -2.6455  -2.6386  -2.5299
    -2.5085  -2.4711  -2.4540  -2.3574  -1.7617  -1.7439  -1.6858  -1.6267
    -1.5746  -1.2396  -1.2044  -1.0190  -0.9415  -0.9040  -0.9028  -0.8966
    -0.8872  -0.8806  -0.8522  -0.8108  -0.6871  -0.5606  -0.5110  -0.4871
    -0.4731  -0.4140  -0.4058  -0.3558  -0.3331  -0.2580  -0.2551  -0.2438
    -0.2230  -0.2207  -0.1613  -0.1259  -0.1240  -0.1017   0.0615   0.0907
     0.1270   0.1641   0.2411   0.3026   0.3856   0.4067   0.4264   0.6456
     0.6646   0.6961   0.7145   0.7401   0.8623   0.9024   0.9169   0.9340
     0.9381   1.1178   1.1783   1.1870   1.2435   1.2561   1.3577   1.4882
     1.5428   1.7679   1.7923   2.0314   2.0577   2.2182   2.2317   4.7992
     4.8852   4.8906   5.3327   5.3684   5.7264   6.2049   6.2203   6.3513
     6.4115   6.8668   6.9845   7.3010   7.3752   7.5425   7.6806   7.7377
     8.0573   8.0661

          k = 0.0000 0.2563 0.0000 ( 39220 PWs)   bands (ev):

   -38.9247 -38.8477 -23.4867 -23.4739 -23.4015 -23.3271 -19.3383 -19.2700
   -19.2584 -19.1791 -18.9269 -18.8507 -15.8985 -15.8523 -15.3812 -15.3224
   -15.1180 -15.0933 -14.9642 -14.8935 -14.8905 -14.8763 -14.8455 -14.5263
   -14.5094 -14.3617 -13.2404  -8.8045  -8.7244  -8.7090  -8.5871  -8.5754
    -8.5744  -8.4206  -8.4090  -8.3967  -8.2495  -8.2349  -8.2225  -3.4057
    -3.3715  -3.2716  -3.2061  -2.7926  -2.7860  -2.6954  -2.6818  -2.6482
    -2.5215  -2.5089  -2.4565  -2.4491  -2.4017  -2.3840  -2.2929  -1.6927
    -1.6416  -1.6245  -1.5358  -1.4079  -1.2730  -1.2599  -1.2449  -1.1901
    -1.1310  -1.1255  -1.0666  -1.0519  -0.8790  -0.8314  -0.8174  -0.7661
    -0.6829  -0.6465  -0.5662  -0.4883  -0.4496  -0.4306  -0.2506  -0.2036
    -0.1848  -0.1841  -0.1813  -0.1051  -0.0958  -0.0864  -0.0344   0.0168
     0.3927   0.4119   0.4704   0.5247   0.5527   0.6154   0.6595   0.7270
     0.7333   0.8003   0.8334   0.8896   0.9576   0.9813   0.9814   1.0602
     1.0842   1.2186   1.2482   1.3768   1.4145   1.4793   1.4939   1.5027
     1.5591   1.6599   1.7204   2.1371   2.4267   2.5301   2.5541   5.5993
     5.7635   5.7780   5.9761   6.0524   6.1222   7.0664   7.0797   7.1447
     7.1706   7.2448   7.2624   7.4401   7.5541   7.9435   8.0104   8.0826
     8.2532   8.3719

          k = 0.0000 0.3844 0.0000 ( 39126 PWs)   bands (ev):

   -38.9191 -38.8421 -23.4322 -23.4193 -23.3551 -23.2737 -19.4563 -19.3774
   -19.2401 -19.1715 -18.9192 -18.8429 -15.6466 -15.6095 -15.5255 -15.4612
   -15.2315 -15.1858 -14.9850 -14.8909 -14.8530 -14.8387 -14.8237 -14.4678
   -14.4495 -14.3597 -13.4025  -8.7790  -8.6842  -8.6687  -8.6200  -8.6086
    -8.5415  -8.4654  -8.3000  -8.2876  -8.2417  -8.1378  -8.1308  -3.7728
    -3.7424  -3.5836  -3.5112  -3.3499  -3.3351  -3.3311  -2.6993  -2.6952
    -2.5003  -2.4865  -2.4469  -2.4379  -2.3776  -2.3636  -2.3070  -2.0017
    -1.8456  -1.6714  -1.6372  -1.6091  -1.6032  -1.5512  -1.5422  -1.4872
    -1.3725  -1.3678  -1.2132  -1.1646  -1.1010  -1.0753  -1.0610  -1.0088
    -0.8990  -0.8838  -0.8665  -0.7751  -0.5122  -0.3843  -0.3185  -0.2125
    -0.1905  -0.1748  -0.1606  -0.1555  -0.1007  -0.0604   0.1860   0.2571
     0.4614   0.5062   0.5781   0.6102   0.6315   0.6555   0.6749   0.6888
     0.7885   0.8028   0.8711   0.9492   1.0836   1.1311   1.1683   1.1783
     1.2711   1.3145   1.3266   1.4421   1.4608   1.6453   1.7005   1.7669
     1.8869   1.9025   1.9748   2.1062   2.4288   2.5087   2.5997   6.4539
     6.5855   6.6485   6.7640   6.8502   6.9513   7.0578   7.1324   7.7768
     7.7901   7.9097   7.9511   8.0191   8.1152   8.2135   8.2775   8.3536
     8.4179   8.8429

          k = 0.0000-0.5125 0.0000 ( 39274 PWs)   bands (ev):

   -38.9167 -38.8398 -23.4091 -23.3963 -23.3355 -23.2512 -19.5323 -19.4536
   -19.1970 -19.1282 -18.9159 -18.8396 -15.6021 -15.5486 -15.5162 -15.4786
   -15.3052 -15.2421 -15.0129 -14.8792 -14.8392 -14.8309 -14.8013 -14.4366
   -14.4181 -14.3450 -13.4672  -8.7685  -8.6677  -8.6518  -8.6315  -8.6203
    -8.5203  -8.4895  -8.2530  -8.2405  -8.2376  -8.1017  -8.0859  -3.9161
    -3.8878  -3.7260  -3.6435  -3.5883  -3.5666  -3.5657  -2.7340  -2.7305
    -2.5597  -2.5005  -2.4004  -2.3372  -2.3044  -2.2942  -2.2379  -2.1237
    -1.9161  -1.8395  -1.7811  -1.7694  -1.7394  -1.7339  -1.4768  -1.4724
    -1.4222  -1.3534  -1.3087  -1.2515  -1.1991  -1.1624  -1.1478  -1.1222
    -1.0940  -1.0621  -0.9003  -0.8407  -0.5474  -0.2987  -0.2442  -0.2349
    -0.2203  -0.2194  -0.1545  -0.1490  -0.1169  -0.0544   0.2777   0.3096
     0.4997   0.5169   0.5858   0.5972   0.6636   0.6647   0.7271   0.7440
     0.7551   0.7603   0.8282   0.8658   1.1580   1.2326   1.2441   1.2516
     1.2646   1.3225   1.3652   1.5688   1.6260   1.7503   1.7696   2.0136
     2.0288   2.0493   2.0650   2.1396   2.2932   2.3881   2.5219   6.9326
     7.0057   7.0151   7.0899   7.0926   7.1427   7.1568   7.4603   7.5785
     7.9477   8.1306   8.1631   8.3028   8.4196   8.4205   8.4327   8.4521
     8.7971   8.8540

          k = 0.1250 0.0000 0.0000 ( 39196 PWs)   bands (ev):

   -38.9308 -38.8538 -23.5429 -23.5301 -23.4503 -23.3821 -19.4329 -19.3646
   -19.0378 -18.9627 -18.9266 -18.8461 -16.1406 -16.0889 -15.3226 -15.2727
   -15.0931 -15.0825 -15.0239 -14.9784 -14.9702 -14.8094 -14.7529 -14.5433
   -14.5301 -14.2920 -13.0768  -8.8316  -8.7919  -8.7734  -8.6385  -8.5183
    -8.5063  -8.4923  -8.4804  -8.3352  -8.3177  -8.3001  -8.2278  -2.9723
    -2.9298  -2.8838  -2.8079  -2.8057  -2.7582  -2.6325  -2.6179  -2.5892
    -2.5498  -2.5474  -2.4914  -2.3483  -1.6783  -1.6161  -1.2354  -1.2188
    -1.2125  -1.1271  -1.0599  -0.9490  -0.9317  -0.9292  -0.9181  -0.8683
    -0.8409  -0.8394  -0.8052  -0.6719  -0.6172  -0.5822  -0.5660  -0.4254
    -0.3758  -0.3593  -0.3094  -0.2994  -0.2797  -0.2682  -0.2390  -0.2312
    -0.2242  -0.1560  -0.1431  -0.1332  -0.1216  -0.1193  -0.0948  -0.0851
     0.1185   0.1721   0.2181   0.2528   0.2590   0.4517   0.4594   0.4759
     0.4947   0.5060   0.5648   0.6688   0.6917   0.7364   0.8015   0.9259
     0.9432   1.0812   1.2153   1.2570   1.3477   1.3554   1.4240   1.4992
     1.5204   1.7555   1.7577   1.8545   1.9004   1.9343   2.0462   4.6310
     4.7057   4.7208   5.2987   5.3336   5.7121   6.1225   6.1415   6.2728
     6.3652   6.8324   6.9468   7.3422   7.4160   7.5294   7.6724   7.7305
     8.0879   8.1126

          k = 0.1250 0.1281 0.0000 ( 39204 PWs)   bands (ev):

   -38.9285 -38.8515 -23.5221 -23.5093 -23.4323 -23.3617 -19.3974 -19.3291
   -19.0420 -19.0212 -18.9653 -18.9427 -16.0326 -15.9819 -15.3206 -15.2687
   -15.0891 -15.0790 -14.9934 -14.9595 -14.9420 -14.8628 -14.8070 -14.5429
   -14.5286 -14.3146 -13.1267  -8.8201  -8.7793  -8.7631  -8.6664  -8.6539
    -8.6238  -8.4870  -8.4259  -8.3684  -8.3565  -8.1999  -8.1216  -3.0746
    -3.0386  -3.0276  -2.9439  -2.8368  -2.7930  -2.6831  -2.6474  -2.6212
    -2.6002  -2.4708  -2.4028  -2.3476  -1.7553  -1.7383  -1.7059  -1.5838
    -1.5264  -1.4428  -1.3979  -1.2342  -1.2173  -1.1368  -1.1060  -1.0081
    -0.8971  -0.8883  -0.7763  -0.6921  -0.6771  -0.6075  -0.5957  -0.5005
    -0.4885  -0.4553  -0.4220  -0.3368  -0.3270  -0.2841  -0.2807  -0.2409
    -0.1916  -0.1856  -0.1776  -0.1707  -0.0571  -0.0559   0.0629   0.0921
     0.1839   0.2367   0.3257   0.3694   0.3873   0.4054   0.4448   0.4998
     0.5046   0.6473   0.6876   0.7181   0.7656   0.7848   0.8358   1.0582
     1.0699   1.1133   1.1235   1.1340   1.2332   1.4330   1.5664   1.6685
     1.7972   1.8612   2.0065   2.0595   2.0761   2.2291   2.2448   4.9457
     5.0200   5.0302   5.4985   5.5500   5.8406   6.4349   6.4537   6.5579
     6.6657   7.0527   7.1556   7.2487   7.3312   7.6888   7.7997   7.8729
     8.1600   8.2315

          k = 0.1250 0.2563 0.0000 ( 39258 PWs)   bands (ev):

   -38.9229 -38.8459 -23.4709 -23.4581 -23.3881 -23.3115 -19.3076 -19.2539
   -19.2390 -19.1746 -19.0222 -18.9469 -15.7865 -15.7393 -15.3663 -15.3079
   -15.1169 -15.0969 -14.9611 -14.9364 -14.9079 -14.8948 -14.8656 -14.5176
   -14.5009 -14.3509 -13.2486  -8.7960  -8.7899  -8.7775  -8.7246  -8.7100
    -8.6074  -8.5803  -8.5040  -8.3244  -8.3124  -8.1640  -8.0838  -3.5115
    -3.4674  -3.3031  -3.2360  -2.8154  -2.8040  -2.7453  -2.6929  -2.6761
    -2.6341  -2.6063  -2.5160  -2.5036  -2.3938  -2.3190  -2.2841  -1.7923
    -1.7321  -1.6334  -1.5911  -1.5792  -1.5670  -1.5252  -1.4629  -1.4227
    -1.0700  -1.0602  -0.9990  -0.9628  -0.8651  -0.8171  -0.8110  -0.7600
    -0.5833  -0.5762  -0.5189  -0.4121  -0.3850  -0.3793  -0.2896  -0.2775
    -0.2450  -0.1876  -0.1522  -0.1376  -0.0868  -0.0390   0.1749   0.2189
     0.4129   0.4348   0.4620   0.5370   0.5487   0.6447   0.6459   0.6654
     0.6832   0.7871   0.8430   0.8585   0.9359   0.9410   1.0703   1.0737
     1.0923   1.1306   1.2462   1.4495   1.4636   1.5380   1.6361   1.9060
     1.9548   2.0143   2.1252   2.2383   2.4255   2.5373   2.5603   5.6780
     5.8166   5.8316   6.0808   6.1496   6.2302   7.0196   7.1037   7.2707
     7.2805   7.3066   7.4861   7.6052   7.7169   7.8842   7.9733   8.1371
     8.2668   8.3174

          k = 0.1250 0.3844 0.0000 ( 39259 PWs)   bands (ev):

   -38.9173 -38.8403 -23.4184 -23.4055 -23.3430 -23.2601 -19.4503 -19.3714
   -19.2108 -19.1419 -19.0123 -18.9370 -15.5408 -15.5100 -15.4858 -15.4111
   -15.1989 -15.1621 -14.9650 -14.9510 -14.9142 -14.8189 -14.8137 -14.4638
   -14.4456 -14.3536 -13.3711  -8.7944  -8.7835  -8.7727  -8.6942  -8.6793
    -8.6303  -8.5481  -8.4632  -8.3725  -8.3603  -8.2081  -8.1581  -3.8935
    -3.8534  -3.6295  -3.5589  -3.3396  -3.3247  -3.3190  -2.7341  -2.7251
    -2.6218  -2.5579  -2.5425  -2.5290  -2.3930  -2.3455  -2.3276  -2.0550
    -2.0354  -2.0323  -1.9528  -1.8513  -1.7570  -1.6278  -1.4603  -1.4012
    -1.2545  -1.2491  -1.2281  -1.2070  -1.0856  -1.0621  -1.0140  -1.0023
    -0.6994  -0.6773  -0.5915  -0.5598  -0.4420  -0.3022  -0.2933  -0.2414
    -0.1829  -0.1791  -0.1691  -0.1324  -0.1013  -0.0391   0.2803   0.3387
     0.4635   0.5057   0.5970   0.6499   0.6728   0.7204   0.7339   0.7749
     0.8002   0.8053   0.9142   1.0108   1.0864   1.1085   1.1254   1.1271
     1.3782   1.4575   1.4683   1.7301   1.8605   1.8766   1.9358   1.9510
     1.9638   1.9911   2.1622   2.2333   2.4280   2.5385   2.6145   6.4477
     6.5144   6.5529   6.6943   6.7240   6.8818   6.9904   7.0903   7.7221
     7.8164   7.8276   7.8635   8.1384   8.2531   8.3400   8.3982   8.4367
     8.6218   8.9241

          k = 0.1250-0.5125 0.0000 ( 39204 PWs)   bands (ev):

   -38.9150 -38.8380 -23.3962 -23.3833 -23.3240 -23.2383 -19.5259 -19.4471
   -19.1684 -19.0993 -19.0081 -18.9329 -15.5617 -15.5073 -15.3988 -15.3605
   -15.2676 -15.2124 -14.9832 -14.9397 -14.9003 -14.8079 -14.7825 -14.4353
   -14.4168 -14.3440 -13.4214  -8.7690  -8.7644  -8.7577  -8.6803  -8.6648
    -8.6182  -8.5343  -8.4206  -8.4082  -8.3744  -8.2596  -8.2471  -4.0416
    -4.0032  -3.7751  -3.6979  -3.5794  -3.5615  -3.5605  -2.7506  -2.7445
    -2.5675  -2.4932  -2.4419  -2.4137  -2.3931  -2.3913  -2.3203  -2.2364
    -2.1969  -2.1859  -2.1804  -1.9336  -1.8029  -1.6847  -1.4121  -1.3814
    -1.3312  -1.3294  -1.2928  -1.2420  -1.1732  -1.1528  -1.0983  -1.0729
    -0.7451  -0.7072  -0.6780  -0.6317  -0.5448  -0.2962  -0.2794  -0.2113
    -0.1980  -0.1680  -0.1561  -0.0973  -0.0526  -0.0451   0.3764   0.4106
     0.5093   0.5759   0.6007   0.6323   0.6501   0.7443   0.7655   0.7688
     0.7777   0.7809   0.8695   1.0473   1.1663   1.1882   1.2102   1.3101
     1.3488   1.7435   1.7627   1.9038   1.9202   1.9492   1.9938   2.0283
     2.0441   2.0982   2.1326   2.1344   2.3106   2.4485   2.5427   6.6777
     6.7411   6.8096   6.8356   6.8954   7.0115   7.1000   7.5426   7.5464
     7.9321   8.3239   8.3466   8.3779   8.5511   8.5755   8.6199   8.6513
     8.7131   8.7808

          k = 0.2500 0.0000 0.0000 ( 39282 PWs)   bands (ev):

   -38.9264 -38.8494 -23.4977 -23.4849 -23.4133 -23.3380 -19.3514 -19.2822
   -19.2524 -19.1794 -18.9205 -18.8400 -15.8769 -15.8226 -15.4303 -15.3868
   -15.2119 -15.1910 -15.0903 -14.9683 -14.9335 -14.8450 -14.7822 -14.5379
   -14.5236 -14.3068 -13.2558  -8.8075  -8.8027  -8.7837  -8.6646  -8.4483
    -8.4364  -8.4070  -8.3950  -8.2775  -8.2361  -8.2172  -8.1605  -3.2758
    -3.2406  -3.2005  -3.1055  -2.6732  -2.6700  -2.6657  -2.6149  -2.5525
    -2.5165  -2.4668  -2.3905  -2.3885  -1.7600  -1.7099  -1.4305  -1.3570
    -1.3191  -1.3166  -1.3059  -1.2284  -1.2133  -1.2083  -1.1939  -1.1379
    -1.1298  -0.9440  -0.8866  -0.8317  -0.6623  -0.6081  -0.5822  -0.5734
    -0.5279  -0.4986  -0.4909  -0.3290  -0.3128  -0.3091  -0.2596  -0.2459
    -0.1448  -0.1132  -0.1090  -0.0907  -0.0749  -0.0473  -0.0189   0.0187
     0.0435   0.0917   0.1104   0.3078   0.3220   0.4613   0.5087   0.5417
     0.5527   0.6102   0.6317   0.7677   0.7979   0.8128   0.8203   0.8748
     0.9091   0.9237   1.2376   1.2484   1.2878   1.2892   1.4133   1.4481
     1.6035   1.7366   1.7791   1.8681   1.9757   2.0688   2.1761   5.0914
     5.1442   5.1556   5.8425   5.9277   6.0598   6.7557   6.7819   6.8677
     7.1141   7.2966   7.3156   7.3694   7.4120   7.9298   8.0474   8.1127
     8.3220   8.3966

          k = 0.2500 0.1281 0.0000 ( 39270 PWs)   bands (ev):

   -38.9241 -38.8471 -23.4788 -23.4659 -23.3965 -23.3193 -19.3174 -19.2480
   -19.2466 -19.1736 -19.0205 -18.9404 -15.7714 -15.7187 -15.4040 -15.3576
   -15.1845 -15.1671 -15.0515 -14.9442 -14.9108 -14.9075 -14.8442 -14.5276
   -14.5128 -14.3119 -13.2594  -8.8099  -8.8005  -8.7912  -8.6941  -8.6809
    -8.6698  -8.5096  -8.4707  -8.2943  -8.2824  -8.1391  -8.0520  -3.4201
    -3.3674  -3.2406  -3.1565  -2.7677  -2.7571  -2.7445  -2.7035  -2.6484
    -2.6420  -2.3812  -2.3719  -2.3012  -1.8014  -1.7539  -1.7439  -1.7392
    -1.7322  -1.6408  -1.5952  -1.5941  -1.5561  -1.4536  -1.4119  -1.1444
    -1.0324  -0.9750  -0.8383  -0.7636  -0.6671  -0.6238  -0.5963  -0.5351
    -0.5285  -0.5110  -0.4676  -0.4129  -0.3908  -0.3607  -0.2998  -0.2864
    -0.2612  -0.1997  -0.0814  -0.0600  -0.0465   0.0484   0.0725   0.0887
     0.2360   0.2708   0.4060   0.4580   0.4730   0.5359   0.5532   0.5975
     0.6336   0.6600   0.7303   0.7399   0.7480   0.7814   0.8284   0.9640
     0.9728   1.0266   1.1557   1.1701   1.1883   1.2607   1.6975   1.9709
     2.0058   2.0700   2.1234   2.2003   2.2441   2.3078   2.3352   5.3172
     5.3843   5.3977   5.9758   6.0564   6.1832   7.0028   7.0428   7.0832
     7.1236   7.1612   7.3938   7.5434   7.6372   7.9757   8.0452   8.1070
     8.2227   8.2550

          k = 0.2500 0.2563 0.0000 ( 39293 PWs)   bands (ev):

   -38.9186 -38.8416 -23.4323 -23.4194 -23.3555 -23.2735 -19.2543 -19.2314
   -19.2166 -19.1773 -19.1615 -19.1413 -15.5362 -15.4929 -15.3581 -15.2950
   -15.1307 -15.1184 -15.0540 -15.0014 -14.9567 -14.8870 -14.8290 -14.4956
   -14.4792 -14.3245 -13.2729  -8.9961  -8.9841  -8.8136  -8.7771  -8.7433
    -8.7289  -8.7198  -8.5960  -8.3915  -8.3796  -8.2375  -8.1419  -3.8434
    -3.7843  -3.4638  -3.3847  -2.9022  -2.8871  -2.8696  -2.8095  -2.7455
    -2.7380  -2.6197  -2.5240  -2.5119  -2.3366  -2.2800  -2.2344  -2.1669
    -2.1485  -2.1181  -2.0363  -1.6272  -1.5876  -1.5583  -1.4816  -1.3853
    -1.1316  -1.1024  -0.9737  -0.9325  -0.8924  -0.8703  -0.8303  -0.7950
    -0.7872  -0.6774  -0.5648  -0.3732  -0.2472  -0.2352  -0.1968  -0.1158
    -0.0695  -0.0483  -0.0088   0.0000   0.0978   0.1154   0.4497   0.4823
     0.5172   0.5371   0.5676   0.6015   0.6178   0.6213   0.6356   0.6872
     0.7110   0.7331   0.7548   0.8239   1.0301   1.0304   1.0893   1.1709
     1.1894   1.2728   1.2864   1.3748   1.3857   1.4780   1.9236   2.0367
     2.4211   2.5039   2.5310   2.5813   2.6145   2.7692   2.8021   5.8537
     5.9014   5.9097   6.3217   6.3464   6.5967   6.8181   6.9223   7.5065
     7.5609   7.5695   7.9009   7.9879   8.0161   8.0524   8.1030   8.2748
     8.3581   8.3797

          k = 0.2500 0.3844 0.0000 ( 39293 PWs)   bands (ev):

   -38.9130 -38.8360 -23.3847 -23.3718 -23.3136 -23.2267 -19.4358 -19.3569
   -19.2172 -19.1436 -19.1357 -19.0661 -15.4102 -15.3698 -15.2942 -15.2193
   -15.1164 -15.0991 -15.0954 -15.0638 -14.9043 -14.7960 -14.7715 -14.4525
   -14.4346 -14.3364 -13.2932  -9.1027  -9.0909  -8.9217  -8.7965  -8.7592
    -8.7218  -8.7071  -8.6284  -8.6162  -8.5805  -8.4575  -8.3883  -4.2565
    -4.2000  -3.8129  -3.7368  -3.3128  -3.2979  -3.2880  -2.9332  -2.9122
    -2.8515  -2.7881  -2.6375  -2.6307  -2.6256  -2.5982  -2.4049  -2.3562
    -2.3404  -2.1182  -2.0588  -1.6688  -1.6361  -1.5929  -1.4974  -1.4706
    -1.3506  -1.2872  -1.1354  -1.1214  -1.1033  -1.0598  -1.0497  -0.8900
    -0.8489  -0.7377  -0.5965  -0.3559  -0.1815  -0.1385  -0.0968  -0.0532
     0.0145   0.0506   0.1268   0.2084   0.2611   0.3116   0.4988   0.5184
     0.5294   0.5633   0.6651   0.7532   0.7880   0.8291   0.8326   0.8866
     0.9612   0.9888   1.0350   1.0380   1.1024   1.1239   1.2013   1.2525
     1.4682   1.4694   1.7170   1.7950   1.8102   1.8302   1.9165   1.9557
     2.3782   2.4374   2.5604   2.8556   2.8895   3.0452   3.0688   6.0524
     6.0738   6.2306   6.3305   6.3824   6.9344   7.1445   7.3167   7.6569
     7.6933   7.9207   7.9414   8.2940   8.4450   8.5186   8.6008   8.8103
     8.9077   8.9233

          k = 0.2500-0.5125 0.0000 ( 39330 PWs)   bands (ev):

   -38.9107 -38.8337 -23.3647 -23.3518 -23.2960 -23.2069 -19.5103 -19.4315
   -19.2113 -19.1377 -19.0951 -19.0253 -15.4594 -15.4020 -15.1733 -15.1394
   -15.1353 -15.0998 -15.0896 -15.0468 -14.9063 -14.7523 -14.7409 -14.4318
   -14.4133 -14.3414 -13.3034  -9.0872  -9.0757  -8.9184  -8.7879  -8.7755
    -8.7578  -8.7076  -8.7004  -8.6922  -8.6084  -8.6078  -8.5575  -4.4188
    -4.3635  -3.9700  -3.8929  -3.5525  -3.5397  -3.5363  -2.9278  -2.9050
    -2.8112  -2.7986  -2.7589  -2.7475  -2.6241  -2.6143  -2.5172  -2.4712
    -2.3423  -2.1180  -2.0644  -1.6757  -1.6487  -1.6162  -1.5007  -1.4475
    -1.4465  -1.3732  -1.2038  -1.1787  -1.1777  -1.1323  -1.0974  -0.8935
    -0.8668  -0.7468  -0.6028  -0.3459  -0.1562  -0.1213  -0.0746  -0.0443
    -0.0012   0.0551   0.1327   0.2277   0.3909   0.4407   0.5730   0.5817
     0.6085   0.6494   0.7420   0.7930   0.8205   0.8712   0.8877   0.9361
     0.9378   1.0126   1.0349   1.0849   1.1084   1.2793   1.3000   1.5219
     1.5551   1.7383   1.7575   1.8659   1.9636   1.9737   1.9892   2.0984
     2.2189   2.2927   2.4900   2.9132   2.9483   3.1008   3.1235   6.0101
     6.0268   6.2324   6.2659   6.3303   7.1531   7.3017   7.4270   7.7522
     8.0440   8.3220   8.5220   8.5365   8.5589   8.6485   8.8026   8.9086
     8.9608   8.9847

          k = 0.3750 0.0000 0.0000 ( 39308 PWs)   bands (ev):

   -38.9220 -38.8450 -23.4514 -23.4386 -23.3756 -23.2928 -19.4417 -19.3697
   -19.2627 -19.1928 -18.9144 -18.8339 -15.6261 -15.5960 -15.5668 -15.4954
   -15.3434 -15.3056 -15.1923 -14.9526 -14.9321 -14.8385 -14.7720 -14.5265
   -14.5116 -14.3104 -13.4251  -8.8042  -8.7936  -8.7717  -8.6653  -8.3889
    -8.3772  -8.3177  -8.3056  -8.2467  -8.1509  -8.1404  -8.0910  -3.6018
    -3.5618  -3.4651  -3.3784  -2.7415  -2.7392  -2.5103  -2.4644  -2.4531
    -2.4266  -2.4178  -2.3886  -2.3485  -1.7713  -1.7349  -1.7259  -1.7001
    -1.6967  -1.5325  -1.5144  -1.4902  -1.4491  -1.3606  -1.3538  -1.2066
    -1.1899  -1.0368  -0.9762  -0.9724  -0.9261  -0.9002  -0.8359  -0.7175
    -0.5734  -0.5016  -0.4454  -0.3865  -0.3042  -0.2837  -0.2730  -0.2592
    -0.1589  -0.0529  -0.0483  -0.0329  -0.0169   0.0059   0.0251   0.0430
     0.0740   0.1342   0.1447   0.3261   0.3488   0.3816   0.5898   0.6147
     0.6404   0.7059   0.7068   0.7525   0.7827   0.8050   0.9715   1.0188
     1.0556   1.0603   1.1252   1.1421   1.1647   1.1805   1.3872   1.4752
     1.4933   1.7580   1.7932   1.9111   1.9876   2.1726   2.2600   5.7263
     5.7806   5.7923   6.4382   6.4505   6.7322   7.2527   7.2691   7.2924
     7.3246   7.3504   7.7008   7.7160   7.9483   8.0805   8.1360   8.2176
     8.2820   8.5921

          k = 0.3750 0.1281 0.0000 ( 39268 PWs)   bands (ev):

   -38.9198 -38.8428 -23.4344 -23.4216 -23.3602 -23.2759 -19.4344 -19.3624
   -19.2298 -19.1598 -19.0127 -18.9326 -15.5616 -15.5376 -15.4870 -15.4065
   -15.2908 -15.2627 -15.1436 -14.9235 -14.9059 -14.9014 -14.8373 -14.5101
   -14.4950 -14.3038 -13.3902  -8.8051  -8.7921  -8.7703  -8.6694  -8.6357
    -8.6237  -8.4618  -8.3961  -8.3503  -8.3383  -8.2021  -8.1057  -3.7542
    -3.7006  -3.5168  -3.4343  -2.7821  -2.7685  -2.7088  -2.6716  -2.5776
    -2.5394  -2.4085  -2.3274  -2.2517  -2.0816  -2.0504  -2.0192  -1.9565
    -1.7836  -1.7494  -1.7368  -1.6262  -1.5719  -1.5659  -1.4836  -1.3116
    -1.2587  -1.0054  -0.9118  -0.8524  -0.7353  -0.7192  -0.6798  -0.6193
    -0.5949  -0.5701  -0.5584  -0.4758  -0.4160  -0.3429  -0.3388  -0.2483
    -0.1720  -0.1529  -0.1365   0.0157   0.0310   0.1272   0.1408   0.1447
     0.3167   0.3630   0.4255   0.5023   0.5061   0.5513   0.5976   0.6222
     0.6739   0.6840   0.7974   0.8448   0.8570   0.9068   0.9961   1.0203
     1.0257   1.0517   1.0777   1.1014   1.1798   1.2469   1.4661   2.0242
     2.0810   2.1270   2.1500   2.2328   2.2617   2.4540   2.4822   5.8688
     5.9052   5.9150   6.5057   6.5394   6.8310   6.9053   7.0033   7.3475
     7.3670   7.3835   7.8246   8.0210   8.1192   8.1278   8.1787   8.2036
     8.3642   8.6403

          k = 0.3750 0.2563 0.0000 ( 39277 PWs)   bands (ev):

   -38.9143 -38.8373 -23.3929 -23.3800 -23.3223 -23.2347 -19.4169 -19.3448
   -19.2279 -19.1485 -19.1466 -19.0763 -15.4444 -15.4163 -15.2946 -15.2323
   -15.1471 -15.1145 -15.0703 -15.0076 -15.0041 -14.8563 -14.8168 -14.4728
   -14.4566 -14.2977 -13.3030  -9.0451  -9.0332  -8.8671  -8.7836  -8.7616
    -8.7486  -8.7396  -8.6191  -8.6135  -8.6071  -8.4611  -8.3623  -4.1977
    -4.1339  -3.7463  -3.6633  -2.9719  -2.9517  -2.8928  -2.8496  -2.7501
    -2.7435  -2.6453  -2.6040  -2.5794  -2.5305  -2.5172  -2.3932  -2.3660
    -2.3414  -2.0443  -1.9743  -1.6157  -1.5644  -1.5195  -1.4570  -1.3462
    -1.2573  -1.2461  -1.0431  -0.9832  -0.9521  -0.9260  -0.8846  -0.8095
    -0.7877  -0.6854  -0.5987  -0.4014  -0.2138  -0.0886  -0.0510  -0.0387
     0.1056   0.1418   0.2137   0.2280   0.2865   0.3272   0.4970   0.5280
     0.5292   0.5639   0.6399   0.6639   0.6799   0.7068   0.7344   0.8193
     0.8666   0.9015   0.9100   0.9370   1.0683   1.0726   1.2152   1.2258
     1.2445   1.2731   1.2837   1.2897   1.3558   1.3998   1.8712   1.9863
     2.4210   2.5082   2.5430   2.9737   2.9988   3.1190   3.1447   5.8667
     5.8880   6.0132   6.3237   6.3710   6.8692   7.0198   7.2334   7.4618
     7.6012   7.6050   7.6956   8.3012   8.3804   8.3977   8.4444   8.5929
     8.7716   8.7915

          k = 0.3750 0.3844 0.0000 ( 39371 PWs)   bands (ev):

   -38.9087 -38.8317 -23.3505 -23.3376 -23.2838 -23.1927 -19.4225 -19.3966
   -19.3442 -19.3237 -19.0573 -18.9867 -15.3392 -15.2992 -15.2335 -15.1815
   -15.1376 -15.1074 -14.9745 -14.9211 -14.8291 -14.7963 -14.7371 -14.4396
   -14.4219 -14.3160 -13.2118  -9.3115  -9.2997  -9.1249  -9.0044  -8.9478
    -8.9358  -8.7686  -8.7587  -8.7495  -8.7321  -8.7063  -8.6061  -4.6501
    -4.5870  -4.1071  -4.0265  -3.2849  -3.2699  -3.2572  -3.0655  -3.0490
    -3.0397  -2.9992  -2.9836  -2.9342  -2.6388  -2.6364  -2.5326  -2.4854
    -2.3480  -1.8933  -1.8402  -1.7077  -1.6563  -1.5199  -1.4936  -1.4663
    -1.4100  -1.3229  -1.3020  -1.2393  -1.1746  -1.1556  -1.1105  -0.7449
    -0.7389  -0.6224  -0.6198  -0.3473  -0.0772   0.0625   0.2126   0.2290
     0.2458   0.2620   0.4350   0.5774   0.6305   0.6566   0.6688   0.6821
     0.7241   0.7927   0.8024   0.8585   0.8671   0.8873   0.9443   0.9503
     0.9612   1.0388   1.0936   1.1700   1.1957   1.1992   1.3845   1.4798
     1.4998   1.6551   1.7162   1.7239   1.7317   1.8473   1.8550   2.0955
     2.3630   2.4372   2.5738   3.5146   3.5436   3.6292   3.6468   5.5081
     5.5229   5.7573   6.0132   6.1040   7.0918   7.3725   7.4798   7.6324
     7.9230   8.1113   8.1675   8.2035   8.2724   8.5838   8.6740   8.8044
     8.8731   8.8987

          k = 0.3750-0.5125 0.0000 ( 39430 PWs)   bands (ev):

   -38.9065 -38.8295 -23.3327 -23.3198 -23.2677 -23.1751 -19.4948 -19.4159
   -19.3912 -19.3189 -19.0182 -18.9475 -15.3490 -15.2868 -15.2444 -15.2080
   -15.0744 -15.0646 -14.8931 -14.8505 -14.8122 -14.7135 -14.6976 -14.4281
   -14.4097 -14.3390 -13.1727  -9.3905  -9.3788  -9.2072  -9.1031  -9.0909
    -9.0253  -8.9286  -8.9082  -8.7510  -8.7449  -8.7232  -8.6016  -4.8309
    -4.7686  -4.2723  -4.1924  -3.5232  -3.5126  -3.5077  -3.1804  -3.1380
    -3.0807  -3.0667  -2.9948  -2.9436  -2.6344  -2.6324  -2.5802  -2.5344
    -2.3307  -1.9145  -1.8674  -1.6646  -1.6138  -1.5787  -1.5511  -1.5481
    -1.4219  -1.3945  -1.3727  -1.3007  -1.2562  -1.2387  -1.1944  -0.7093
    -0.7063  -0.6237  -0.5844  -0.3218  -0.0433   0.0793   0.2723   0.2875
     0.3238   0.3718   0.5109   0.6850   0.6885   0.6993   0.7146   0.7571
     0.8621   0.8683   0.9052   0.9060   0.9454   0.9657   1.0124   1.1054
     1.1182   1.1612   1.1620   1.2197   1.2532   1.2777   1.3625   1.7090
     1.7572   1.7761   1.9127   1.9284   1.9574   1.9841   1.9933   2.0424
     2.1928   2.2823   2.5044   3.6764   3.7076   3.7972   3.8129   5.3127
     5.3256   5.5855   5.9105   6.0154   7.2499   7.2839   7.5034   7.6863
     8.2103   8.3007   8.3328   8.4386   8.4998   8.6213   8.6995   8.7181
     8.7505   8.9337

          k =-0.5000 0.0000 0.0000 ( 39274 PWs)   bands (ev):

   -38.9202 -38.8432 -23.4319 -23.4190 -23.3598 -23.2737 -19.5138 -19.4422
   -19.2244 -19.1540 -18.9119 -18.8314 -15.6644 -15.6336 -15.4501 -15.4271
   -15.3860 -15.3687 -15.2386 -14.9616 -14.9551 -14.8272 -14.7600 -14.5207
   -14.5057 -14.3096 -13.4923  -8.8035  -8.7919  -8.7606  -8.6602  -8.3661
    -8.3545  -8.2794  -8.2672  -8.2397  -8.1145  -8.1099  -8.0616  -3.7252
    -3.6862  -3.5803  -3.4945  -2.7681  -2.7661  -2.4732  -2.4590  -2.4540
    -2.4322  -2.3751  -2.2096  -2.1659  -2.0109  -1.9771  -1.8265  -1.6651
    -1.6460  -1.6248  -1.6138  -1.6090  -1.5194  -1.4564  -1.4498  -1.2163
    -1.2007  -1.1841  -1.1655  -1.0553  -0.9550  -0.9174  -0.9143  -0.7750
    -0.5714  -0.5304  -0.4062  -0.3466  -0.2923  -0.2785  -0.2729  -0.2648
    -0.1647  -0.0380  -0.0350  -0.0221   0.0173   0.0309   0.0465   0.0489
     0.0663   0.0679   0.1536   0.2496   0.4773   0.5059   0.6307   0.6382
     0.6549   0.6714   0.6924   0.7240   0.7887   0.8322   0.8849   1.0954
     1.1034   1.1038   1.1246   1.1593   1.2229   1.2925   1.2952   1.4607
     1.4750   1.7470   1.7732   1.9127   1.9774   2.1862   2.2665   6.4887
     6.4900   6.5101   6.6248   6.6341   6.6482   6.7196   6.8195   7.2349
     7.2785   7.3065   7.6083   7.8736   7.9623   8.3669   8.4588   8.5195
     8.6243   8.6612

          k =-0.5000 0.1281 0.0000 ( 39244 PWs)   bands (ev):

   -38.9180 -38.8409 -23.4158 -23.4029 -23.3449 -23.2577 -19.5060 -19.4344
   -19.1921 -19.1216 -19.0095 -18.9293 -15.6158 -15.5842 -15.3775 -15.3342
   -15.3287 -15.2700 -15.1877 -14.9309 -14.9242 -14.8939 -14.8262 -14.5024
   -14.4872 -14.2992 -13.4433  -8.7994  -8.7866  -8.7592  -8.6577  -8.5013
    -8.4908  -8.4896  -8.4786  -8.3634  -8.3199  -8.2480  -8.2468  -3.8832
    -3.8303  -3.6403  -3.5580  -2.7929  -2.7839  -2.6985  -2.6589  -2.4682
    -2.3523  -2.3388  -2.3364  -2.3154  -2.2927  -2.2480  -2.1764  -2.1066
    -1.7619  -1.7571  -1.7409  -1.6502  -1.5502  -1.4988  -1.4954  -1.3750
    -1.3654  -0.9807  -0.9773  -0.9020  -0.7683  -0.7472  -0.7003  -0.6937
    -0.6658  -0.6218  -0.5725  -0.5255  -0.5135  -0.3399  -0.3282  -0.2448
    -0.1541  -0.0868  -0.0574   0.0086   0.0258   0.1621   0.2134   0.2279
     0.3341   0.3531   0.4797   0.4892   0.5878   0.5925   0.6413   0.6439
     0.6589   0.6903   0.7788   0.8084   0.8194   0.8625   1.0419   1.0701
     1.0820   1.1223   1.1305   1.2049   1.2103   1.2735   1.2867   2.0076
     2.1066   2.1355   2.1450   2.2259   2.2539   2.4756   2.5021   6.3433
     6.3610   6.4812   6.6700   6.7880   6.7932   6.8053   6.9137   6.9796
     7.0029   7.3867   7.6035   8.2966   8.3575   8.3974   8.4758   8.5972
     8.6419   8.7821

          k =-0.5000 0.2563 0.0000 ( 39302 PWs)   bands (ev):

   -38.9125 -38.8355 -23.3763 -23.3634 -23.3084 -23.2184 -19.4872 -19.4156
   -19.2235 -19.1440 -19.1105 -19.0397 -15.4934 -15.4595 -15.2504 -15.2239
   -15.0783 -15.0551 -15.0479 -15.0288 -14.9715 -14.8561 -14.8499 -14.4630
   -14.4470 -14.2863 -13.3170  -8.9673  -8.9553  -8.8126  -8.8007  -8.7942
    -8.7677  -8.7633  -8.7512  -8.6489  -8.6470  -8.6198  -8.5787  -4.3398
    -4.2755  -3.8826  -3.8001  -2.9889  -2.9675  -2.8790  -2.8396  -2.7996
    -2.7555  -2.7443  -2.7372  -2.5623  -2.5319  -2.5186  -2.4733  -2.4202
    -2.3843  -2.0154  -1.9455  -1.5977  -1.5471  -1.4785  -1.3768  -1.3690
    -1.3562  -1.2414  -1.0441  -0.9844  -0.9841  -0.9701  -0.9120  -0.8059
    -0.7890  -0.6790  -0.6127  -0.4159  -0.1956  -0.0471  -0.0217  -0.0143
     0.1167   0.1861   0.2430   0.2703   0.4461   0.4869   0.5285   0.5800
     0.5883   0.6191   0.6905   0.7409   0.7653   0.7764   0.7784   0.7837
     0.8119   0.9058   0.9549   1.0085   1.1111   1.1925   1.2187   1.2281
     1.2313   1.2390   1.2461   1.3263   1.3659   1.5585   1.6186   1.9455
     2.4196   2.5048   2.5429   3.0851   3.1086   3.2137   3.2377   5.8297
     5.8459   6.0473   6.2285   6.3221   7.0106   7.2029   7.4003   7.5101
     7.6452   7.6924   7.7099   8.3524   8.4195   8.5037   8.5612   8.6448
     8.8101   8.8492

          k =-0.5000 0.3844 0.0000 ( 39430 PWs)   bands (ev):

   -38.9070 -38.8300 -23.3361 -23.3232 -23.2713 -23.1785 -19.4685 -19.4145
   -19.3967 -19.3354 -19.0229 -18.9519 -15.3646 -15.3286 -15.2283 -15.1638
   -15.1046 -15.0980 -14.8727 -14.8382 -14.7795 -14.7793 -14.7683 -14.4338
   -14.4164 -14.3065 -13.1769  -9.3609  -9.3490  -9.1754  -9.1065  -9.0944
    -9.0227  -8.9181  -8.9104  -8.7633  -8.7565  -8.7351  -8.6206  -4.8112
    -4.7469  -4.2494  -4.1686  -3.2730  -3.2580  -3.2448  -3.1837  -3.1393
    -3.0975  -3.0842  -3.0125  -2.9672  -2.6379  -2.6357  -2.5703  -2.5217
    -2.3481  -1.8076  -1.7724  -1.7509  -1.7264  -1.4911  -1.4729  -1.4557
    -1.4417  -1.3779  -1.2919  -1.2663  -1.2053  -1.1905  -1.1459  -0.6882
    -0.6772  -0.6357  -0.5711  -0.3423  -0.0447   0.1034   0.3366   0.3408
     0.3909   0.4374   0.5731   0.6520   0.6589   0.6943   0.7100   0.8125
     0.8154   0.8359   0.8487   0.8951   0.9413   0.9679   1.0266   1.0452
     1.0781   1.1334   1.1338   1.1753   1.2078   1.2871   1.3579   1.4848
     1.5176   1.6783   1.6935   1.7504   1.7838   1.7974   2.0058   2.0075
     2.3607   2.4355   2.5790   3.7389   3.7665   3.8357   3.8509   5.2706
     5.2843   5.5374   5.9017   6.0077   7.1992   7.3214   7.4975   7.6671
     7.9831   8.1365   8.2305   8.3614   8.5234   8.5790   8.6831   8.6986
     8.8332   8.8698

          k =-0.5000-0.5125 0.0000 ( 39388 PWs)   bands (ev):

   -38.9047 -38.8277 -23.3193 -23.3064 -23.2558 -23.1617 -19.4883 -19.4607
   -19.4094 -19.3889 -18.9847 -18.9135 -15.3100 -15.3003 -15.2736 -15.2353
   -15.0335 -15.0326 -14.7982 -14.7550 -14.7454 -14.7289 -14.6756 -14.4263
   -14.4079 -14.3379 -13.1139  -9.5129  -9.5011  -9.3245  -9.2240  -9.2118
    -9.1611  -9.0496  -9.0253  -8.7608  -8.7596  -8.7288  -8.6174  -5.0005
    -4.9367  -4.4167  -4.3367  -3.5108  -3.5010  -3.4954  -3.3141  -3.2706
    -3.1246  -3.1122  -3.0355  -2.9886  -2.6260  -2.6244  -2.6037  -2.5568
    -2.3211  -1.8524  -1.8084  -1.7329  -1.6835  -1.5917  -1.5117  -1.4992
    -1.4902  -1.3906  -1.3659  -1.3619  -1.2884  -1.2737  -1.2311  -0.6448
    -0.6352  -0.6338  -0.5312  -0.3106  -0.0077   0.1240   0.3994   0.4643
     0.6042   0.6484   0.6966   0.7135   0.7302   0.7440   0.7522   0.7618
     0.7823   0.8601   0.9606   0.9879   1.0354   1.0474   1.0761   1.2329
     1.2555   1.2617   1.2686   1.2748   1.2800   1.3973   1.4826   1.5887
     1.7774   1.7958   1.8854   1.9010   1.9713   2.0034   2.1674   2.1801
     2.1875   2.2769   2.5131   3.9524   3.9812   4.0659   4.0796   5.0224
     5.0348   5.3073   5.7913   5.9072   7.2295   7.2590   7.5919   7.6157
     7.9342   8.1226   8.3751   8.4504   8.4789   8.4834   8.6744   8.7141
     8.7251   8.8594

     the Fermi energy is     2.1814 ev

!    total energy              =   -1868.72162156 Ry
     Harris-Foulkes estimate   =   -1868.72162173 Ry
     estimated scf accuracy    <       0.00000038 Ry

     The total energy is the sum of the following terms:

     one-electron contribution =  -22717.00075802 Ry
     hartree contribution      =   11506.48044527 Ry
     xc contribution           =    -642.19841726 Ry
     ewald contribution        =    9984.00781233 Ry
     smearing contrib. (-TS)   =      -0.01070387 Ry

     convergence has been achieved in  38 iterations

     negative rho (up, down):  9.052E-02 0.000E+00

     Forces acting on atoms (cartesian axes, Ry/au):

     atom    1 type  3   force =     0.00000000    0.00000000   -0.00052035
     atom    2 type  2   force =     0.00000000    0.00000000    0.00033144
     atom    3 type  3   force =     0.00000000    0.00000000    0.00025322
     atom    4 type  1   force =     0.00000000    0.00000000   -0.00022472
     atom    5 type  2   force =     0.00000000    0.00000000   -0.00105601
     atom    6 type  3   force =     0.00000000    0.00000000    0.00122071
     atom    7 type  3   force =     0.00000000    0.00000000    0.00090971
     atom    8 type  4   force =     0.00000000    0.00000000   -0.00278671
     atom    9 type  3   force =     0.00000000    0.00000000    0.00495254
     atom   10 type  3   force =     0.00000000    0.00000000    0.00337713
     atom   11 type  2   force =     0.00000000    0.00000000   -0.00194488
     atom   12 type  1   force =     0.00000000    0.00000000    0.01661135
     atom   13 type  3   force =     0.00000000    0.00000000   -0.01923401
     atom   14 type  3   force =     0.00000000    0.00000000    0.02115399
     atom   15 type  2   force =     0.00000000    0.00000000   -0.02440562
     atom   16 type  3   force =     0.00000000    0.00000000    0.01711230
     atom   17 type  1   force =     0.00000000    0.00000000   -0.00090011
     atom   18 type  2   force =     0.00000000    0.00000000   -0.02128542
     atom   19 type  3   force =     0.00000000    0.00000000    0.00421778
     atom   20 type  3   force =     0.00000000    0.00000000    0.00305822
     atom   21 type  4   force =     0.00000000    0.00000000   -0.00115934
     atom   22 type  3   force =     0.00000000    0.00000000   -0.00045211
     atom   23 type  3   force =     0.00000000    0.00000000    0.00089519
     atom   24 type  2   force =     0.00000000    0.00000000    0.00102511
     atom   25 type  1   force =     0.00000000    0.00000000   -0.00001065
     atom   26 type  3   force =     0.00000000    0.00000000   -0.00195519
     atom   27 type  2   force =     0.00000000    0.00000000    0.00058136
     atom   28 type  3   force =     0.00000000    0.00000000    0.00023506

     Total force =     0.050218     Total SCF correction =     0.002818


     Computing stress (Cartesian axis) and pressure


     negative rho (up, down):  9.052E-02 0.000E+00
          total   stress  (Ry/bohr**3)                   (kbar)     P=       -6.84
  -0.00000509   0.00000000   0.00000000           -0.75        0.00        0.00
   0.00000000  -0.00010683   0.00000000            0.00      -15.72        0.00
   0.00000000   0.00000000  -0.00002751            0.00        0.00       -4.05

 
     init_run     :      9.51s CPU     10.05s WALL (       1 calls)
     electrons    :    677.66s CPU    709.72s WALL (       1 calls)
     forces       :      4.12s CPU      4.50s WALL (       1 calls)
     stress       :     23.35s CPU     24.37s WALL (       1 calls)

     Called by init_run:
     wfcinit      :      6.74s CPU      6.90s WALL (       1 calls)
     potinit      :      0.71s CPU      0.73s WALL (       1 calls)
     hinit0       :      1.08s CPU      1.10s WALL (       1 calls)

     Called by electrons:
     c_bands      :    530.92s CPU    535.82s WALL (      38 calls)
     sum_band     :     96.68s CPU    111.58s WALL (      38 calls)
     v_of_rho     :      3.75s CPU      3.80s WALL (      39 calls)
     newd         :     25.20s CPU     37.48s WALL (      39 calls)
     mix_rho      :     21.47s CPU     21.69s WALL (      38 calls)

     Called by c_bands:
     init_us_2    :      4.31s CPU      4.35s WALL (    1975 calls)
     cegterg      :    496.66s CPU    501.09s WALL (     950 calls)

     Called by sum_band:
     sum_band:bec :      0.26s CPU      0.26s WALL (     950 calls)
     addusdens    :     23.12s CPU     37.12s WALL (      38 calls)

     Called by *egterg:
     h_psi        :    247.98s CPU    251.51s WALL (    4183 calls)
     s_psi        :     26.34s CPU     26.44s WALL (    4183 calls)
     g_psi        :      0.78s CPU      0.79s WALL (    3208 calls)
     cdiaghg      :    125.84s CPU    126.33s WALL (    4158 calls)

     Called by h_psi:
     h_psi:calbec :     30.13s CPU     30.30s WALL (    4183 calls)
     vloc_psi     :    189.67s CPU    192.82s WALL (    4183 calls)
     add_vuspsi   :     26.94s CPU     27.15s WALL (    4183 calls)

     General routines
     calbec       :     49.31s CPU     49.55s WALL (    5258 calls)
     fft          :      2.91s CPU      2.94s WALL (     530 calls)
     ffts         :     11.60s CPU     11.71s WALL (   17890 calls)
     fftw         :    217.67s CPU    221.21s WALL (  680688 calls)
     interpolate  :      0.20s CPU      0.20s WALL (      39 calls)
 
     Parallel routines
     fft_scatt_xy :     28.05s CPU     28.54s WALL (  699108 calls)
     fft_scatt_yz :    135.68s CPU    137.84s WALL (  699108 calls)
 
     PWSCF        :  11m55.56s CPU  12m29.64s WALL

 
   This run was terminated on:  18:40:14   5May2021            

=------------------------------------------------------------------------------=
   JOB DONE.
=------------------------------------------------------------------------------=
[1620254415.012629] [holy7c04210:132677:0]          mpool.c:43   UCX  WARN  object 0x461ed80 was not returned to mpool ucp_requests
[1620254415.018831] [holy7c04304:220188:0]          mpool.c:43   UCX  WARN  object 0x391cb40 was not returned to mpool ucp_requests
[1620254415.021380] [holy7c04303:34609:0]          mpool.c:43   UCX  WARN  object 0x2ab4900 was not returned to mpool ucp_requests
[1620254415.021404] [holy7c04303:34609:0]          mpool.c:43   UCX  WARN  object 0x2ab4c80 was not returned to mpool ucp_requests
[1620254415.021671] [holy7c04303:34610:0]          mpool.c:43   UCX  WARN  object 0x2a63500 was not returned to mpool ucp_requests
[1620254415.024241] [holy7c04207:148301:0]          mpool.c:43   UCX  WARN  object 0x4400900 was not returned to mpool ucp_requests
[1620254415.024399] [holy7c04212:199651:0]          mpool.c:43   UCX  WARN  object 0x47afd40 was not returned to mpool ucp_requests
[1620254415.024419] [holy7c04212:199651:0]          mpool.c:43   UCX  WARN  object 0x47aff00 was not returned to mpool ucp_requests
