
     Program PWSCF v.6.5 starts on  5May2021 at 17:23:49 

     This program is part of the open-source Quantum ESPRESSO suite
     for quantum simulation of materials; please cite
         "P. Giannozzi et al., J. Phys.:Condens. Matter 21 395502 (2009);
         "P. Giannozzi et al., J. Phys.:Condens. Matter 29 465901 (2017);
          URL http://www.quantum-espresso.org", 
     in publications or presentations arising from this work. More details at
     http://www.quantum-espresso.org/quote

     Parallel version (MPI), running on    20 processors

     MPI processes distributed on    10 nodes
     R & G space division:  proc/nbgrp/npool/nimage =      20
     Reading input from YBCO_Y_cleave_3.0_sep_scf.pwi
Warning: card &IONS ignored
Warning: card     ION_DYNAMICS = 'BFGS' ignored
Warning: card / ignored
Warning: card &CELL ignored
Warning: card     CELL_DYNAMICS = 'BFGS' ignored
Warning: card / ignored

     Current dimensions of program PWSCF are:
     Max number of different atomic species (ntypx) = 10
     Max number of k-points (npk) =  40000
     Max angular momentum in pseudopotentials (lmaxx) =  3

     Subspace diagonalization in iterative solution of the eigenvalue problem:
     one sub-group per band group will be used
     scalapack distributed-memory algorithm (size of sub-group:  4*  4 procs)

     Message from routine setup:
     using ibrav=0 with symmetry is DISCOURAGED, use correct ibrav instead
 
     Parallelization info
     --------------------
     sticks:   dense  smooth     PW     G-vecs:    dense   smooth      PW
     Min         150      50     14                75932    14604    2278
     Max         151      51     15                75973    14629    2325
     Sum        3015    1011    293              1519021   292277   46055
 


     bravais-lattice index     =            0
     lattice parameter (alat)  =       7.3477  a.u.
     unit-cell volume          =    4655.3630 (a.u.)^3
     number of atoms/cell      =           28
     number of atomic types    =            4
     number of electrons       =       229.00
     number of Kohn-Sham states=          138
     kinetic-energy cutoff     =      60.0000  Ry
     charge density cutoff     =     720.0000  Ry
     convergence threshold     =      1.0E-06
     mixing beta               =       0.2000
     number of iterations used =           10  local-TF  mixing
     Exchange-correlation= SLA PW PBE PBE
                           (   1   4   3   4   0   0   0)

     celldm(1)=   7.347715  celldm(2)=   0.000000  celldm(3)=   0.000000
     celldm(4)=   0.000000  celldm(5)=   0.000000  celldm(6)=   0.000000

     crystal axes: (cart. coord. in units of alat)
               a(1) = (   1.000000   0.000000   0.000000 )  
               a(2) = (   0.000000   0.975577   0.000000 )  
               a(3) = (   0.000000   0.000000  12.029150 )  

     reciprocal axes: (cart. coord. in units 2 pi/alat)
               b(1) = (  1.000000  0.000000  0.000000 )  
               b(2) = (  0.000000  1.025034  0.000000 )  
               b(3) = (  0.000000  0.000000  0.083131 )  


     PseudoPot. # 1 for Ba read from file:
     /n/holyscratch01/hoffman_lab/ruizhe/YBCO_Project/pseudo/Ba.pbe-nsp-van.UPF
     MD5 check sum: 2b9c31dd849566dd297d80989662b7a0
     Pseudo is Ultrasoft + core correction, Zval = 10.0
     Generated by new atomic code, or converted to UPF format
     Using radial grid of  907 points,  6 beta functions with: 
                l(1) =   0
                l(2) =   0
                l(3) =   1
                l(4) =   1
                l(5) =   2
                l(6) =   2
     Q(r) pseudized with  6 coefficients,  rinner =    1.200   1.200   1.200
                                                       1.200   1.200

     PseudoPot. # 2 for Cu read from file:
     /n/holyscratch01/hoffman_lab/ruizhe/YBCO_Project/pseudo/Cu.pbe-n-van_ak.UPF
     MD5 check sum: 34e3282627ffb533726feb647e090d62
     Pseudo is Ultrasoft + core correction, Zval = 11.0
     Generated by new atomic code, or converted to UPF format
     Using radial grid of  867 points,  6 beta functions with: 
                l(1) =   0
                l(2) =   0
                l(3) =   1
                l(4) =   1
                l(5) =   2
                l(6) =   2
     Q(r) pseudized with  8 coefficients,  rinner =    1.400   1.400   1.400
                                                       1.400   1.400

     PseudoPot. # 3 for O  read from file:
     /n/holyscratch01/hoffman_lab/ruizhe/YBCO_Project/pseudo/O.pbe-van_ak.UPF
     MD5 check sum: 783ce7fe4c79b6a4916957118fed0856
     Pseudo is Ultrasoft, Zval =  6.0
     Generated by new atomic code, or converted to UPF format
     Using radial grid of  737 points,  4 beta functions with: 
                l(1) =   0
                l(2) =   0
                l(3) =   1
                l(4) =   1
     Q(r) pseudized with  8 coefficients,  rinner =    0.800   0.800   0.800


     PseudoPot. # 4 for Y  read from file:
     /n/holyscratch01/hoffman_lab/ruizhe/YBCO_Project/pseudo/Y.pbe-nsp-van.UPF
     MD5 check sum: 4412fed3ab108fed87a1b7d6a69a4a38
     Pseudo is Ultrasoft + core correction, Zval = 11.0
     Generated by new atomic code, or converted to UPF format
     Using radial grid of  885 points,  6 beta functions with: 
                l(1) =   0
                l(2) =   0
                l(3) =   1
                l(4) =   1
                l(5) =   2
                l(6) =   2
     Q(r) pseudized with  6 coefficients,  rinner =    1.200   1.200   1.200
                                                       1.200   1.200

     atomic species   valence    mass     pseudopotential
        Ba            10.00   137.32700     Ba( 1.00)
        Cu            11.00    63.54600     Cu( 1.00)
        O              6.00    15.99900     O ( 1.00)
        Y             11.00    88.90584     Y ( 1.00)

      4 Sym. Ops. (no inversion) found



   Cartesian axes

     site n.     atom                  positions (alat units)
         1           O   tau(   1) = (   0.0000000   0.4877884  -0.0257983  )
         2           Cu  tau(   2) = (   0.0000000   0.0000000   0.0215779  )
         3           O   tau(   3) = (   0.0000000   0.0000000   0.5073114  )
         4           Ba  tau(   4) = (   0.4999996   0.4877884   0.5319677  )
         5           Cu  tau(   5) = (   0.0000000   0.0000000   1.0495845  )
         6           O   tau(   6) = (   0.4999996   0.0000000   1.1181579  )
         7           O   tau(   7) = (   0.0000000   0.4877884   1.1273137  )
         8           Y   tau(   8) = (   0.4999996   0.4877884   1.4938777  )
         9           O   tau(   9) = (   0.0000000   0.4877884   1.8497402  )
        10           O   tau(  10) = (   0.4999996   0.0000000   1.8692709  )
        11           Cu  tau(  11) = (   0.0000000   0.0000000   1.9417560  )
        12           Ba  tau(  12) = (   0.4999996   0.4877884   2.4526063  )
        13           O   tau(  13) = (   0.0000000   0.0000000   2.5103470  )
        14           O   tau(  14) = (   0.0000000   0.4877884   2.9968469  )
        15           Cu  tau(  15) = (   0.0000000   0.0000000   2.9968521  )
        16           O   tau(  16) = (   0.0000000   0.0000000   3.4833288  )
        17           Ba  tau(  17) = (   0.4999996   0.4877884   3.5410618  )
        18           Cu  tau(  18) = (   0.0000000   0.0000000   4.0519352  )
        19           O   tau(  19) = (   0.4999996   0.0000000   4.1244075  )
        20           O   tau(  20) = (   0.0000000   0.4877884   4.1439202  )
        21           Y   tau(  21) = (   0.4999996   0.4877884   4.4997853  )
        22           O   tau(  22) = (   0.0000000   0.4877884   5.6379059  )
        23           O   tau(  23) = (   0.4999996   0.0000000   5.6470746  )
        24           Cu  tau(  24) = (   0.0000000   0.0000000   5.7156531  )
        25           Ba  tau(  25) = (   0.4999996   0.4877884   6.2332544  )
        26           O   tau(  26) = (   0.0000000   0.0000000   6.2579108  )
        27           Cu  tau(  27) = (   0.0000000   0.0000000   6.7436160  )
        28           O   tau(  28) = (   0.0000000   0.4877884   6.7909973  )

     number of k points=    25  Gaussian smearing, width (Ry)=  0.0100
                       cart. coord. in units 2pi/alat
        k(    1) = (   0.0000000   0.0000000   0.0000000), wk =   0.0312500
        k(    2) = (   0.0000000   0.1281293   0.0000000), wk =   0.0625000
        k(    3) = (   0.0000000   0.2562585   0.0000000), wk =   0.0625000
        k(    4) = (   0.0000000   0.3843878   0.0000000), wk =   0.0625000
        k(    5) = (   0.0000000  -0.5125170   0.0000000), wk =   0.0312500
        k(    6) = (   0.1250000   0.0000000   0.0000000), wk =   0.0625000
        k(    7) = (   0.1250000   0.1281293   0.0000000), wk =   0.1250000
        k(    8) = (   0.1250000   0.2562585   0.0000000), wk =   0.1250000
        k(    9) = (   0.1250000   0.3843878   0.0000000), wk =   0.1250000
        k(   10) = (   0.1250000  -0.5125170   0.0000000), wk =   0.0625000
        k(   11) = (   0.2500000   0.0000000   0.0000000), wk =   0.0625000
        k(   12) = (   0.2500000   0.1281293   0.0000000), wk =   0.1250000
        k(   13) = (   0.2500000   0.2562585   0.0000000), wk =   0.1250000
        k(   14) = (   0.2500000   0.3843878   0.0000000), wk =   0.1250000
        k(   15) = (   0.2500000  -0.5125170   0.0000000), wk =   0.0625000
        k(   16) = (   0.3750000   0.0000000   0.0000000), wk =   0.0625000
        k(   17) = (   0.3750000   0.1281293   0.0000000), wk =   0.1250000
        k(   18) = (   0.3750000   0.2562585   0.0000000), wk =   0.1250000
        k(   19) = (   0.3750000   0.3843878   0.0000000), wk =   0.1250000
        k(   20) = (   0.3750000  -0.5125170   0.0000000), wk =   0.0625000
        k(   21) = (  -0.5000000   0.0000000   0.0000000), wk =   0.0312500
        k(   22) = (  -0.5000000   0.1281293   0.0000000), wk =   0.0625000
        k(   23) = (  -0.5000000   0.2562585   0.0000000), wk =   0.0625000
        k(   24) = (  -0.5000000   0.3843878   0.0000000), wk =   0.0625000
        k(   25) = (  -0.5000000  -0.5125170   0.0000000), wk =   0.0312500

     Dense  grid:  1519021 G-vectors     FFT dimensions: (  64,  64, 768)

     Smooth grid:   292277 G-vectors     FFT dimensions: (  40,  36, 450)

     Estimated max dynamical RAM per process >     484.76 MB

     Estimated total dynamical RAM >       9.47 GB

     Initial potential from superposition of free atoms

     starting charge  228.84827, renormalised to  229.00000

     negative rho (up, down):  8.977E-02 0.000E+00
     Starting wfcs are  201 randomized atomic wfcs

     total cpu time spent up to now is       11.5 secs

     Self-consistent Calculation

     iteration #  1     ecut=    60.00 Ry     beta= 0.20
     Davidson diagonalization with overlap
     ethr =  1.00E-02,  avg # of iterations =  2.0

     negative rho (up, down):  8.740E-02 0.000E+00

     total cpu time spent up to now is       29.5 secs

     total energy              =   -1869.44774025 Ry
     Harris-Foulkes estimate   =   -1871.03308735 Ry
     estimated scf accuracy    <      14.52206104 Ry

     iteration #  2     ecut=    60.00 Ry     beta= 0.20
     Davidson diagonalization with overlap
     ethr =  6.34E-03,  avg # of iterations =  1.0

     negative rho (up, down):  8.596E-02 0.000E+00

     total cpu time spent up to now is       45.8 secs

     total energy              =   -1868.94263923 Ry
     Harris-Foulkes estimate   =   -1869.79020519 Ry
     estimated scf accuracy    <       7.71151995 Ry

     iteration #  3     ecut=    60.00 Ry     beta= 0.20
     Davidson diagonalization with overlap
     ethr =  3.37E-03,  avg # of iterations =  1.0

     negative rho (up, down):  8.509E-02 0.000E+00

     total cpu time spent up to now is       62.4 secs

     total energy              =   -1868.59698428 Ry
     Harris-Foulkes estimate   =   -1869.13632787 Ry
     estimated scf accuracy    <       5.20748390 Ry

     iteration #  4     ecut=    60.00 Ry     beta= 0.20
     Davidson diagonalization with overlap
     ethr =  2.27E-03,  avg # of iterations =  1.0

     negative rho (up, down):  8.484E-02 0.000E+00

     total cpu time spent up to now is       78.9 secs

     total energy              =   -1868.85885318 Ry
     Harris-Foulkes estimate   =   -1868.80951564 Ry
     estimated scf accuracy    <       8.70143367 Ry

     iteration #  5     ecut=    60.00 Ry     beta= 0.20
     Davidson diagonalization with overlap
     ethr =  2.27E-03,  avg # of iterations =  1.0

     negative rho (up, down):  8.553E-02 0.000E+00

     total cpu time spent up to now is       95.3 secs

     total energy              =   -1868.33257150 Ry
     Harris-Foulkes estimate   =   -1868.89076997 Ry
     estimated scf accuracy    <      16.81293207 Ry

     iteration #  6     ecut=    60.00 Ry     beta= 0.20
     Davidson diagonalization with overlap
     ethr =  2.27E-03,  avg # of iterations =  1.1

     negative rho (up, down):  8.569E-02 0.000E+00

     total cpu time spent up to now is      111.8 secs

     total energy              =   -1868.49108299 Ry
     Harris-Foulkes estimate   =   -1868.62657099 Ry
     estimated scf accuracy    <       1.81059964 Ry

     iteration #  7     ecut=    60.00 Ry     beta= 0.20
     Davidson diagonalization with overlap
     ethr =  7.91E-04,  avg # of iterations =  3.0

     negative rho (up, down):  8.688E-02 0.000E+00

     total cpu time spent up to now is      130.6 secs

     total energy              =   -1868.37700745 Ry
     Harris-Foulkes estimate   =   -1868.53178420 Ry
     estimated scf accuracy    <       1.27652022 Ry

     iteration #  8     ecut=    60.00 Ry     beta= 0.20
     Davidson diagonalization with overlap
     ethr =  5.57E-04,  avg # of iterations =  6.0

     negative rho (up, down):  8.775E-02 0.000E+00

     total cpu time spent up to now is      155.6 secs

     total energy              =   -1868.43037372 Ry
     Harris-Foulkes estimate   =   -1868.55991551 Ry
     estimated scf accuracy    <      13.82787433 Ry

     iteration #  9     ecut=    60.00 Ry     beta= 0.20
     Davidson diagonalization with overlap
     ethr =  5.57E-04,  avg # of iterations =  1.3

     negative rho (up, down):  8.751E-02 0.000E+00

     total cpu time spent up to now is      172.9 secs

     total energy              =   -1868.42048961 Ry
     Harris-Foulkes estimate   =   -1868.46936367 Ry
     estimated scf accuracy    <       2.95958402 Ry

     iteration # 10     ecut=    60.00 Ry     beta= 0.20
     Davidson diagonalization with overlap
     ethr =  5.57E-04,  avg # of iterations =  1.0

     negative rho (up, down):  8.827E-02 0.000E+00

     total cpu time spent up to now is      189.7 secs

     total energy              =   -1868.42847746 Ry
     Harris-Foulkes estimate   =   -1868.45108033 Ry
     estimated scf accuracy    <       2.36391673 Ry

     iteration # 11     ecut=    60.00 Ry     beta= 0.20
     Davidson diagonalization with overlap
     ethr =  5.57E-04,  avg # of iterations =  1.2

     negative rho (up, down):  8.897E-02 0.000E+00

     total cpu time spent up to now is      206.7 secs

     total energy              =   -1868.40979967 Ry
     Harris-Foulkes estimate   =   -1868.43419643 Ry
     estimated scf accuracy    <       1.14863629 Ry

     iteration # 12     ecut=    60.00 Ry     beta= 0.20
     Davidson diagonalization with overlap
     ethr =  5.02E-04,  avg # of iterations =  1.0

     negative rho (up, down):  8.905E-02 0.000E+00

     total cpu time spent up to now is      223.4 secs

     total energy              =   -1868.42010172 Ry
     Harris-Foulkes estimate   =   -1868.42405800 Ry
     estimated scf accuracy    <       0.11552088 Ry

     iteration # 13     ecut=    60.00 Ry     beta= 0.20
     Davidson diagonalization with overlap
     ethr =  5.04E-05,  avg # of iterations =  6.5

     negative rho (up, down):  8.933E-02 0.000E+00

     total cpu time spent up to now is      247.3 secs

     total energy              =   -1868.41942545 Ry
     Harris-Foulkes estimate   =   -1868.42148935 Ry
     estimated scf accuracy    <       0.10307050 Ry

     iteration # 14     ecut=    60.00 Ry     beta= 0.20
     Davidson diagonalization with overlap
     ethr =  4.50E-05,  avg # of iterations =  1.6

     negative rho (up, down):  8.950E-02 0.000E+00

     total cpu time spent up to now is      264.5 secs

     total energy              =   -1868.41654646 Ry
     Harris-Foulkes estimate   =   -1868.42097581 Ry
     estimated scf accuracy    <       0.13474663 Ry

     iteration # 15     ecut=    60.00 Ry     beta= 0.20
     Davidson diagonalization with overlap
     ethr =  4.50E-05,  avg # of iterations =  2.6

     negative rho (up, down):  8.937E-02 0.000E+00

     total cpu time spent up to now is      282.9 secs

     total energy              =   -1868.41634209 Ry
     Harris-Foulkes estimate   =   -1868.41814021 Ry
     estimated scf accuracy    <       0.06671344 Ry

     iteration # 16     ecut=    60.00 Ry     beta= 0.20
     Davidson diagonalization with overlap
     ethr =  2.91E-05,  avg # of iterations =  3.4

     negative rho (up, down):  8.921E-02 0.000E+00

     total cpu time spent up to now is      302.7 secs

     total energy              =   -1868.41612136 Ry
     Harris-Foulkes estimate   =   -1868.41696719 Ry
     estimated scf accuracy    <       0.03639264 Ry

     iteration # 17     ecut=    60.00 Ry     beta= 0.20
     Davidson diagonalization with overlap
     ethr =  1.59E-05,  avg # of iterations =  4.9

     negative rho (up, down):  8.915E-02 0.000E+00

     total cpu time spent up to now is      324.1 secs

     total energy              =   -1868.41586978 Ry
     Harris-Foulkes estimate   =   -1868.41634444 Ry
     estimated scf accuracy    <       0.02470890 Ry

     iteration # 18     ecut=    60.00 Ry     beta= 0.20
     Davidson diagonalization with overlap
     ethr =  1.08E-05,  avg # of iterations =  4.2

     negative rho (up, down):  8.863E-02 0.000E+00

     total cpu time spent up to now is      344.5 secs

     total energy              =   -1868.41418259 Ry
     Harris-Foulkes estimate   =   -1868.41605920 Ry
     estimated scf accuracy    <       0.04175951 Ry

     iteration # 19     ecut=    60.00 Ry     beta= 0.20
     Davidson diagonalization with overlap
     ethr =  1.08E-05,  avg # of iterations =  1.9

     negative rho (up, down):  8.893E-02 0.000E+00

     total cpu time spent up to now is      361.9 secs

     total energy              =   -1868.41413657 Ry
     Harris-Foulkes estimate   =   -1868.41582204 Ry
     estimated scf accuracy    <       0.03683256 Ry

     iteration # 20     ecut=    60.00 Ry     beta= 0.20
     Davidson diagonalization with overlap
     ethr =  1.08E-05,  avg # of iterations =  2.5

     negative rho (up, down):  8.997E-02 0.000E+00

     total cpu time spent up to now is      380.0 secs

     total energy              =   -1868.41374206 Ry
     Harris-Foulkes estimate   =   -1868.41436660 Ry
     estimated scf accuracy    <       0.01401575 Ry

     iteration # 21     ecut=    60.00 Ry     beta= 0.20
     Davidson diagonalization with overlap
     ethr =  6.12E-06,  avg # of iterations =  3.3

     negative rho (up, down):  9.377E-02 0.000E+00

     total cpu time spent up to now is      399.2 secs

     total energy              =   -1868.41284123 Ry
     Harris-Foulkes estimate   =   -1868.41385744 Ry
     estimated scf accuracy    <       0.00606088 Ry

     iteration # 22     ecut=    60.00 Ry     beta= 0.20
     Davidson diagonalization with overlap
     ethr =  2.65E-06,  avg # of iterations =  8.6

     negative rho (up, down):  9.963E-02 0.000E+00

     total cpu time spent up to now is      426.4 secs

     total energy              =   -1868.41253391 Ry
     Harris-Foulkes estimate   =   -1868.41297443 Ry
     estimated scf accuracy    <       0.00322676 Ry

     iteration # 23     ecut=    60.00 Ry     beta= 0.20
     Davidson diagonalization with overlap
     ethr =  1.41E-06,  avg # of iterations =  6.8

     negative rho (up, down):  9.842E-02 0.000E+00

     total cpu time spent up to now is      448.8 secs

     total energy              =   -1868.41238456 Ry
     Harris-Foulkes estimate   =   -1868.41258124 Ry
     estimated scf accuracy    <       0.00245254 Ry

     iteration # 24     ecut=    60.00 Ry     beta= 0.20
     Davidson diagonalization with overlap
     ethr =  1.07E-06,  avg # of iterations =  2.5

     negative rho (up, down):  9.639E-02 0.000E+00

     total cpu time spent up to now is      466.4 secs

     total energy              =   -1868.41213591 Ry
     Harris-Foulkes estimate   =   -1868.41240141 Ry
     estimated scf accuracy    <       0.00177780 Ry

     iteration # 25     ecut=    60.00 Ry     beta= 0.20
     Davidson diagonalization with overlap
     ethr =  7.76E-07,  avg # of iterations =  3.7

     negative rho (up, down):  9.490E-02 0.000E+00

     total cpu time spent up to now is      485.6 secs

     total energy              =   -1868.41192724 Ry
     Harris-Foulkes estimate   =   -1868.41215728 Ry
     estimated scf accuracy    <       0.00113739 Ry

     iteration # 26     ecut=    60.00 Ry     beta= 0.20
     Davidson diagonalization with overlap
     ethr =  4.97E-07,  avg # of iterations =  5.2

     negative rho (up, down):  9.090E-02 0.000E+00

     total cpu time spent up to now is      506.8 secs

     total energy              =   -1868.41183603 Ry
     Harris-Foulkes estimate   =   -1868.41194511 Ry
     estimated scf accuracy    <       0.00059041 Ry

     iteration # 27     ecut=    60.00 Ry     beta= 0.20
     Davidson diagonalization with overlap
     ethr =  2.58E-07,  avg # of iterations =  4.8

     negative rho (up, down):  9.075E-02 0.000E+00

     total cpu time spent up to now is      528.1 secs

     total energy              =   -1868.41185748 Ry
     Harris-Foulkes estimate   =   -1868.41185462 Ry
     estimated scf accuracy    <       0.00027768 Ry

     iteration # 28     ecut=    60.00 Ry     beta= 0.20
     Davidson diagonalization with overlap
     ethr =  1.21E-07,  avg # of iterations =  3.0

     negative rho (up, down):  9.042E-02 0.000E+00

     total cpu time spent up to now is      546.9 secs

     total energy              =   -1868.41188517 Ry
     Harris-Foulkes estimate   =   -1868.41186469 Ry
     estimated scf accuracy    <       0.00016150 Ry

     iteration # 29     ecut=    60.00 Ry     beta= 0.20
     Davidson diagonalization with overlap
     ethr =  7.05E-08,  avg # of iterations =  4.3

     negative rho (up, down):  8.994E-02 0.000E+00

     total cpu time spent up to now is      567.5 secs

     total energy              =   -1868.41189408 Ry
     Harris-Foulkes estimate   =   -1868.41189089 Ry
     estimated scf accuracy    <       0.00009427 Ry

     iteration # 30     ecut=    60.00 Ry     beta= 0.20
     Davidson diagonalization with overlap
     ethr =  4.12E-08,  avg # of iterations =  3.1

     negative rho (up, down):  9.006E-02 0.000E+00

     total cpu time spent up to now is      586.9 secs

     total energy              =   -1868.41189559 Ry
     Harris-Foulkes estimate   =   -1868.41189582 Ry
     estimated scf accuracy    <       0.00004652 Ry

     iteration # 31     ecut=    60.00 Ry     beta= 0.20
     Davidson diagonalization with overlap
     ethr =  2.03E-08,  avg # of iterations =  2.9

     negative rho (up, down):  9.016E-02 0.000E+00

     total cpu time spent up to now is      605.9 secs

     total energy              =   -1868.41189871 Ry
     Harris-Foulkes estimate   =   -1868.41189787 Ry
     estimated scf accuracy    <       0.00002038 Ry

     iteration # 32     ecut=    60.00 Ry     beta= 0.20
     Davidson diagonalization with overlap
     ethr =  8.90E-09,  avg # of iterations =  2.1

     negative rho (up, down):  9.026E-02 0.000E+00

     total cpu time spent up to now is      623.6 secs

     total energy              =   -1868.41190065 Ry
     Harris-Foulkes estimate   =   -1868.41189935 Ry
     estimated scf accuracy    <       0.00001277 Ry

     iteration # 33     ecut=    60.00 Ry     beta= 0.20
     Davidson diagonalization with overlap
     ethr =  5.58E-09,  avg # of iterations =  1.0

     negative rho (up, down):  9.009E-02 0.000E+00

     total cpu time spent up to now is      640.0 secs

     total energy              =   -1868.41189817 Ry
     Harris-Foulkes estimate   =   -1868.41190085 Ry
     estimated scf accuracy    <       0.00000803 Ry

     iteration # 34     ecut=    60.00 Ry     beta= 0.20
     Davidson diagonalization with overlap
     ethr =  3.51E-09,  avg # of iterations =  1.5

     negative rho (up, down):  9.012E-02 0.000E+00

     total cpu time spent up to now is      657.4 secs

     total energy              =   -1868.41189775 Ry
     Harris-Foulkes estimate   =   -1868.41189839 Ry
     estimated scf accuracy    <       0.00000633 Ry

     iteration # 35     ecut=    60.00 Ry     beta= 0.20
     Davidson diagonalization with overlap
     ethr =  2.76E-09,  avg # of iterations =  1.1

     negative rho (up, down):  9.002E-02 0.000E+00

     total cpu time spent up to now is      673.7 secs

     total energy              =   -1868.41189653 Ry
     Harris-Foulkes estimate   =   -1868.41189786 Ry
     estimated scf accuracy    <       0.00000330 Ry

     iteration # 36     ecut=    60.00 Ry     beta= 0.20
     Davidson diagonalization with overlap
     ethr =  1.44E-09,  avg # of iterations =  1.9

     negative rho (up, down):  8.996E-02 0.000E+00

     total cpu time spent up to now is      691.3 secs

     total energy              =   -1868.41189612 Ry
     Harris-Foulkes estimate   =   -1868.41189665 Ry
     estimated scf accuracy    <       0.00000222 Ry

     iteration # 37     ecut=    60.00 Ry     beta= 0.20
     Davidson diagonalization with overlap
     ethr =  9.68E-10,  avg # of iterations =  1.7

     negative rho (up, down):  8.992E-02 0.000E+00

     total cpu time spent up to now is      707.9 secs

     End of self-consistent calculation

          k = 0.0000 0.0000 0.0000 ( 36431 PWs)   bands (ev):

   -41.2105 -38.2410 -23.1901 -22.8953 -22.7567 -22.5333 -21.3419 -21.0834
   -21.0750 -18.7758 -18.2457 -18.2358 -16.3240 -15.5711 -15.3945 -14.7188
   -14.6107 -14.4624 -14.3798 -14.3565 -14.3039 -14.0950 -13.8779 -13.8243
   -13.7804 -13.5898 -13.1661  -8.5042  -8.1240  -8.1165  -8.1142  -8.0282
    -7.8877  -7.8609  -7.7106  -7.6919  -7.6609  -7.5606  -7.5259  -3.0974
    -3.0733  -2.6294  -2.1998  -2.1665  -2.1504  -2.0189  -1.9784  -1.9515
    -1.9119  -1.8347  -1.6836  -1.0070  -0.9807  -0.9789  -0.9370  -0.8372
    -0.6594  -0.5773  -0.5649  -0.5545  -0.4950  -0.3617  -0.2260  -0.1886
    -0.1518  -0.1259  -0.1236  -0.0962  -0.0788  -0.0013   0.0129   0.0134
     0.0282   0.1072   0.1640   0.1709   0.2779   0.2829   0.2980   0.3697
     0.4069   0.4127   0.4263   0.4345   0.4522   0.4970   0.4981   0.5389
     0.5427   0.6254   0.6612   0.8092   0.9597   0.9824   1.1122   1.1688
     1.1850   1.2439   1.2470   1.3271   1.3681   1.3841   1.3938   1.5741
     1.7927   1.8099   1.8666   1.9474   1.9588   1.9649   2.0649   2.1567
     2.1601   2.2404   2.2519   2.2865   2.5239   2.5521   2.5747   2.6466
     4.0954   4.9999   5.1542   5.3105   5.5583   5.6996   5.9043   6.4738
     6.5055   6.5611   6.7613   6.8735   6.9047   7.2845   7.6968   8.0480
     8.0573   8.0851

          k = 0.0000 0.1281 0.0000 ( 36471 PWs)   bands (ev):

   -41.2088 -38.2387 -23.1694 -22.8737 -22.7359 -22.5112 -21.3349 -21.1138
   -21.0811 -18.7399 -18.3401 -18.2425 -16.2743 -15.4624 -15.4123 -14.6757
   -14.6183 -14.4512 -14.3889 -14.3259 -14.2717 -14.1413 -13.8832 -13.8394
   -13.8270 -13.6537 -13.1969  -8.4928  -8.1353  -8.0991  -8.0860  -8.0153
    -7.8804  -7.8464  -7.7119  -7.6716  -7.6441  -7.5465  -7.5180  -3.2014
    -3.0495  -2.5375  -2.3029  -2.2928  -2.1504  -2.1295  -1.9889  -1.9798
    -1.8399  -1.8192  -1.6891  -1.4732  -1.3381  -1.0972  -1.0678  -1.0365
    -0.9431  -0.8450  -0.8247  -0.7904  -0.6198  -0.5518  -0.5432  -0.4808
    -0.3212  -0.2988  -0.2400  -0.2213  -0.1818  -0.1338  -0.0684   0.0205
     0.0268   0.1309   0.1757   0.1953   0.1956   0.2988   0.3143   0.3292
     0.4019   0.4149   0.4265   0.4595   0.4988   0.5034   0.5249   0.7289
     0.7724   0.7964   0.7968   0.8251   0.9232   0.9518   1.0590   1.1196
     1.3264   1.3614   1.3798   1.4735   1.4982   1.5388   1.5733   1.5768
     1.6915   1.7822   1.8224   1.8427   1.9198   1.9537   2.0689   2.1228
     2.1249   2.3278   2.4161   2.5332   2.5674   2.8051   2.8894   2.9953
     4.1960   5.0138   5.5296   5.5416   5.6479   5.7470   6.0589   6.5207
     6.5420   6.8808   7.0683   7.1951   7.2279   7.5782   7.9021   7.9969
     8.2189   8.3292

          k = 0.0000 0.2563 0.0000 ( 36496 PWs)   bands (ev):

   -41.2046 -38.2331 -23.1185 -22.8207 -22.6847 -22.4570 -21.3244 -21.1986
   -21.0754 -18.6488 -18.5651 -18.2348 -16.1403 -15.4750 -15.2147 -14.6950
   -14.5613 -14.4919 -14.4457 -14.2597 -14.2079 -14.1375 -13.9804 -13.8604
   -13.8066 -13.8009 -13.2894  -8.4640  -8.1775  -8.0581  -7.9913  -7.9854
    -7.9214  -7.7556  -7.7432  -7.6035  -7.5896  -7.5745  -7.4112  -3.4600
    -2.9045  -2.7344  -2.6209  -2.4967  -2.3402  -2.1907  -2.1291  -2.0881
    -2.0090  -1.9126  -1.8583  -1.8184  -1.7706  -1.7664  -1.6625  -1.3444
    -1.3439  -1.0197  -0.9810  -0.9304  -0.9033  -0.8759  -0.7884  -0.7133
    -0.6970  -0.6040  -0.5185  -0.4684  -0.4121  -0.4058  -0.2333  -0.1891
    -0.1681  -0.1366  -0.0175   0.0334   0.1258   0.1954   0.2289   0.2774
     0.3112   0.4621   0.4657   0.4791   0.4904   0.5568   0.6512   0.7224
     1.0042   1.0208   1.0674   1.1792   1.1967   1.2340   1.2640   1.3160
     1.3912   1.4381   1.4853   1.4991   1.5389   1.6262   1.6314   1.7167
     1.7215   1.7886   1.8200   1.8957   1.9870   2.0273   2.1441   2.1840
     2.2472   2.5434   2.5654   2.5690   2.7401   3.1666   3.3089   3.6691
     4.3620   4.9705   5.2504   6.3684   6.4273   6.5159   6.6429   6.6722
     6.7062   7.7265   7.7837   7.8668   7.9783   8.0102   8.1320   8.2660
     8.6162   8.6697

          k = 0.0000 0.3844 0.0000 ( 36396 PWs)   bands (ev):

   -41.2004 -38.2275 -23.0662 -22.7661 -22.6322 -22.4011 -21.3485 -21.2456
   -21.0698 -18.7630 -18.5506 -18.2270 -15.9578 -15.5940 -14.9656 -14.8373
   -14.5864 -14.5535 -14.4220 -14.2296 -14.2102 -14.1188 -13.9543 -13.9180
   -13.8014 -13.7385 -13.4448  -8.4309  -8.2154  -8.0181  -7.9551  -7.9511
    -7.8919  -7.7961  -7.6342  -7.6271  -7.5600  -7.4723  -7.2981  -3.7023
    -3.1970  -3.0844  -2.8623  -2.7021  -2.6852  -2.6592  -2.4354  -2.3235
    -2.1832  -2.0370  -1.9944  -1.8669  -1.8490  -1.8026  -1.6717  -1.6154
    -1.5846  -1.3328  -1.2106  -1.1616  -0.9784  -0.9749  -0.9598  -0.8935
    -0.8488  -0.8412  -0.7389  -0.7098  -0.6383  -0.5445  -0.4373  -0.4118
    -0.3995  -0.3630  -0.2227  -0.1606  -0.0890   0.0144   0.3066   0.3143
     0.4489   0.4527   0.4581   0.4647   0.5035   0.5881   0.8274   0.9352
     0.9412   1.0343   1.1115   1.1756   1.2242   1.2714   1.3439   1.4646
     1.4896   1.5056   1.5182   1.6371   1.6468   1.7220   1.7739   1.8152
     1.8634   1.9785   2.0020   2.0020   2.1130   2.2170   2.3258   2.5023
     2.5495   2.5517   2.5603   2.6294   3.0140   3.1382   3.2911   4.2252
     4.4370   5.0215   5.0575   6.7115   6.8960   7.1447   7.3181   7.4921
     7.5269   7.7543   7.8018   8.2918   8.5271   8.7233   8.7444   8.7841
     8.9084   9.0213

          k = 0.0000-0.5125 0.0000 ( 36494 PWs)   bands (ev):

   -41.1987 -38.2252 -23.0442 -22.7431 -22.6100 -22.3775 -21.3749 -21.2477
   -21.0674 -18.8389 -18.5074 -18.2238 -15.7875 -15.7403 -14.9181 -14.8341
   -14.6337 -14.6195 -14.3443 -14.2412 -14.2162 -14.1683 -14.0097 -13.7702
   -13.7443 -13.6502 -13.6447  -8.4147  -8.2316  -8.0020  -7.9661  -7.9347
    -7.8492  -7.8139  -7.6403  -7.5871  -7.5419  -7.4283  -7.2491  -3.8032
    -3.4312  -3.2343  -2.9971  -2.9378  -2.9171  -2.6139  -2.3400  -2.3173
    -2.3063  -2.2157  -2.0717  -2.0322  -1.9099  -1.7030  -1.6562  -1.6015
    -1.5423  -1.4592  -1.3193  -1.2226  -1.1485  -1.1121  -1.0016  -0.9661
    -0.9502  -0.8140  -0.7525  -0.7213  -0.6929  -0.6380  -0.5269  -0.4988
    -0.4619  -0.4567  -0.4360  -0.2146  -0.1938   0.0255   0.3136   0.3852
     0.4288   0.4472   0.4542   0.4868   0.5095   0.5970   0.9089   1.0184
     1.0198   1.0266   1.0272   1.1437   1.2513   1.2707   1.4129   1.4181
     1.4642   1.4950   1.5566   1.6585   1.6704   1.6794   1.7595   1.9141
     1.9344   2.0180   2.1596   2.2756   2.3502   2.3714   2.4156   2.4244
     2.4648   2.6080   2.7141   2.7590   3.0005   3.1138   3.1920   4.4175
     4.4301   4.9376   5.1337   6.7362   7.1183   7.3494   7.6411   7.7118
     7.8074   7.8424   7.9472   8.1752   8.6714   8.8206   9.0771   9.0865
     9.1304   9.3550

          k = 0.1250 0.0000 0.0000 ( 36458 PWs)   bands (ev):

   -41.2092 -38.2392 -23.1726 -22.8769 -22.7390 -22.5143 -21.3362 -21.1183
   -21.0732 -18.7433 -18.3458 -18.2333 -16.2747 -15.4556 -15.4110 -14.7463
   -14.6382 -14.4740 -14.4277 -14.3346 -14.2964 -14.1242 -13.8784 -13.8335
   -13.8228 -13.6193 -13.1965  -8.5263  -8.1296  -8.1123  -8.0829  -8.0197
    -7.8526  -7.8266  -7.6767  -7.6729  -7.6597  -7.5208  -7.4903  -3.1946
    -3.0298  -2.5459  -2.2919  -2.2252  -2.1171  -2.0975  -1.9860  -1.9620
    -1.9012  -1.8577  -1.7075  -1.1711  -1.0372  -0.9828  -0.9819  -0.9594
    -0.8805  -0.6943  -0.5856  -0.5718  -0.5490  -0.5177  -0.4130  -0.3178
    -0.2736  -0.2620  -0.2017  -0.1704  -0.1640  -0.0716  -0.0012   0.0180
     0.0231   0.0658   0.1692   0.1894   0.2879   0.3134   0.3251   0.3566
     0.3923   0.4080   0.4261   0.4266   0.4438   0.5373   0.5546   0.5755
     0.5882   0.6670   0.8457   0.8534   0.8561   0.9117   1.0292   1.1268
     1.1306   1.1701   1.2778   1.3343   1.4159   1.4816   1.5294   1.6065
     1.7118   1.8616   1.8846   1.9349   1.9532   2.0118   2.0514   2.1080
     2.1748   2.2242   2.3341   2.3521   2.5709   2.5734   2.5949   2.7573
     4.1918   4.9328   5.3510   5.4689   5.5942   5.7502   6.0617   6.3135
     6.5531   6.8000   6.9885   7.1068   7.2339   7.5419   7.8974   8.0379
     8.2101   8.3750

          k = 0.1250 0.1281 0.0000 ( 36476 PWs)   bands (ev):

   -41.2075 -38.2369 -23.1525 -22.8561 -22.7189 -22.4931 -21.3294 -21.1192
   -21.1083 -18.7079 -18.3495 -18.3284 -16.2266 -15.4250 -15.3479 -14.7001
   -14.6358 -14.4716 -14.4242 -14.3068 -14.2476 -14.1778 -13.8784 -13.8755
   -13.8202 -13.6717 -13.2238  -8.5116  -8.2553  -8.1132  -8.0374  -8.0002
    -7.9463  -7.8268  -7.7028  -7.6995  -7.6284  -7.5375  -7.3710  -3.3212
    -2.9946  -2.4727  -2.3970  -2.3444  -2.1494  -2.1192  -2.0182  -1.9977
    -1.9486  -1.7789  -1.6846  -1.4874  -1.3207  -1.2897  -1.1547  -1.0912
    -1.0772  -1.0620  -0.9106  -0.8914  -0.7369  -0.6226  -0.5687  -0.5636
    -0.4493  -0.3956  -0.3340  -0.2343  -0.2105  -0.1827  -0.0463   0.0418
     0.0772   0.1073   0.1542   0.1801   0.2192   0.2488   0.2537   0.3333
     0.3729   0.3746   0.4046   0.4463   0.4786   0.5140   0.5214   0.7282
     0.7700   0.8084   0.8689   0.9520   1.0240   1.0683   1.0858   1.1301
     1.1566   1.3415   1.3848   1.3972   1.4316   1.5543   1.5911   1.7240
     1.7621   1.7718   1.7906   1.8699   1.8925   2.1087   2.1476   2.2095
     2.2265   2.3700   2.4757   2.5793   2.8253   2.9022   2.9535   3.0026
     4.2820   4.9608   5.4182   5.6772   5.7765   5.8943   6.2092   6.4033
     6.5667   7.1099   7.3003   7.4053   7.4890   7.7896   7.9329   8.0823
     8.3720   8.5117

          k = 0.1250 0.2563 0.0000 ( 36530 PWs)   bands (ev):

   -41.2033 -38.2313 -23.1032 -22.8049 -22.6694 -22.4408 -21.3196 -21.1974
   -21.1081 -18.6180 -18.5606 -18.3301 -16.0970 -15.4774 -15.1026 -14.6800
   -14.5775 -14.4986 -14.4471 -14.2643 -14.2426 -14.1008 -13.9819 -13.8517
   -13.8022 -13.7922 -13.3062  -8.4773  -8.3647  -8.1242  -8.0583  -8.0080
    -7.9439  -7.8980  -7.7888  -7.6587  -7.6075  -7.5001  -7.3267  -3.5847
    -2.9110  -2.8339  -2.6382  -2.4884  -2.2789  -2.2014  -2.1489  -2.0989
    -2.0453  -1.9627  -1.9081  -1.8525  -1.8275  -1.8174  -1.7103  -1.6030
    -1.3642  -1.1026  -1.0808  -1.0264  -0.9329  -0.9306  -0.9116  -0.8333
    -0.7161  -0.6839  -0.5925  -0.4206  -0.4062  -0.3511  -0.3151  -0.2458
    -0.1667  -0.1032   0.0069   0.0736   0.1205   0.2674   0.2987   0.3301
     0.3572   0.3786   0.4292   0.4577   0.5122   0.5580   0.6804   0.8127
     0.8661   1.0878   1.1359   1.2010   1.2884   1.2896   1.3194   1.3476
     1.3673   1.4862   1.4909   1.5346   1.5920   1.6053   1.6261   1.6892
     1.7511   1.8764   2.0048   2.0114   2.1132   2.1329   2.1711   2.3252
     2.3433   2.6056   2.7621   2.8474   3.1053   3.1712   3.3423   3.6650
     4.4651   4.9313   5.1306   6.3682   6.4808   6.5680   6.5736   6.6673
     6.7785   7.7162   7.9353   8.0034   8.1430   8.1739   8.3033   8.3431
     8.6521   8.7091

          k = 0.1250 0.3844 0.0000 ( 36519 PWs)   bands (ev):

   -41.1991 -38.2257 -23.0527 -22.7523 -22.6186 -22.3871 -21.3449 -21.2435
   -21.1015 -18.7570 -18.5212 -18.3203 -15.9219 -15.5828 -14.8637 -14.7924
   -14.5609 -14.5245 -14.4176 -14.2709 -14.2076 -14.1005 -13.9352 -13.8881
   -13.7975 -13.7349 -13.4463  -8.4452  -8.3805  -8.1289  -8.0291  -8.0178
    -7.9568  -7.9096  -7.8001  -7.7067  -7.5710  -7.5453  -7.3735  -3.8382
    -3.2328  -3.1481  -2.9132  -2.7783  -2.6946  -2.6750  -2.4498  -2.3182
    -2.1721  -2.1582  -2.0689  -1.9935  -1.9026  -1.8883  -1.7426  -1.5584
    -1.5149  -1.3840  -1.2879  -1.2550  -1.1110  -1.0126  -0.9699  -0.9458
    -0.8795  -0.7789  -0.7672  -0.6726  -0.5901  -0.5516  -0.5315  -0.5011
    -0.4113  -0.3521  -0.1022   0.0053   0.0818   0.1371   0.3291   0.3540
     0.3952   0.4783   0.5036   0.5394   0.5514   0.5917   0.7836   0.9301
     0.9687   1.1067   1.1460   1.2317   1.2546   1.3369   1.3984   1.4537
     1.4744   1.5453   1.6307   1.6485   1.7544   1.7713   1.7740   1.8969
     1.9963   2.0794   2.1304   2.2215   2.2352   2.3551   2.5257   2.5331
     2.5787   2.6307   2.8636   2.9797   3.1078   3.1633   3.3635   4.1888
     4.5336   4.9219   5.0187   6.5930   6.7898   7.0774   7.2001   7.3647
     7.4108   7.6513   7.9254   8.4368   8.4900   8.7193   8.7856   8.8898
     9.0492   9.0662

          k = 0.1250-0.5125 0.0000 ( 36492 PWs)   bands (ev):

   -41.1974 -38.2234 -23.0314 -22.7302 -22.5972 -22.3644 -21.3717 -21.2455
   -21.0988 -18.8325 -18.4787 -18.3161 -15.7585 -15.7195 -14.8773 -14.7166
   -14.5942 -14.5847 -14.3094 -14.2615 -14.2124 -14.1842 -13.9840 -13.7689
   -13.7359 -13.6467 -13.6244  -8.4309  -8.3618  -8.1036  -8.0490  -8.0129
    -7.9442  -7.9091  -7.7777  -7.7548  -7.5860  -7.5552  -7.4203  -3.9450
    -3.4295  -3.3410  -3.0551  -2.9276  -2.9113  -2.6345  -2.5926  -2.5685
    -2.1888  -2.1861  -2.0867  -2.0285  -1.8497  -1.7927  -1.7645  -1.6071
    -1.5499  -1.4829  -1.4635  -1.3150  -1.1649  -1.0586  -0.9772  -0.9601
    -0.9114  -0.8375  -0.8054  -0.7331  -0.6620  -0.6156  -0.6083  -0.5839
    -0.5016  -0.4432  -0.1355  -0.0274   0.0051   0.0892   0.3262   0.3564
     0.4142   0.4941   0.5140   0.5844   0.6053   0.6376   0.8195   0.9915
     1.0278   1.1079   1.1112   1.2311   1.2485   1.3260   1.3771   1.4229
     1.4494   1.5711   1.6229   1.6914   1.7674   1.8080   1.8708   2.0026
     2.1503   2.2368   2.2770   2.3985   2.4088   2.4470   2.5947   2.6673
     2.6931   2.7482   2.7808   2.9039   3.0556   3.1395   3.3019   4.3644
     4.4902   4.8657   5.1067   6.6264   6.8954   7.3487   7.3778   7.4806
     7.6095   7.7351   7.8851   8.2794   8.7007   8.9964   9.1695   9.1849
     9.3114   9.3702

          k = 0.2500 0.0000 0.0000 ( 36542 PWs)   bands (ev):

   -41.2060 -38.2348 -23.1297 -22.8317 -22.6956 -22.4677 -21.3265 -21.1963
   -21.0689 -18.6616 -18.5607 -18.2273 -16.1425 -15.4690 -15.1914 -14.8285
   -14.7443 -14.5824 -14.5386 -14.2973 -14.1872 -14.1588 -13.9625 -13.8727
   -13.8130 -13.6719 -13.2847  -8.5651  -8.1369  -8.0895  -8.0053  -7.9959
    -7.7826  -7.7413  -7.6867  -7.6090  -7.5797  -7.4534  -7.4014  -3.3952
    -2.8988  -2.5999  -2.5131  -2.3966  -2.1244  -2.0955  -2.0099  -1.9726
    -1.8661  -1.7731  -1.7480  -1.6953  -1.4098  -1.1657  -1.0498  -1.0355
    -1.0137  -0.9024  -0.8019  -0.7955  -0.6707  -0.6589  -0.5722  -0.5587
    -0.5360  -0.5355  -0.4739  -0.4013  -0.2543  -0.2510  -0.0270  -0.0027
     0.0321   0.0784   0.1315   0.1594   0.1876   0.2905   0.3352   0.3589
     0.3812   0.4025   0.4041   0.4121   0.5523   0.5733   0.5812   0.6652
     0.6678   0.7209   0.7449   0.8973   0.9734   0.9905   1.0200   1.1193
     1.1854   1.2830   1.3352   1.4390   1.4749   1.5355   1.5480   1.6290
     1.7088   1.7348   1.7902   1.8761   1.9033   1.9151   2.0161   2.0869
     2.1844   2.3838   2.5078   2.5317   2.5815   2.7316   2.7484   2.9424
     4.3682   4.7112   5.3909   5.8053   5.8903   6.1715   6.5137   6.5455
     6.6273   7.4303   7.5496   7.6848   7.7894   7.9818   7.9922   8.2864
     8.6708   8.8281

          k = 0.2500 0.1281 0.0000 ( 36518 PWs)   bands (ev):

   -41.2043 -38.2325 -23.1112 -22.8127 -22.6771 -22.4485 -21.3205 -21.1943
   -21.1057 -18.6275 -18.5550 -18.3273 -16.0988 -15.4727 -15.0864 -14.7750
   -14.7156 -14.5635 -14.5138 -14.2680 -14.2241 -14.1355 -13.9693 -13.8623
   -13.8017 -13.7011 -13.3022  -8.5592  -8.2880  -8.1436  -8.0595  -8.0275
    -7.9070  -7.8391  -7.7562  -7.6294  -7.6286  -7.4739  -7.2963  -3.5410
    -2.9082  -2.7379  -2.5563  -2.3314  -2.1175  -2.1171  -2.0910  -2.0507
    -1.9840  -1.8759  -1.6918  -1.6855  -1.6704  -1.5125  -1.2697  -1.1991
    -1.1204  -1.0881  -1.0588  -0.9566  -0.9255  -0.9162  -0.8432  -0.7612
    -0.7069  -0.5628  -0.4212  -0.4160  -0.3369  -0.3294  -0.1168   0.0464
     0.0582   0.1155   0.1333   0.1704   0.1883   0.2561   0.2996   0.3052
     0.3580   0.3716   0.3806   0.4984   0.6027   0.6345   0.6505   0.7141
     0.7424   0.7802   0.8762   0.9315   1.1149   1.1704   1.2149   1.2530
     1.2561   1.3204   1.4155   1.4377   1.5117   1.5399   1.6191   1.6294
     1.6702   1.6851   1.8487   1.9260   2.0041   2.0263   2.2383   2.2825
     2.3734   2.6581   2.7500   2.8703   2.8867   2.9899   3.0109   3.2551
     4.4741   4.7220   5.2274   6.0475   6.1333   6.1865   6.5366   6.6182
     6.6745   7.6865   7.7753   7.8034   7.9460   8.0741   8.2350   8.3840
     8.6749   8.8678

          k = 0.2500 0.2563 0.0000 ( 36545 PWs)   bands (ev):

   -41.2002 -38.2270 -23.0660 -22.7662 -22.6318 -22.4012 -21.3114 -21.2130
   -21.1629 -18.5612 -18.5415 -18.5247 -15.9825 -15.4970 -14.8546 -14.6728
   -14.6153 -14.5251 -14.4639 -14.3684 -14.2010 -13.9954 -13.9917 -13.8299
   -13.7858 -13.7697 -13.3564  -8.5932  -8.4892  -8.3304  -8.1474  -8.0767
    -8.0446  -7.9976  -7.9395  -7.7259  -7.6230  -7.5692  -7.3957  -3.8793
    -3.1578  -2.9047  -2.7813  -2.4759  -2.4313  -2.2636  -2.2336  -2.1662
    -2.1240  -2.0815  -2.0611  -1.9103  -1.8608  -1.8107  -1.6519  -1.5988
    -1.5640  -1.4977  -1.4718  -1.3191  -0.9956  -0.9608  -0.9032  -0.8364
    -0.7257  -0.7227  -0.6429  -0.5050  -0.4389  -0.3839  -0.2855  -0.2670
    -0.1874  -0.1463  -0.1321   0.0714   0.0865   0.2211   0.3253   0.4536
     0.5044   0.5485   0.5664   0.6072   0.6674   0.7418   0.7622   0.8026
     1.1241   1.1614   1.2036   1.2501   1.2719   1.2807   1.3643   1.3724
     1.3944   1.4875   1.5641   1.6236   1.6551   1.7202   1.7695   1.8555
     1.8677   1.9320   2.0318   2.0358   2.1384   2.1692   2.2607   2.4541
     2.8124   2.9238   3.1396   3.2604   3.2678   3.4567   3.6547   3.7523
     4.6934   4.7437   4.9336   6.3001   6.5591   6.5690   6.6167   6.6792
     7.0345   7.5125   8.2076   8.2963   8.3954   8.5464   8.6845   8.7280
     8.8407   8.9090

          k = 0.2500 0.3844 0.0000 ( 36557 PWs)   bands (ev):

   -41.1960 -38.2215 -23.0197 -22.7187 -22.5855 -22.3528 -21.3365 -21.2530
   -21.1615 -18.7425 -18.5252 -18.4461 -15.8295 -15.5638 -14.7305 -14.6020
   -14.5000 -14.4437 -14.4211 -14.4116 -14.1547 -14.0474 -13.8886 -13.8115
   -13.7863 -13.7257 -13.4525  -8.6801  -8.4923  -8.4371  -8.2749  -8.2040
    -8.1070  -8.0552  -7.9705  -7.9625  -7.7856  -7.6375  -7.5963  -4.2064
    -3.5718  -3.1655  -3.0604  -2.9182  -2.7590  -2.6934  -2.6486  -2.5041
    -2.2597  -2.1919  -2.1123  -1.9970  -1.9731  -1.9666  -1.9603  -1.7344
    -1.6129  -1.5367  -1.4891  -1.4004  -1.0971  -1.0257  -0.9421  -0.9347
    -0.9063  -0.8325  -0.6665  -0.6010  -0.5905  -0.4730  -0.4550  -0.4256
    -0.3948  -0.3358  -0.1950   0.0412   0.1269   0.2284   0.3635   0.5484
     0.5944   0.6285   0.7049   0.7235   0.8325   0.9124   0.9406   0.9649
     1.1858   1.2033   1.2727   1.3211   1.4144   1.4898   1.5057   1.6207
     1.6474   1.6906   1.7123   1.7173   1.8410   1.8622   1.9230   1.9588
     2.0399   2.1230   2.1557   2.2676   2.3150   2.4596   2.5148   2.7362
     3.0250   3.0692   3.1815   3.2067   3.5456   3.7247   4.0192   4.1034
     4.6035   4.7194   5.0676   6.1035   6.6171   6.7273   6.8952   7.0208
     7.1057   7.7944   8.2813   8.5849   8.6254   8.8016   9.0493   9.1074
     9.2305   9.3408

          k = 0.2500-0.5125 0.0000 ( 36598 PWs)   bands (ev):

   -41.1943 -38.2192 -23.0002 -22.6986 -22.5660 -22.3324 -21.3640 -21.2549
   -21.1576 -18.8170 -18.5194 -18.4054 -15.6869 -15.6723 -14.7738 -14.4985
   -14.4942 -14.4551 -14.4050 -14.2210 -14.1902 -14.1426 -13.9195 -13.7654
   -13.7218 -13.6458 -13.5624  -8.6679  -8.4838  -8.4217  -8.3737  -8.2488
    -8.1221  -8.0937  -8.0413  -7.9712  -7.9096  -7.7915  -7.5864  -4.3409
    -3.7351  -3.3835  -3.2434  -2.9628  -2.9139  -2.8875  -2.8145  -2.7076
    -2.2538  -2.1928  -2.1243  -2.0757  -2.0233  -1.9555  -1.9513  -1.8507
    -1.5858  -1.5315  -1.5028  -1.4229  -1.1941  -1.0727  -0.9859  -0.9569
    -0.9457  -0.8110  -0.7080  -0.6871  -0.6061  -0.5281  -0.4743  -0.4464
    -0.4427  -0.3871  -0.2104   0.0275   0.1640   0.2384   0.3809   0.5652
     0.6038   0.6287   0.7631   0.8644   0.8857   0.9571   1.0526   1.0719
     1.2330   1.2389   1.2920   1.3471   1.4888   1.4934   1.5208   1.5557
     1.5677   1.7345   1.7654   1.8469   1.8911   1.9205   1.9769   1.9836
     2.1268   2.2751   2.3476   2.4036   2.4411   2.6381   2.6855   2.8884
     2.9097   3.0648   3.0878   3.2860   3.6033   3.7791   4.0712   4.2454
     4.4820   4.7048   5.2087   6.0002   6.6245   6.6778   6.8502   6.9575
     7.6510   7.9461   7.9864   8.5821   8.7563   9.2055   9.2061   9.4589
     9.5071   9.5792

          k = 0.3750 0.0000 0.0000 ( 36578 PWs)   bands (ev):

   -41.2029 -38.2305 -23.0858 -22.7854 -22.6511 -22.4200 -21.3391 -21.2493
   -21.0646 -18.7499 -18.5729 -18.2212 -15.9676 -15.5767 -14.9538 -14.9323
   -14.8519 -14.7186 -14.6533 -14.3035 -14.1512 -14.0822 -14.0148 -13.8611
   -13.7911 -13.7036 -13.4177  -8.5889  -8.1379  -8.0542  -7.9756  -7.9244
    -7.7234  -7.6820  -7.6520  -7.5706  -7.4962  -7.4014  -7.3081  -3.5920
    -2.9220  -2.7720  -2.6840  -2.3218  -2.3108  -2.1502  -2.0787  -1.9727
    -1.8782  -1.8120  -1.7536  -1.7446  -1.7393  -1.3462  -1.2563  -1.1416
    -1.0651  -1.0461  -1.0333  -0.9669  -0.9223  -0.8336  -0.8183  -0.6976
    -0.6862  -0.6098  -0.5431  -0.5212  -0.4382  -0.3174  -0.2886  -0.2083
    -0.0419  -0.0178   0.0661   0.1518   0.2652   0.3264   0.3619   0.3891
     0.3923   0.3987   0.4019   0.5760   0.6117   0.6226   0.6335   0.6854
     0.7150   0.7608   0.8025   0.8184   0.8928   0.9396   1.0381   1.1977
     1.2715   1.3641   1.4028   1.4463   1.5370   1.5405   1.5953   1.7078
     1.7335   1.7516   1.8140   1.8356   1.8854   1.8946   2.0641   2.1557
     2.1793   2.4238   2.5452   2.5497   2.5990   2.8383   2.9772   3.0447
     4.2569   4.7571   5.2264   6.4413   6.5148   6.5266   6.6755   6.8751
     7.1503   7.7834   7.9425   7.9482   8.0936   8.3507   8.3905   8.7173
     8.8692   9.0479

          k = 0.3750 0.1281 0.0000 ( 36524 PWs)   bands (ev):

   -41.2012 -38.2282 -23.0690 -22.7684 -22.6344 -22.4028 -21.3345 -21.2460
   -21.1006 -18.7426 -18.5399 -18.3195 -15.9306 -15.5676 -14.8956 -14.8586
   -14.7705 -14.6748 -14.6102 -14.2695 -14.2185 -14.0590 -13.9710 -13.8447
   -13.7753 -13.7147 -13.4211  -8.5854  -8.2264  -8.1386  -8.0490  -7.9701
    -7.9578  -7.7962  -7.7123  -7.6846  -7.6098  -7.5354  -7.3526  -3.7520
    -3.0697  -2.8272  -2.7991  -2.3428  -2.3412  -2.1983  -2.1185  -2.1094
    -2.0127  -1.9678  -1.8912  -1.6436  -1.6373  -1.5459  -1.4109  -1.3391
    -1.2877  -1.1971  -1.0922  -1.0656  -0.9969  -0.9486  -0.9219  -0.9103
    -0.8280  -0.6706  -0.6468  -0.5908  -0.5497  -0.3713  -0.1981  -0.0446
    -0.0370   0.0596   0.0912   0.1304   0.1722   0.2796   0.2927   0.3239
     0.4123   0.4355   0.4917   0.5615   0.6796   0.7211   0.7399   0.7921
     0.8206   0.8246   0.8818   1.0110   1.0855   1.1174   1.1472   1.2575
     1.2855   1.3537   1.4732   1.5105   1.5498   1.5668   1.5992   1.6801
     1.7113   1.7248   1.8228   1.8949   2.0252   2.1500   2.2063   2.4301
     2.5508   2.7697   2.8882   2.9138   2.9619   3.0670   3.1415   3.3545
     4.3204   4.7884   5.0694   6.3680   6.5657   6.6348   6.6669   6.9290
     7.2398   7.6010   8.0180   8.0512   8.1341   8.5839   8.6776   8.7379
     8.8288   9.0907

          k = 0.3750 0.2563 0.0000 ( 36559 PWs)   bands (ev):

   -41.1970 -38.2227 -23.0280 -22.7268 -22.5935 -22.3608 -21.3244 -21.2559
   -21.1666 -18.7252 -18.5347 -18.4567 -15.8351 -15.5547 -14.7715 -14.6778
   -14.5848 -14.5632 -14.4723 -14.3846 -14.1869 -14.0053 -13.8577 -13.8071
   -13.7611 -13.7410 -13.4352  -8.6490  -8.5231  -8.3795  -8.2418  -8.1740
    -8.0950  -8.0463  -7.9954  -7.9533  -7.7877  -7.6425  -7.6248  -4.1720
    -3.5094  -3.0580  -2.8921  -2.8181  -2.4652  -2.4020  -2.2974  -2.1961
    -2.1361  -2.0858  -1.9998  -1.9698  -1.9484  -1.8671  -1.8594  -1.7935
    -1.7121  -1.5858  -1.3867  -1.3452  -1.0134  -0.9270  -0.8716  -0.8145
    -0.7994  -0.7286  -0.6325  -0.5665  -0.5047  -0.4570  -0.3390  -0.2825
    -0.2787  -0.2067  -0.1329   0.0103   0.1462   0.3311   0.4134   0.5838
     0.6315   0.6344   0.7324   0.7996   0.8342   0.9110   0.9658   0.9679
     1.0959   1.1774   1.2321   1.3068   1.3371   1.3774   1.4062   1.4350
     1.5122   1.5673   1.5930   1.6445   1.6670   1.7132   1.7961   1.8640
     1.9267   1.9444   2.0281   2.1231   2.1555   2.1771   2.2323   2.7214
     3.1176   3.1486   3.1944   3.2505   3.6406   3.6745   3.8123   4.0797
     4.3777   4.7736   4.9958   5.9812   6.5403   6.6175   6.6928   7.0062
     7.0166   7.7032   8.2591   8.3959   8.5983   8.7048   9.0008   9.0422
     9.0970   9.1675

          k = 0.3750 0.3844 0.0000 ( 36631 PWs)   bands (ev):

   -41.1929 -38.2172 -22.9861 -22.6844 -22.5518 -22.3180 -21.3291 -21.3020
   -21.1782 -18.7293 -18.7047 -18.3674 -15.7188 -15.5661 -14.6586 -14.5481
   -14.4668 -14.4410 -14.4118 -14.2827 -14.1123 -13.9868 -13.8389 -13.7735
   -13.7385 -13.6996 -13.4677  -8.8880  -8.6459  -8.5514  -8.5445  -8.4335
    -8.3134  -8.2821  -8.0850  -8.0801  -7.9945  -7.9586  -7.6268  -4.5850
    -3.9616  -3.4202  -3.1132  -3.0609  -2.9054  -2.8005  -2.6209  -2.5592
    -2.3949  -2.3639  -2.2832  -2.1429  -2.0568  -1.9765  -1.9129  -1.8675
    -1.8113  -1.6537  -1.4065  -1.2853  -1.2157  -1.0153  -0.9667  -0.8566
    -0.8446  -0.8202  -0.6794  -0.6056  -0.6053  -0.5150  -0.4978  -0.4277
    -0.4043  -0.1251  -0.0801   0.0062   0.2453   0.4463   0.4769   0.6815
     0.7977   0.8313   0.9061   0.9430   1.0385   1.0990   1.1658   1.3050
     1.3332   1.3397   1.4228   1.5252   1.5320   1.5526   1.6185   1.6283
     1.7423   1.8378   1.8561   1.8584   1.9271   1.9613   1.9758   2.0000
     2.1142   2.1838   2.2349   2.3432   2.3484   2.3809   2.4412   3.0152
     3.0592   3.1792   3.2975   3.6843   4.0426   4.2087   4.3075   4.3782
     4.5498   4.6192   5.2797   5.4657   6.1753   6.3427   6.7195   6.8681
     7.2824   8.0208   8.5892   8.7316   8.8461   8.9023   8.9706   9.1090
     9.1167   9.3453

          k = 0.3750-0.5125 0.0000 ( 36666 PWs)   bands (ev):

   -41.1912 -38.2149 -22.9686 -22.6666 -22.5343 -22.3000 -21.3563 -21.3036
   -21.1746 -18.8014 -18.6994 -18.3283 -15.6296 -15.6128 -14.6616 -14.5630
   -14.4092 -14.3862 -14.2129 -14.1895 -14.1225 -14.0759 -13.8505 -13.7618
   -13.7208 -13.6333 -13.5012  -8.9657  -8.7249  -8.6903  -8.5431  -8.5358
    -8.4374  -8.3926  -8.2081  -8.1140  -8.0788  -7.9904  -7.6210  -4.7502
    -4.1427  -3.5878  -3.3079  -3.2062  -2.9872  -2.9022  -2.8590  -2.7907
    -2.5039  -2.4114  -2.2967  -2.1400  -2.0911  -1.9720  -1.9134  -1.9072
    -1.7931  -1.6840  -1.4107  -1.3854  -1.2258  -1.0451  -0.9759  -0.9017
    -0.9016  -0.8645  -0.7133  -0.6842  -0.6606  -0.5887  -0.4973  -0.4726
    -0.4131  -0.0462   0.0124   0.0182   0.2734   0.4912   0.5175   0.6937
     0.8346   0.9462   0.9582   1.0156   1.1192   1.1808   1.2293   1.3518
     1.3757   1.4659   1.5449   1.5911   1.6355   1.7002   1.7264   1.7448
     1.7847   1.7974   1.8339   1.9174   1.9749   2.1020   2.1210   2.2068
     2.2292   2.2687   2.3676   2.4224   2.4823   2.5773   2.6249   2.8901
     3.0232   3.1575   3.3742   3.8265   4.1499   4.3125   4.3670   4.4723
     4.5182   4.7864   5.2564   5.4126   5.9776   6.1479   6.6309   6.9380
     7.8920   8.0362   8.1704   8.8174   8.8201   8.9752   9.1024   9.1905
     9.2778   9.3493

          k =-0.5000 0.0000 0.0000 ( 36502 PWs)   bands (ev):

   -41.2016 -38.2286 -23.0673 -22.7659 -22.6324 -22.3998 -21.3582 -21.2566
   -21.0628 -18.8220 -18.5345 -18.2187 -15.8414 -15.6770 -15.0071 -14.9411
   -14.7772 -14.7617 -14.7153 -14.3346 -14.1395 -14.1245 -13.9199 -13.8553
   -13.7616 -13.7118 -13.5138  -8.5954  -8.1371  -8.0365  -7.9692  -7.8899
    -7.7006  -7.6775  -7.6137  -7.5601  -7.4605  -7.3825  -7.2680  -3.6762
    -3.0454  -2.8862  -2.4835  -2.4535  -2.2683  -2.1906  -2.1686  -2.1055
    -2.0285  -1.7785  -1.7730  -1.7306  -1.5244  -1.4502  -1.3214  -1.2705
    -1.1901  -1.1634  -1.0803  -0.9735  -0.9596  -0.9550  -0.7934  -0.7778
    -0.7387  -0.6626  -0.5533  -0.5426  -0.5372  -0.5153  -0.3032  -0.2555
    -0.0875  -0.0220   0.0265   0.1516   0.3160   0.3429   0.3728   0.3835
     0.3920   0.3932   0.4081   0.6001   0.6265   0.6531   0.6771   0.7099
     0.7141   0.7311   0.7345   0.8488   0.9163   0.9597   1.1721   1.1873
     1.3164   1.3505   1.3534   1.4651   1.4912   1.5349   1.5552   1.7599
     1.7618   1.8073   1.8116   1.8234   1.9137   1.9271   2.1402   2.1544
     2.3130   2.4214   2.4812   2.5441   2.6079   2.8516   2.9655   3.1652
     4.1288   4.8424   5.1652   6.6357   6.6919   7.0667   7.1877   7.2972
     7.3461   7.3518   7.4670   7.6645   7.9305   8.5693   8.7569   8.9609
     9.1007   9.1222

          k =-0.5000 0.1281 0.0000 ( 36528 PWs)   bands (ev):

   -41.1998 -38.2264 -23.0513 -22.7497 -22.6164 -22.3835 -21.3543 -21.2528
   -21.0985 -18.8143 -18.5022 -18.3162 -15.8093 -15.6605 -14.9518 -14.8770
   -14.7233 -14.6741 -14.6458 -14.3005 -14.2061 -14.0909 -13.8815 -13.8370
   -13.7461 -13.7166 -13.5077  -8.5904  -8.1328  -8.0970  -8.0947  -8.0337
    -7.8358  -7.8250  -7.6833  -7.6785  -7.6646  -7.5183  -7.4780  -3.8424
    -3.1986  -2.9497  -2.6964  -2.5250  -2.4782  -2.1671  -2.1448  -2.1247
    -2.0228  -2.0009  -1.7099  -1.6509  -1.6312  -1.6099  -1.5625  -1.4971
    -1.3178  -1.1507  -1.0929  -1.0603  -1.0499  -0.9776  -0.9114  -0.8517
    -0.8473  -0.7539  -0.7117  -0.6767  -0.6672  -0.3853  -0.2471  -0.0853
    -0.0558  -0.0134   0.0745   0.0771   0.1712   0.2674   0.3203   0.3280
     0.4142   0.4559   0.5380   0.5856   0.6734   0.7290   0.8359   0.8395
     0.8762   0.8946   0.9638   1.0012   1.0256   1.0406   1.2103   1.2665
     1.3177   1.3519   1.4747   1.4808   1.4854   1.5066   1.6036   1.7009
     1.7454   1.7676   1.8347   1.9138   2.0520   2.1755   2.3076   2.4691
     2.6573   2.7910   2.8783   2.9073   2.9627   3.1382   3.1780   3.3689
     4.1569   4.8883   5.0115   6.4034   6.6363   7.0144   7.1677   7.2342
     7.4207   7.5756   7.6446   7.6461   7.7938   8.9527   8.9579   8.9957
     9.0686   9.2789

          k =-0.5000 0.2563 0.0000 ( 36566 PWs)   bands (ev):

   -41.1957 -38.2209 -23.0120 -22.7103 -22.5774 -22.3438 -21.3447 -21.2620
   -21.1640 -18.7955 -18.5302 -18.4205 -15.7300 -15.6242 -14.8189 -14.6906
   -14.5819 -14.5655 -14.3889 -14.3681 -14.2180 -14.0090 -13.7974 -13.7890
   -13.7485 -13.7125 -13.4939  -8.6082  -8.5076  -8.3979  -8.3016  -8.1470
    -8.1380  -8.1011  -7.9952  -7.9652  -7.9612  -7.8292  -7.6462  -4.2938
    -3.6510  -3.1933  -2.9473  -2.8738  -2.5995  -2.3797  -2.3125  -2.1914
    -2.1334  -2.1208  -2.0776  -2.0441  -1.9301  -1.8687  -1.8661  -1.7929
    -1.7824  -1.6093  -1.3642  -1.3303  -1.1125  -0.9042  -0.8300  -0.7657
    -0.7054  -0.6916  -0.6642  -0.6341  -0.5789  -0.4238  -0.3460  -0.3208
    -0.2814  -0.2315  -0.1373  -0.0181   0.1871   0.3346   0.5186   0.6118
     0.6615   0.7251   0.7469   0.8760   0.9105   0.9655   1.0235   1.0673
     1.1250   1.2148   1.2881   1.4018   1.4045   1.4302   1.4375   1.4611
     1.4744   1.4933   1.4963   1.6142   1.6691   1.8246   1.8525   1.8910
     1.8916   1.9361   1.9995   2.0029   2.1277   2.2308   2.3040   2.8537
     3.1323   3.2340   3.2393   3.3021   3.6942   3.7736   3.9078   4.1692
     4.1746   4.7160   5.1062   5.8228   6.4984   6.6220   6.6591   6.9284
     7.5551   7.8654   8.0113   8.3565   8.4346   8.9630   8.9839   9.1949
     9.2232   9.2548

          k =-0.5000 0.3844 0.0000 ( 36670 PWs)   bands (ev):

   -41.1916 -38.2154 -22.9721 -22.6701 -22.5377 -22.3034 -21.3352 -21.3207
   -21.1769 -18.7768 -18.7211 -18.3329 -15.6480 -15.5928 -14.6846 -14.5400
   -14.4439 -14.4176 -14.4136 -14.1499 -14.1397 -13.9596 -13.8157 -13.7678
   -13.7260 -13.6621 -13.4812  -8.9399  -8.6952  -8.6919  -8.5572  -8.5113
    -8.4408  -8.3598  -8.2263  -8.1209  -8.0969  -8.0008  -7.6394  -4.7390
    -4.1220  -3.5605  -3.2049  -3.0468  -2.9163  -2.9062  -2.6091  -2.5639
    -2.5057  -2.4286  -2.3112  -2.1380  -2.1132  -1.9757  -1.9369  -1.8961
    -1.7920  -1.7082  -1.3766  -1.3743  -1.1279  -1.0706  -0.9700  -0.8282
    -0.8061  -0.7852  -0.7521  -0.6150  -0.5557  -0.5413  -0.4895  -0.4758
    -0.4426  -0.0260   0.0250   0.0301   0.2761   0.4834   0.6035   0.7147
     0.8781   0.8990   1.0007   1.0652   1.1059   1.2635   1.2674   1.3173
     1.3654   1.3884   1.4905   1.5820   1.5964   1.6799   1.7479   1.7523
     1.7681   1.7719   1.8419   1.8678   1.9286   1.9752   1.9964   2.0958
     2.1879   2.2248   2.2783   2.3166   2.3430   2.3930   2.3977   3.0570
     3.1438   3.1625   3.3830   3.9011   4.1092   4.1488   4.4295   4.4836
     4.5173   4.8221   5.1931   5.3874   5.9366   6.1059   6.6134   6.9674
     7.8358   8.1580   8.1836   8.6289   8.6803   8.8627   9.1032   9.1492
     9.2079   9.3187

          k =-0.5000-0.5125 0.0000 ( 36660 PWs)   bands (ev):

   -41.1899 -38.2131 -22.9553 -22.6532 -22.5210 -22.2864 -21.3531 -21.3312
   -21.1734 -18.7950 -18.7690 -18.2947 -15.6132 -15.5813 -14.6286 -14.6120
   -14.3715 -14.3388 -14.1970 -14.1116 -14.0710 -14.0571 -13.8200 -13.7600
   -13.7239 -13.6249 -13.4763  -9.0877  -8.8473  -8.8127  -8.6629  -8.5583
    -8.5518  -8.5126  -8.3285  -8.2370  -8.0948  -7.9979  -7.6359  -4.9153
    -4.3115  -3.7288  -3.2965  -3.2881  -3.0817  -2.9186  -2.8468  -2.7994
    -2.6365  -2.4564  -2.3348  -2.1622  -2.1331  -1.9638  -1.9297  -1.9297
    -1.7654  -1.7556  -1.4668  -1.3714  -1.1438  -1.0538  -1.0444  -0.8769
    -0.8614  -0.8572  -0.7831  -0.7044  -0.6246  -0.5815  -0.5615  -0.4721
    -0.4320   0.0171   0.0582   0.2088   0.3025   0.5432   0.6789   0.7291
     0.9305   0.9628   0.9650   1.1513   1.2892   1.3456   1.3558   1.3947
     1.4455   1.4581   1.4786   1.6628   1.7250   1.7274   1.8794   1.8862
     1.9022   1.9134   1.9277   1.9393   1.9908   2.0957   2.1501   2.2667
     2.3381   2.3481   2.4420   2.4440   2.5176   2.5500   2.5948   2.8844
     2.9959   3.2802   3.4396   4.1084   4.1208   4.2073   4.3954   4.6536
     4.7399   4.9612   5.0459   5.4879   5.6869   5.8605   6.5157   7.2580
     8.0512   8.2483   8.2844   8.3717   8.6500   8.6688   9.0805   9.1661
     9.1822   9.3946

     the Fermi energy is     2.8477 ev

!    total energy              =   -1868.41189542 Ry
     Harris-Foulkes estimate   =   -1868.41189617 Ry
     estimated scf accuracy    <       0.00000091 Ry

     The total energy is the sum of the following terms:

     one-electron contribution =  -30125.85284766 Ry
     hartree contribution      =   15214.61166570 Ry
     xc contribution           =    -641.77782197 Ry
     ewald contribution        =   13684.61601054 Ry
     smearing contrib. (-TS)   =      -0.00890203 Ry

     convergence has been achieved in  37 iterations

     negative rho (up, down):  8.992E-02 0.000E+00

     Forces acting on atoms (cartesian axes, Ry/au):

     atom    1 type  3   force =     0.00000000    0.00000000    0.00012059
     atom    2 type  2   force =     0.00000000    0.00000000   -0.00016749
     atom    3 type  3   force =     0.00000000    0.00000000   -0.00005524
     atom    4 type  1   force =     0.00000000    0.00000000   -0.00003993
     atom    5 type  2   force =     0.00000000    0.00000000   -0.00053259
     atom    6 type  3   force =     0.00000000    0.00000000    0.00039429
     atom    7 type  3   force =     0.00000000    0.00000000    0.00015923
     atom    8 type  4   force =     0.00000000    0.00000000   -0.00041670
     atom    9 type  3   force =     0.00000000    0.00000000    0.00086346
     atom   10 type  3   force =     0.00000000    0.00000000    0.00111265
     atom   11 type  2   force =     0.00000000    0.00000000   -0.00233750
     atom   12 type  1   force =     0.00000000    0.00000000   -0.00160743
     atom   13 type  3   force =     0.00000000    0.00000000    0.00241335
     atom   14 type  3   force =     0.00000000    0.00000000    0.00601245
     atom   15 type  2   force =     0.00000000    0.00000000   -0.01139727
     atom   16 type  3   force =     0.00000000    0.00000000    0.02037110
     atom   17 type  1   force =     0.00000000    0.00000000   -0.02359313
     atom   18 type  2   force =     0.00000000    0.00000000    0.00221385
     atom   19 type  3   force =     0.00000000    0.00000000    0.06231362
     atom   20 type  3   force =     0.00000000    0.00000000    0.06432364
     atom   21 type  4   force =     0.00000000    0.00000000   -0.10568572
     atom   22 type  3   force =     0.00000000    0.00000000    0.01542622
     atom   23 type  3   force =     0.00000000    0.00000000    0.02165961
     atom   24 type  2   force =     0.00000000    0.00000000   -0.01877041
     atom   25 type  1   force =     0.00000000    0.00000000   -0.03252581
     atom   26 type  3   force =     0.00000000    0.00000000   -0.00279020
     atom   27 type  2   force =     0.00000000    0.00000000   -0.00257554
     atom   28 type  3   force =     0.00000000    0.00000000    0.00511091

     Total force =     0.150023     Total SCF correction =     0.004177


     Computing stress (Cartesian axis) and pressure


     negative rho (up, down):  8.992E-02 0.000E+00
          total   stress  (Ry/bohr**3)                   (kbar)     P=      -10.85
  -0.00005698   0.00000000   0.00000000           -8.38        0.00        0.00
   0.00000000  -0.00004220   0.00000000            0.00       -6.21        0.00
   0.00000000   0.00000000  -0.00012209            0.00        0.00      -17.96

 
     init_run     :     10.20s CPU     10.51s WALL (       1 calls)
     electrons    :    673.35s CPU    696.42s WALL (       1 calls)
     forces       :      4.39s CPU      4.54s WALL (       1 calls)
     stress       :     45.71s CPU     46.24s WALL (       1 calls)

     Called by init_run:
     wfcinit      :      7.21s CPU      7.32s WALL (       1 calls)
     potinit      :      0.70s CPU      0.71s WALL (       1 calls)
     hinit0       :      1.20s CPU      1.21s WALL (       1 calls)

     Called by electrons:
     c_bands      :    508.28s CPU    519.58s WALL (      37 calls)
     sum_band     :    111.39s CPU    117.67s WALL (      37 calls)
     v_of_rho     :      3.88s CPU      3.94s WALL (      38 calls)
     newd         :     25.64s CPU     30.97s WALL (      38 calls)
     mix_rho      :     24.46s CPU     24.67s WALL (      37 calls)

     Called by c_bands:
     init_us_2    :      3.91s CPU      3.94s WALL (    1925 calls)
     cegterg      :    478.40s CPU    489.02s WALL (     925 calls)

     Called by sum_band:
     sum_band:bec :      0.26s CPU      0.26s WALL (     925 calls)
     addusdens    :     26.93s CPU     32.32s WALL (      37 calls)

     Called by *egterg:
     h_psi        :    233.00s CPU    240.37s WALL (    3597 calls)
     s_psi        :     22.55s CPU     22.76s WALL (    3597 calls)
     g_psi        :      0.69s CPU      0.70s WALL (    2647 calls)
     cdiaghg      :    102.29s CPU    102.74s WALL (    3572 calls)

     Called by h_psi:
     h_psi:calbec :     28.65s CPU     30.08s WALL (    3597 calls)
     vloc_psi     :    180.17s CPU    182.87s WALL (    3597 calls)
     add_vuspsi   :     23.18s CPU     24.74s WALL (    3597 calls)

     General routines
     calbec       :     70.81s CPU     72.38s WALL (    4647 calls)
     fft          :      3.98s CPU      4.00s WALL (     517 calls)
     ffts         :     11.61s CPU     11.72s WALL (   17311 calls)
     fftw         :    208.62s CPU    211.76s WALL (  656646 calls)
     interpolate  :      0.29s CPU      0.30s WALL (      38 calls)
 
     Parallel routines
     fft_scatt_xy :     25.52s CPU     25.85s WALL (  674474 calls)
     fft_scatt_yz :    133.73s CPU    135.69s WALL (  674474 calls)
 
     PWSCF        :  12m14.66s CPU  12m38.76s WALL

 
   This run was terminated on:  17:36:28   5May2021            

=------------------------------------------------------------------------------=
   JOB DONE.
=------------------------------------------------------------------------------=
[1620250588.105411] [holy7c16211:172208:0]          mpool.c:43   UCX  WARN  object 0x3106d80 was not returned to mpool ucp_requests
[1620250588.105430] [holy7c16211:172208:0]          mpool.c:43   UCX  WARN  object 0x3107100 was not returned to mpool ucp_requests
[1620250588.105917] [holy7c16106:61425:0]          mpool.c:43   UCX  WARN  object 0x3ad1d40 was not returned to mpool ucp_requests
[1620250588.105934] [holy7c16106:61425:0]          mpool.c:43   UCX  WARN  object 0x3ad2280 was not returned to mpool ucp_requests
[1620250588.107106] [holy7c16111:253172:0]          mpool.c:43   UCX  WARN  object 0x3782f40 was not returned to mpool ucp_requests
[1620250588.104565] [holy7c16104:185427:0]          mpool.c:43   UCX  WARN  object 0x472abc0 was not returned to mpool ucp_requests
[1620250588.112528] [holy7c16103:216543:0]          mpool.c:43   UCX  WARN  object 0x46148c0 was not returned to mpool ucp_requests
[1620250588.112550] [holy7c16103:216543:0]          mpool.c:43   UCX  WARN  object 0x4614a80 was not returned to mpool ucp_requests
[1620250588.107809] [holy7c16111:253174:0]          mpool.c:43   UCX  WARN  object 0x4536740 was not returned to mpool ucp_requests
[1620250588.107826] [holy7c16111:253174:0]          mpool.c:43   UCX  WARN  object 0x4536900 was not returned to mpool ucp_requests
[1620250588.107603] [holy7c16111:253175:0]          mpool.c:43   UCX  WARN  object 0x470a740 was not returned to mpool ucp_requests
