
     Program PWSCF v.6.5 starts on  5May2021 at 17:29:31 

     This program is part of the open-source Quantum ESPRESSO suite
     for quantum simulation of materials; please cite
         "P. Giannozzi et al., J. Phys.:Condens. Matter 21 395502 (2009);
         "P. Giannozzi et al., J. Phys.:Condens. Matter 29 465901 (2017);
          URL http://www.quantum-espresso.org", 
     in publications or presentations arising from this work. More details at
     http://www.quantum-espresso.org/quote

     Parallel version (MPI), running on    20 processors

     MPI processes distributed on     6 nodes
     R & G space division:  proc/nbgrp/npool/nimage =      20
     Reading input from YBCO_BaO_cleave_4.0_sep_scf.pwi
Warning: card &IONS ignored
Warning: card     ION_DYNAMICS = 'BFGS' ignored
Warning: card / ignored
Warning: card &CELL ignored
Warning: card     CELL_DYNAMICS = 'BFGS' ignored
Warning: card / ignored

     Current dimensions of program PWSCF are:
     Max number of different atomic species (ntypx) = 10
     Max number of k-points (npk) =  40000
     Max angular momentum in pseudopotentials (lmaxx) =  3

     Subspace diagonalization in iterative solution of the eigenvalue problem:
     one sub-group per band group will be used
     scalapack distributed-memory algorithm (size of sub-group:  4*  4 procs)

     Message from routine setup:
     using ibrav=0 with symmetry is DISCOURAGED, use correct ibrav instead
 
     Parallelization info
     --------------------
     sticks:   dense  smooth     PW     G-vecs:    dense   smooth      PW
     Min         150      50     14                77556    14916    2324
     Max         151      51     15                77597    14941    2375
     Sum        3015    1011    293              1551541   298495   47017
 


     bravais-lattice index     =            0
     lattice parameter (alat)  =       7.3477  a.u.
     unit-cell volume          =    4754.8956 (a.u.)^3
     number of atoms/cell      =           28
     number of atomic types    =            4
     number of electrons       =       229.00
     number of Kohn-Sham states=          138
     kinetic-energy cutoff     =      60.0000  Ry
     charge density cutoff     =     720.0000  Ry
     convergence threshold     =      1.0E-06
     mixing beta               =       0.2000
     number of iterations used =           10  local-TF  mixing
     Exchange-correlation= SLA PW PBE PBE
                           (   1   4   3   4   0   0   0)

     celldm(1)=   7.347715  celldm(2)=   0.000000  celldm(3)=   0.000000
     celldm(4)=   0.000000  celldm(5)=   0.000000  celldm(6)=   0.000000

     crystal axes: (cart. coord. in units of alat)
               a(1) = (   1.000000   0.000000   0.000000 )  
               a(2) = (   0.000000   0.975577   0.000000 )  
               a(3) = (   0.000000   0.000000  12.286335 )  

     reciprocal axes: (cart. coord. in units 2 pi/alat)
               b(1) = (  1.000000  0.000000  0.000000 )  
               b(2) = (  0.000000  1.025034  0.000000 )  
               b(3) = (  0.000000  0.000000  0.081391 )  


     PseudoPot. # 1 for Ba read from file:
     /n/holyscratch01/hoffman_lab/ruizhe/YBCO_Project/pseudo/Ba.pbe-nsp-van.UPF
     MD5 check sum: 2b9c31dd849566dd297d80989662b7a0
     Pseudo is Ultrasoft + core correction, Zval = 10.0
     Generated by new atomic code, or converted to UPF format
     Using radial grid of  907 points,  6 beta functions with: 
                l(1) =   0
                l(2) =   0
                l(3) =   1
                l(4) =   1
                l(5) =   2
                l(6) =   2
     Q(r) pseudized with  6 coefficients,  rinner =    1.200   1.200   1.200
                                                       1.200   1.200

     PseudoPot. # 2 for Cu read from file:
     /n/holyscratch01/hoffman_lab/ruizhe/YBCO_Project/pseudo/Cu.pbe-n-van_ak.UPF
     MD5 check sum: 34e3282627ffb533726feb647e090d62
     Pseudo is Ultrasoft + core correction, Zval = 11.0
     Generated by new atomic code, or converted to UPF format
     Using radial grid of  867 points,  6 beta functions with: 
                l(1) =   0
                l(2) =   0
                l(3) =   1
                l(4) =   1
                l(5) =   2
                l(6) =   2
     Q(r) pseudized with  8 coefficients,  rinner =    1.400   1.400   1.400
                                                       1.400   1.400

     PseudoPot. # 3 for O  read from file:
     /n/holyscratch01/hoffman_lab/ruizhe/YBCO_Project/pseudo/O.pbe-van_ak.UPF
     MD5 check sum: 783ce7fe4c79b6a4916957118fed0856
     Pseudo is Ultrasoft, Zval =  6.0
     Generated by new atomic code, or converted to UPF format
     Using radial grid of  737 points,  4 beta functions with: 
                l(1) =   0
                l(2) =   0
                l(3) =   1
                l(4) =   1
     Q(r) pseudized with  8 coefficients,  rinner =    0.800   0.800   0.800


     PseudoPot. # 4 for Y  read from file:
     /n/holyscratch01/hoffman_lab/ruizhe/YBCO_Project/pseudo/Y.pbe-nsp-van.UPF
     MD5 check sum: 4412fed3ab108fed87a1b7d6a69a4a38
     Pseudo is Ultrasoft + core correction, Zval = 11.0
     Generated by new atomic code, or converted to UPF format
     Using radial grid of  885 points,  6 beta functions with: 
                l(1) =   0
                l(2) =   0
                l(3) =   1
                l(4) =   1
                l(5) =   2
                l(6) =   2
     Q(r) pseudized with  6 coefficients,  rinner =    1.200   1.200   1.200
                                                       1.200   1.200

     atomic species   valence    mass     pseudopotential
        Ba            10.00   137.32700     Ba( 1.00)
        Cu            11.00    63.54600     Cu( 1.00)
        O              6.00    15.99900     O ( 1.00)
        Y             11.00    88.90584     Y ( 1.00)

      4 Sym. Ops. (no inversion) found



   Cartesian axes

     site n.     atom                  positions (alat units)
         1           O   tau(   1) = (   0.0000000   0.4877884  -0.0257983  )
         2           Cu  tau(   2) = (   0.0000000   0.0000000   0.0215779  )
         3           O   tau(   3) = (   0.0000000   0.0000000   0.5073114  )
         4           Ba  tau(   4) = (   0.4999996   0.4877884   0.5319677  )
         5           Cu  tau(   5) = (   0.0000000   0.0000000   1.0495845  )
         6           O   tau(   6) = (   0.4999996   0.0000000   1.1181579  )
         7           O   tau(   7) = (   0.0000000   0.4877884   1.1273137  )
         8           Y   tau(   8) = (   0.4999996   0.4877884   1.4938777  )
         9           O   tau(   9) = (   0.0000000   0.4877884   1.8497402  )
        10           O   tau(  10) = (   0.4999996   0.0000000   1.8692709  )
        11           Cu  tau(  11) = (   0.0000000   0.0000000   1.9417560  )
        12           Ba  tau(  12) = (   0.4999996   0.4877884   2.4526063  )
        13           O   tau(  13) = (   0.0000000   0.0000000   2.5103470  )
        14           O   tau(  14) = (   0.0000000   0.4877884   2.9968469  )
        15           Cu  tau(  15) = (   0.0000000   0.0000000   2.9968521  )
        16           O   tau(  16) = (   0.0000000   0.0000000   3.4833288  )
        17           Ba  tau(  17) = (   0.4999996   0.4877884   3.5410618  )
        18           Cu  tau(  18) = (   0.0000000   0.0000000   5.0806774  )
        19           O   tau(  19) = (   0.4999996   0.0000000   5.1531497  )
        20           O   tau(  20) = (   0.0000000   0.4877884   5.1726624  )
        21           Y   tau(  21) = (   0.4999996   0.4877884   5.5285275  )
        22           O   tau(  22) = (   0.0000000   0.4877884   5.8950914  )
        23           O   tau(  23) = (   0.4999996   0.0000000   5.9042601  )
        24           Cu  tau(  24) = (   0.0000000   0.0000000   5.9728386  )
        25           Ba  tau(  25) = (   0.4999996   0.4877884   6.4904400  )
        26           O   tau(  26) = (   0.0000000   0.0000000   6.5150964  )
        27           Cu  tau(  27) = (   0.0000000   0.0000000   7.0008016  )
        28           O   tau(  28) = (   0.0000000   0.4877884   7.0481829  )

     number of k points=    25  Gaussian smearing, width (Ry)=  0.0100
                       cart. coord. in units 2pi/alat
        k(    1) = (   0.0000000   0.0000000   0.0000000), wk =   0.0312500
        k(    2) = (   0.0000000   0.1281293   0.0000000), wk =   0.0625000
        k(    3) = (   0.0000000   0.2562585   0.0000000), wk =   0.0625000
        k(    4) = (   0.0000000   0.3843878   0.0000000), wk =   0.0625000
        k(    5) = (   0.0000000  -0.5125170   0.0000000), wk =   0.0312500
        k(    6) = (   0.1250000   0.0000000   0.0000000), wk =   0.0625000
        k(    7) = (   0.1250000   0.1281293   0.0000000), wk =   0.1250000
        k(    8) = (   0.1250000   0.2562585   0.0000000), wk =   0.1250000
        k(    9) = (   0.1250000   0.3843878   0.0000000), wk =   0.1250000
        k(   10) = (   0.1250000  -0.5125170   0.0000000), wk =   0.0625000
        k(   11) = (   0.2500000   0.0000000   0.0000000), wk =   0.0625000
        k(   12) = (   0.2500000   0.1281293   0.0000000), wk =   0.1250000
        k(   13) = (   0.2500000   0.2562585   0.0000000), wk =   0.1250000
        k(   14) = (   0.2500000   0.3843878   0.0000000), wk =   0.1250000
        k(   15) = (   0.2500000  -0.5125170   0.0000000), wk =   0.0625000
        k(   16) = (   0.3750000   0.0000000   0.0000000), wk =   0.0625000
        k(   17) = (   0.3750000   0.1281293   0.0000000), wk =   0.1250000
        k(   18) = (   0.3750000   0.2562585   0.0000000), wk =   0.1250000
        k(   19) = (   0.3750000   0.3843878   0.0000000), wk =   0.1250000
        k(   20) = (   0.3750000  -0.5125170   0.0000000), wk =   0.0625000
        k(   21) = (  -0.5000000   0.0000000   0.0000000), wk =   0.0312500
        k(   22) = (  -0.5000000   0.1281293   0.0000000), wk =   0.0625000
        k(   23) = (  -0.5000000   0.2562585   0.0000000), wk =   0.0625000
        k(   24) = (  -0.5000000   0.3843878   0.0000000), wk =   0.0625000
        k(   25) = (  -0.5000000  -0.5125170   0.0000000), wk =   0.0312500

     Dense  grid:  1551541 G-vectors     FFT dimensions: (  64,  64, 800)

     Smooth grid:   298495 G-vectors     FFT dimensions: (  40,  36, 450)

     Estimated max dynamical RAM per process >     495.06 MB

     Estimated total dynamical RAM >       9.67 GB

     Initial potential from superposition of free atoms

     starting charge  228.84827, renormalised to  229.00000

     negative rho (up, down):  8.950E-02 0.000E+00
     Starting wfcs are  201 randomized atomic wfcs

     total cpu time spent up to now is       12.2 secs

     Self-consistent Calculation

     iteration #  1     ecut=    60.00 Ry     beta= 0.20
     Davidson diagonalization with overlap
     ethr =  1.00E-02,  avg # of iterations =  2.0

     negative rho (up, down):  8.741E-02 0.000E+00

     total cpu time spent up to now is       28.7 secs

     total energy              =   -1869.58462078 Ry
     Harris-Foulkes estimate   =   -1871.19648175 Ry
     estimated scf accuracy    <      15.38285801 Ry

     iteration #  2     ecut=    60.00 Ry     beta= 0.20
     Davidson diagonalization with overlap
     ethr =  6.72E-03,  avg # of iterations =  1.0

     negative rho (up, down):  8.630E-02 0.000E+00

     total cpu time spent up to now is       60.0 secs

     total energy              =   -1869.13241589 Ry
     Harris-Foulkes estimate   =   -1869.95270506 Ry
     estimated scf accuracy    <       5.87447815 Ry

     iteration #  3     ecut=    60.00 Ry     beta= 0.20
     Davidson diagonalization with overlap
     ethr =  2.57E-03,  avg # of iterations =  1.0

     negative rho (up, down):  8.589E-02 0.000E+00

     total cpu time spent up to now is       83.9 secs

     total energy              =   -1868.74135119 Ry
     Harris-Foulkes estimate   =   -1869.32682981 Ry
     estimated scf accuracy    <       4.10063966 Ry

     iteration #  4     ecut=    60.00 Ry     beta= 0.20
     Davidson diagonalization with overlap
     ethr =  1.79E-03,  avg # of iterations =  1.4

     negative rho (up, down):  8.609E-02 0.000E+00

     total cpu time spent up to now is      121.3 secs

     total energy              =   -1868.92807712 Ry
     Harris-Foulkes estimate   =   -1868.98862505 Ry
     estimated scf accuracy    <       2.56574997 Ry

     iteration #  5     ecut=    60.00 Ry     beta= 0.20
     Davidson diagonalization with overlap
     ethr =  1.12E-03,  avg # of iterations =  1.0

     negative rho (up, down):  8.673E-02 0.000E+00

     total cpu time spent up to now is      141.3 secs

     total energy              =   -1868.86917283 Ry
     Harris-Foulkes estimate   =   -1868.96552998 Ry
     estimated scf accuracy    <       1.59747610 Ry

     iteration #  6     ecut=    60.00 Ry     beta= 0.20
     Davidson diagonalization with overlap
     ethr =  6.98E-04,  avg # of iterations =  1.0

     negative rho (up, down):  8.807E-02 0.000E+00

     total cpu time spent up to now is      156.2 secs

     total energy              =   -1868.81522981 Ry
     Harris-Foulkes estimate   =   -1868.88983429 Ry
     estimated scf accuracy    <       0.98149267 Ry

     iteration #  7     ecut=    60.00 Ry     beta= 0.20
     Davidson diagonalization with overlap
     ethr =  4.29E-04,  avg # of iterations =  2.5

     negative rho (up, down):  8.963E-02 0.000E+00

     total cpu time spent up to now is      233.4 secs

     total energy              =   -1868.78401103 Ry
     Harris-Foulkes estimate   =   -1868.83318143 Ry
     estimated scf accuracy    <       0.52921785 Ry

     iteration #  8     ecut=    60.00 Ry     beta= 0.20
     Davidson diagonalization with overlap
     ethr =  2.31E-04,  avg # of iterations =  6.5

     negative rho (up, down):  9.028E-02 0.000E+00

     total cpu time spent up to now is      349.2 secs

     total energy              =   -1868.79027842 Ry
     Harris-Foulkes estimate   =   -1868.81501227 Ry
     estimated scf accuracy    <       0.35555032 Ry

     iteration #  9     ecut=    60.00 Ry     beta= 0.20
     Davidson diagonalization with overlap
     ethr =  1.55E-04,  avg # of iterations =  2.1

     negative rho (up, down):  9.102E-02 0.000E+00

     total cpu time spent up to now is      364.9 secs

     total energy              =   -1868.78843785 Ry
     Harris-Foulkes estimate   =   -1868.80067382 Ry
     estimated scf accuracy    <       0.40804354 Ry

     iteration # 10     ecut=    60.00 Ry     beta= 0.20
     Davidson diagonalization with overlap
     ethr =  1.55E-04,  avg # of iterations =  1.4

     negative rho (up, down):  9.103E-02 0.000E+00

     total cpu time spent up to now is      388.0 secs

     total energy              =   -1868.77681517 Ry
     Harris-Foulkes estimate   =   -1868.79718804 Ry
     estimated scf accuracy    <       0.30141314 Ry

     iteration # 11     ecut=    60.00 Ry     beta= 0.20
     Davidson diagonalization with overlap
     ethr =  1.32E-04,  avg # of iterations =  2.1

     negative rho (up, down):  9.106E-02 0.000E+00

     total cpu time spent up to now is      403.7 secs

     total energy              =   -1868.77875593 Ry
     Harris-Foulkes estimate   =   -1868.78494921 Ry
     estimated scf accuracy    <       0.08079674 Ry

     iteration # 12     ecut=    60.00 Ry     beta= 0.20
     Davidson diagonalization with overlap
     ethr =  3.53E-05,  avg # of iterations =  8.6

     negative rho (up, down):  9.059E-02 0.000E+00

     total cpu time spent up to now is      439.3 secs

     total energy              =   -1868.77882594 Ry
     Harris-Foulkes estimate   =   -1868.78202820 Ry
     estimated scf accuracy    <       0.05598416 Ry

     iteration # 13     ecut=    60.00 Ry     beta= 0.20
     Davidson diagonalization with overlap
     ethr =  2.44E-05,  avg # of iterations =  1.0

     negative rho (up, down):  9.128E-02 0.000E+00

     total cpu time spent up to now is      453.9 secs

     total energy              =   -1868.77651906 Ry
     Harris-Foulkes estimate   =   -1868.77951979 Ry
     estimated scf accuracy    <       0.03065911 Ry

     iteration # 14     ecut=    60.00 Ry     beta= 0.20
     Davidson diagonalization with overlap
     ethr =  1.34E-05,  avg # of iterations =  5.9

     negative rho (up, down):  9.030E-02 0.000E+00

     total cpu time spent up to now is      474.4 secs

     total energy              =   -1868.77730634 Ry
     Harris-Foulkes estimate   =   -1868.77816279 Ry
     estimated scf accuracy    <       0.01804546 Ry

     iteration # 15     ecut=    60.00 Ry     beta= 0.20
     Davidson diagonalization with overlap
     ethr =  7.88E-06,  avg # of iterations =  2.2

     negative rho (up, down):  8.927E-02 0.000E+00

     total cpu time spent up to now is      500.0 secs

     total energy              =   -1868.77735424 Ry
     Harris-Foulkes estimate   =   -1868.77767022 Ry
     estimated scf accuracy    <       0.00999551 Ry

     iteration # 16     ecut=    60.00 Ry     beta= 0.20
     Davidson diagonalization with overlap
     ethr =  4.36E-06,  avg # of iterations =  3.6

     negative rho (up, down):  8.906E-02 0.000E+00

     total cpu time spent up to now is      517.4 secs

     total energy              =   -1868.77667108 Ry
     Harris-Foulkes estimate   =   -1868.77749633 Ry
     estimated scf accuracy    <       0.00954751 Ry

     iteration # 17     ecut=    60.00 Ry     beta= 0.20
     Davidson diagonalization with overlap
     c_bands:  1 eigenvalues not converged
     ethr =  4.17E-06,  avg # of iterations =  3.9

     negative rho (up, down):  9.090E-02 0.000E+00

     total cpu time spent up to now is      543.9 secs

     total energy              =   -1868.77581461 Ry
     Harris-Foulkes estimate   =   -1868.77675536 Ry
     estimated scf accuracy    <       0.00837527 Ry

     iteration # 18     ecut=    60.00 Ry     beta= 0.20
     Davidson diagonalization with overlap
     ethr =  3.66E-06,  avg # of iterations =  6.4

     negative rho (up, down):  9.013E-02 0.000E+00

     total cpu time spent up to now is      565.0 secs

     total energy              =   -1868.77548315 Ry
     Harris-Foulkes estimate   =   -1868.77603720 Ry
     estimated scf accuracy    <       0.00809181 Ry

     iteration # 19     ecut=    60.00 Ry     beta= 0.20
     Davidson diagonalization with overlap
     ethr =  3.53E-06,  avg # of iterations =  2.3

     negative rho (up, down):  8.961E-02 0.000E+00

     total cpu time spent up to now is      581.0 secs

     total energy              =   -1868.77519305 Ry
     Harris-Foulkes estimate   =   -1868.77556037 Ry
     estimated scf accuracy    <       0.00904876 Ry

     iteration # 20     ecut=    60.00 Ry     beta= 0.20
     Davidson diagonalization with overlap
     ethr =  3.53E-06,  avg # of iterations =  4.4

     negative rho (up, down):  8.988E-02 0.000E+00

     total cpu time spent up to now is      610.7 secs

     total energy              =   -1868.77474076 Ry
     Harris-Foulkes estimate   =   -1868.77524150 Ry
     estimated scf accuracy    <       0.00581902 Ry

     iteration # 21     ecut=    60.00 Ry     beta= 0.20
     Davidson diagonalization with overlap
     c_bands:  1 eigenvalues not converged
     ethr =  2.54E-06,  avg # of iterations =  5.2

     negative rho (up, down):  9.019E-02 0.000E+00

     total cpu time spent up to now is      630.1 secs

     total energy              =   -1868.77402962 Ry
     Harris-Foulkes estimate   =   -1868.77476947 Ry
     estimated scf accuracy    <       0.00474271 Ry

     iteration # 22     ecut=    60.00 Ry     beta= 0.20
     Davidson diagonalization with overlap
     ethr =  2.07E-06,  avg # of iterations =  6.8

     negative rho (up, down):  8.998E-02 0.000E+00

     total cpu time spent up to now is      662.6 secs

     total energy              =   -1868.77370138 Ry
     Harris-Foulkes estimate   =   -1868.77406840 Ry
     estimated scf accuracy    <       0.00352648 Ry

     iteration # 23     ecut=    60.00 Ry     beta= 0.20
     Davidson diagonalization with overlap
     ethr =  1.54E-06,  avg # of iterations =  5.2

     negative rho (up, down):  8.964E-02 0.000E+00

     total cpu time spent up to now is      682.1 secs

     total energy              =   -1868.77337965 Ry
     Harris-Foulkes estimate   =   -1868.77373607 Ry
     estimated scf accuracy    <       0.00222655 Ry

     iteration # 24     ecut=    60.00 Ry     beta= 0.20
     Davidson diagonalization with overlap
     ethr =  9.72E-07,  avg # of iterations =  5.8

     negative rho (up, down):  9.017E-02 0.000E+00

     total cpu time spent up to now is      707.8 secs

     total energy              =   -1868.77334571 Ry
     Harris-Foulkes estimate   =   -1868.77343201 Ry
     estimated scf accuracy    <       0.00212333 Ry

     iteration # 25     ecut=    60.00 Ry     beta= 0.20
     Davidson diagonalization with overlap
     ethr =  9.27E-07,  avg # of iterations =  4.4

     negative rho (up, down):  9.075E-02 0.000E+00

     total cpu time spent up to now is      726.3 secs

     total energy              =   -1868.77334914 Ry
     Harris-Foulkes estimate   =   -1868.77336927 Ry
     estimated scf accuracy    <       0.00095379 Ry

     iteration # 26     ecut=    60.00 Ry     beta= 0.20
     Davidson diagonalization with overlap
     ethr =  4.17E-07,  avg # of iterations =  3.2

     negative rho (up, down):  9.006E-02 0.000E+00

     total cpu time spent up to now is      752.3 secs

     total energy              =   -1868.77339323 Ry
     Harris-Foulkes estimate   =   -1868.77336075 Ry
     estimated scf accuracy    <       0.00059546 Ry

     iteration # 27     ecut=    60.00 Ry     beta= 0.20
     Davidson diagonalization with overlap
     ethr =  2.60E-07,  avg # of iterations =  1.4

     negative rho (up, down):  8.957E-02 0.000E+00

     total cpu time spent up to now is      767.6 secs

     total energy              =   -1868.77346591 Ry
     Harris-Foulkes estimate   =   -1868.77339523 Ry
     estimated scf accuracy    <       0.00051470 Ry

     iteration # 28     ecut=    60.00 Ry     beta= 0.20
     Davidson diagonalization with overlap
     ethr =  2.25E-07,  avg # of iterations =  3.7

     negative rho (up, down):  9.018E-02 0.000E+00

     total cpu time spent up to now is      793.2 secs

     total energy              =   -1868.77347363 Ry
     Harris-Foulkes estimate   =   -1868.77347431 Ry
     estimated scf accuracy    <       0.00027825 Ry

     iteration # 29     ecut=    60.00 Ry     beta= 0.20
     Davidson diagonalization with overlap
     ethr =  1.22E-07,  avg # of iterations =  3.8

     negative rho (up, down):  9.017E-02 0.000E+00

     total cpu time spent up to now is      811.5 secs

     total energy              =   -1868.77346442 Ry
     Harris-Foulkes estimate   =   -1868.77347863 Ry
     estimated scf accuracy    <       0.00015110 Ry

     iteration # 30     ecut=    60.00 Ry     beta= 0.20
     Davidson diagonalization with overlap
     ethr =  6.60E-08,  avg # of iterations =  1.4

     negative rho (up, down):  9.031E-02 0.000E+00

     total cpu time spent up to now is      826.5 secs

     total energy              =   -1868.77347476 Ry
     Harris-Foulkes estimate   =   -1868.77346830 Ry
     estimated scf accuracy    <       0.00009310 Ry

     iteration # 31     ecut=    60.00 Ry     beta= 0.20
     Davidson diagonalization with overlap
     ethr =  4.07E-08,  avg # of iterations =  2.4

     negative rho (up, down):  9.034E-02 0.000E+00

     total cpu time spent up to now is      854.0 secs

     total energy              =   -1868.77348126 Ry
     Harris-Foulkes estimate   =   -1868.77347699 Ry
     estimated scf accuracy    <       0.00003649 Ry

     iteration # 32     ecut=    60.00 Ry     beta= 0.20
     Davidson diagonalization with overlap
     ethr =  1.59E-08,  avg # of iterations =  2.5

     negative rho (up, down):  9.064E-02 0.000E+00

     total cpu time spent up to now is      870.4 secs

     total energy              =   -1868.77348307 Ry
     Harris-Foulkes estimate   =   -1868.77348313 Ry
     estimated scf accuracy    <       0.00001591 Ry

     iteration # 33     ecut=    60.00 Ry     beta= 0.20
     Davidson diagonalization with overlap
     ethr =  6.95E-09,  avg # of iterations =  1.0

     negative rho (up, down):  9.078E-02 0.000E+00

     total cpu time spent up to now is      885.0 secs

     total energy              =   -1868.77348191 Ry
     Harris-Foulkes estimate   =   -1868.77348340 Ry
     estimated scf accuracy    <       0.00000863 Ry

     iteration # 34     ecut=    60.00 Ry     beta= 0.20
     Davidson diagonalization with overlap
     ethr =  3.77E-09,  avg # of iterations =  1.7

     negative rho (up, down):  9.061E-02 0.000E+00

     total cpu time spent up to now is      912.1 secs

     total energy              =   -1868.77348168 Ry
     Harris-Foulkes estimate   =   -1868.77348242 Ry
     estimated scf accuracy    <       0.00000271 Ry

     iteration # 35     ecut=    60.00 Ry     beta= 0.20
     Davidson diagonalization with overlap
     ethr =  1.18E-09,  avg # of iterations =  2.7

     negative rho (up, down):  9.046E-02 0.000E+00

     total cpu time spent up to now is      928.4 secs

     End of self-consistent calculation

          k = 0.0000 0.0000 0.0000 ( 37185 PWs)   bands (ev):

   -38.3890 -38.0502 -24.2573 -23.0426 -23.0142 -22.9431 -18.9239 -18.5554
   -18.3933 -18.3839 -18.0732 -18.0562 -15.7189 -15.4415 -15.0025 -14.7596
   -14.5400 -14.5267 -14.5043 -14.3476 -14.3291 -14.2430 -14.0248 -14.0203
   -13.9269 -13.7775 -13.7630  -9.5654  -9.0892  -9.0671  -8.2667  -8.2294
    -8.2183  -8.0349  -8.0087  -8.0082  -7.9809  -7.8966  -7.8739  -2.3475
    -2.3134  -2.1798  -2.1390  -2.1276  -2.1275  -2.1259  -2.0755  -2.0578
    -1.9824  -1.9603  -1.7445  -1.6137  -1.2084  -1.1493  -0.8639  -0.8158
    -0.7503  -0.7325  -0.7244  -0.6803  -0.3745  -0.3353  -0.3332  -0.2986
    -0.2960  -0.1938  -0.1799  -0.1349  -0.1327  -0.1184  -0.0350   0.0183
     0.0240   0.0292   0.0912   0.1052   0.1158   0.1308   0.1442   0.1741
     0.2288   0.2677   0.2709   0.2794   0.2951   0.3938   0.3961   0.5387
     0.5870   0.6815   0.7736   0.8139   0.9640   0.9662   0.9991   1.0887
     1.0939   1.1274   1.1309   1.1318   1.2131   1.2377   1.2708   1.2955
     1.5006   1.5554   1.6489   1.6921   1.7196   1.7649   1.7900   1.9181
     1.9422   1.9509   2.0541   2.0853   2.1222   2.4014   2.4036   4.1069
     4.9856   5.0210   5.1201   5.5523   5.6797   6.1549   6.4159   6.4546
     6.7903   7.1482   7.4683   7.5117   7.7789   7.9100   7.9102   8.0984
     8.2008   8.3402

          k = 0.0000 0.1281 0.0000 ( 37255 PWs)   bands (ev):

   -38.3867 -38.0479 -24.2393 -23.0211 -22.9926 -22.9224 -18.8879 -18.5193
   -18.4883 -18.3901 -18.1608 -18.0700 -15.6101 -15.3418 -14.9564 -14.7680
   -14.5553 -14.5360 -14.4736 -14.3522 -14.2983 -14.2890 -14.0301 -14.0266
   -13.9952 -13.8288 -13.8048  -9.5514  -9.1011  -9.0343  -8.2488  -8.2130
    -8.2076  -8.0277  -8.0005  -7.9937  -7.9673  -7.8938  -7.8579  -2.4496
    -2.4220  -2.3770  -2.2981  -2.1273  -2.1075  -2.0980  -2.0921  -2.0399
    -1.9874  -1.9669  -1.7578  -1.7265  -1.5987  -1.2496  -1.2441  -1.1418
    -1.0950  -0.7995  -0.7353  -0.6994  -0.6535  -0.6471  -0.5427  -0.4470
    -0.3868  -0.3834  -0.3673  -0.3369  -0.2834  -0.2777  -0.1752  -0.1309
    -0.0165   0.0219   0.0288   0.1663   0.1758   0.2607   0.2755   0.2763
     0.2793   0.2863   0.3260   0.3589   0.4479   0.5048   0.5789   0.5822
     0.6246   0.6521   0.7722   0.8091   0.8758   0.8889   0.8911   1.0674
     1.0751   1.1971   1.2438   1.2478   1.2550   1.3592   1.3637   1.4070
     1.4569   1.5346   1.5903   1.6670   1.6957   1.7307   1.7661   1.8619
     1.8962   1.9395   2.1850   2.3109   2.6150   2.7229   2.7353   4.2968
     5.3407   5.3897   5.4204   5.8328   5.9389   6.3383   6.7323   6.7679
     7.0391   7.3780   7.5471   7.7430   7.8495   7.9114   8.0554   8.1388
     8.2536   8.2855

          k = 0.0000 0.2563 0.0000 ( 37258 PWs)   bands (ev):

   -38.3811 -38.0422 -24.1951 -22.9680 -22.9395 -22.8713 -18.7968 -18.7133
   -18.4333 -18.3824 -18.3809 -18.0621 -15.3620 -15.1248 -14.8441 -14.8346
   -14.6422 -14.5936 -14.4099 -14.4081 -14.3548 -14.1905 -14.1654 -14.0103
   -14.0073 -13.9827 -13.8418  -9.5116  -9.1295  -8.9530  -8.2070  -8.1789
    -8.1730  -8.0687  -8.0417  -7.9372  -7.8905  -7.8639  -7.7613  -2.8791
    -2.7938  -2.7620  -2.6424  -2.3777  -2.2760  -2.2684  -2.1564  -2.0725
    -2.0088  -2.0052  -1.9802  -1.9270  -1.9140  -1.7040  -1.5810  -1.5498
    -1.1440  -1.0555  -1.0437  -0.9480  -0.8769  -0.7846  -0.7504  -0.6971
    -0.6649  -0.6356  -0.6151  -0.6097  -0.5597  -0.4347  -0.3745  -0.3204
    -0.3151  -0.1904  -0.1338  -0.0147   0.0562   0.1194   0.1627   0.2197
     0.3113   0.3145   0.3334   0.3432   0.4087   0.4994   0.6741   0.7480
     0.7812   0.8172   0.8997   0.9208   1.0125   1.0728   1.0979   1.1856
     1.2423   1.2432   1.2459   1.3135   1.3473   1.4403   1.4557   1.4578
     1.5363   1.5559   1.5583   1.6968   1.8067   1.8473   1.9794   1.9934
     1.9972   2.0033   2.3533   2.4591   3.0179   3.0286   3.4625   4.7782
     6.1077   6.2792   6.2802   6.5279   6.5611   6.7077   7.3635   7.5872
     7.6208   7.7195   7.7395   7.9200   8.0057   8.2358   8.3438   8.4260
     8.5004   8.5869

          k = 0.0000 0.3844 0.0000 ( 37158 PWs)   bands (ev):

   -38.3755 -38.0366 -24.1500 -22.9135 -22.8849 -22.8189 -18.9112 -18.6986
   -18.5876 -18.3746 -18.3259 -18.0543 -15.1122 -14.9863 -14.9502 -14.7498
   -14.7104 -14.6684 -14.5029 -14.3824 -14.3679 -14.3435 -14.1206 -14.0608
   -13.9565 -13.9483 -13.8662  -9.4603  -9.1618  -8.8684  -8.1679  -8.1443
    -8.1328  -8.1017  -8.0750  -7.9769  -7.7814  -7.7546  -7.6597  -3.3891
    -3.2338  -3.1685  -3.0092  -2.8352  -2.8321  -2.7064  -2.1839  -2.1794
    -2.1216  -2.0714  -1.9498  -1.8509  -1.8194  -1.8163  -1.8010  -1.4934
    -1.3199  -1.2041  -1.2037  -1.1074  -1.0650  -1.0113  -1.0053  -0.9935
    -0.8565  -0.8490  -0.7662  -0.7468  -0.7007  -0.6429  -0.5639  -0.5588
    -0.5129  -0.3612  -0.3119  -0.1846  -0.1761  -0.1035   0.0422   0.1639
     0.2904   0.3089   0.3572   0.3660   0.3939   0.6164   0.6514   0.7811
     0.8243   0.8442   0.9456   1.0056   1.1028   1.1222   1.1685   1.1947
     1.2604   1.2917   1.3160   1.4013   1.4427   1.4902   1.6399   1.7152
     1.7427   1.8528   1.8530   1.9025   1.9535   1.9628   2.0019   2.0580
     2.3324   2.3999   2.4026   2.4048   2.9901   2.9975   4.0143   5.4087
     6.3362   7.0611   7.1701   7.2174   7.3642   7.4101   7.6070   7.7544
     7.8907   7.9583   8.3092   8.4310   8.4652   8.6303   8.6649   8.7986
     8.9113   9.0217

          k = 0.0000-0.5125 0.0000 ( 37290 PWs)   bands (ev):

   -38.3732 -38.0343 -24.1310 -22.8905 -22.8619 -22.7968 -18.9871 -18.6634
   -18.6554 -18.3714 -18.2827 -18.0510 -15.0666 -14.9805 -14.9326 -14.7688
   -14.7470 -14.5526 -14.5438 -14.5025 -14.3983 -14.3388 -14.1644 -13.9788
   -13.9183 -13.9170 -13.9081  -9.4337  -9.1788  -8.8324  -8.1528  -8.1263
    -8.1161  -8.1134  -8.0867  -7.9940  -7.7344  -7.7075  -7.6160  -3.6316
    -3.3814  -3.3198  -3.1429  -3.0712  -3.0639  -2.8393  -2.2186  -2.2137
    -2.1771  -2.1408  -1.9406  -1.9010  -1.8033  -1.7489  -1.6067  -1.5794
    -1.3853  -1.3074  -1.2965  -1.2478  -1.1949  -1.1115  -1.0278  -0.9608
    -0.9599  -0.9483  -0.8749  -0.7933  -0.6852  -0.6519  -0.6511  -0.6458
    -0.6036  -0.5859  -0.3578  -0.2627  -0.2234  -0.1638  -0.0280   0.2343
     0.2668   0.2791   0.2819   0.3632   0.3716   0.6365   0.7107   0.8345
     0.8485   0.8680   0.9062   1.0892   1.1001   1.1712   1.2287   1.2683
     1.2689   1.2715   1.2795   1.3870   1.4494   1.4799   1.7681   1.7897
     1.8576   1.8734   1.8997   1.9991   2.1029   2.1399   2.2033   2.2630
     2.2631   2.2687   2.5620   2.5672   2.8538   2.8602   4.2006   5.9028
     6.0845   7.2558   7.4880   7.5644   7.6602   7.6694   7.8315   7.8472
     7.9196   8.0388   8.5788   8.6207   8.7502   8.9055   8.9259   8.9880
     9.1083   9.1093

          k = 0.1250 0.0000 0.0000 ( 37232 PWs)   bands (ev):

   -38.3872 -38.0484 -24.2424 -23.0242 -22.9958 -22.9254 -18.8914 -18.5221
   -18.4934 -18.3814 -18.1750 -18.0537 -15.6036 -15.3323 -15.0271 -14.7859
   -14.5953 -14.5746 -14.4823 -14.3805 -14.2982 -14.2725 -14.0253 -14.0230
   -13.9848 -13.7967 -13.7867  -9.5867  -9.0626  -9.0263  -8.2766  -8.2399
    -8.2373  -7.9999  -7.9739  -7.9736  -7.9465  -7.8592  -7.8417  -2.4373
    -2.3498  -2.3350  -2.2639  -2.1140  -2.0919  -2.0879  -2.0661  -2.0470
    -2.0039  -1.9463  -1.7442  -1.7320  -1.2333  -1.1377  -0.8543  -0.8489
    -0.8329  -0.7333  -0.7269  -0.7189  -0.5713  -0.4373  -0.4199  -0.4139
    -0.4080  -0.3662  -0.3199  -0.3149  -0.2057  -0.1804  -0.1447  -0.1418
    -0.0852   0.1052   0.1282   0.1370   0.1407   0.2089   0.2465   0.2481
     0.2563   0.2786   0.2795   0.2912   0.3904   0.3943   0.4123   0.4126
     0.6912   0.6993   0.7409   0.7613   0.8302   0.9033   0.9682   0.9809
     0.9846   0.9877   1.1333   1.1759   1.2261   1.2568   1.3139   1.4535
     1.4642   1.4974   1.5432   1.6964   1.7939   1.8319   1.8362   1.8649
     1.9022   2.0092   2.0715   2.1706   2.3335   2.4450   2.4471   4.2787
     5.1941   5.2103   5.3029   5.7842   5.9115   6.2916   6.6559   6.6902
     7.0053   7.3333   7.6697   7.7520   7.8906   7.9200   8.0635   8.1793
     8.2547   8.4585

          k = 0.1250 0.1281 0.0000 ( 37248 PWs)   bands (ev):

   -38.3849 -38.0461 -24.2248 -23.0034 -22.9749 -22.9053 -18.8559 -18.4973
   -18.4866 -18.4763 -18.1760 -18.1517 -15.4957 -15.2361 -14.9784 -14.7837
   -14.5952 -14.5712 -14.4545 -14.3404 -14.3258 -14.3150 -14.0334 -14.0245
   -14.0227 -13.8510 -13.8128  -9.5661  -9.2119  -8.9104  -8.2620  -8.2282
    -8.2246  -8.1476  -8.1204  -8.0123  -7.8501  -7.8233  -7.7215  -2.5437
    -2.4868  -2.4646  -2.2961  -2.1697  -2.1461  -2.1066  -2.0854  -2.0706
    -2.0439  -1.9269  -1.7977  -1.7404  -1.6852  -1.2451  -1.2383  -1.1941
    -1.0484  -0.8995  -0.8136  -0.8118  -0.7300  -0.7111  -0.6620  -0.6369
    -0.5940  -0.5631  -0.4088  -0.3812  -0.3566  -0.1952  -0.1216  -0.0973
    -0.0509   0.0133   0.0368   0.1308   0.1845   0.2047   0.2487   0.2533
     0.2841   0.3292   0.3309   0.3476   0.4195   0.4820   0.4980   0.5800
     0.5820   0.7223   0.8270   0.8790   0.9332   0.9339   0.9723   0.9757
     1.0390   1.0563   1.1945   1.2317   1.2727   1.3038   1.3075   1.4267
     1.4823   1.5366   1.5777   1.5997   1.6354   1.6593   1.8269   1.9088
     2.2155   2.2614   2.4253   2.6213   2.6321   2.7397   2.7470   4.4459
     5.5133   5.5325   5.5650   6.0227   6.1336   6.4358   6.9615   6.9928
     7.2219   7.4789   7.6291   7.7798   7.8460   8.0083   8.1211   8.1947
     8.2909   8.4034

          k = 0.1250 0.2563 0.0000 ( 37300 PWs)   bands (ev):

   -38.3793 -38.0404 -24.1819 -22.9522 -22.9237 -22.8559 -18.7661 -18.7088
   -18.4777 -18.4076 -18.3705 -18.1591 -15.2500 -15.0320 -14.8488 -14.8283
   -14.6294 -14.5947 -14.4112 -14.3911 -14.3879 -14.2284 -14.1614 -14.0012
   -13.9987 -13.9820 -13.8435  -9.5172  -9.3178  -8.8762  -8.2715  -8.2442
    -8.2067  -8.1882  -8.1739  -8.1228  -7.8060  -7.7793  -7.6849  -2.9793
    -2.8699  -2.7809  -2.6477  -2.4003  -2.2956  -2.2746  -2.2032  -2.1292
    -2.0988  -2.0506  -1.9990  -1.9977  -1.8655  -1.7603  -1.6421  -1.5866
    -1.2242  -1.1216  -1.0829  -1.0646  -1.0130  -0.9950  -0.9447  -0.8561
    -0.7738  -0.7249  -0.6273  -0.5521  -0.5342  -0.4595  -0.3682  -0.3110
    -0.1788  -0.1212  -0.0791   0.0803   0.1219   0.1323   0.1936   0.1992
     0.2669   0.3120   0.3632   0.3652   0.4354   0.5076   0.5433   0.7183
     0.9386   0.9567   0.9686   1.0160   1.0330   1.1220   1.1288   1.1384
     1.1720   1.2591   1.2821   1.3389   1.3586   1.3871   1.4471   1.4515
     1.4771   1.5897   1.6358   1.6846   1.8032   1.9654   1.9667   1.9736
     2.4562   2.5189   2.6973   2.8506   3.0226   3.0457   3.4655   4.9058
     6.1471   6.3327   6.3356   6.5816   6.6336   6.8098   7.3249   7.5685
     7.7718   7.7902   7.8129   7.9175   8.0377   8.2144   8.3282   8.5205
     8.5419   8.5750

          k = 0.1250 0.3844 0.0000 ( 37301 PWs)   bands (ev):

   -38.3737 -38.0348 -24.1380 -22.8997 -22.8711 -22.8053 -18.9052 -18.6692
   -18.5814 -18.4679 -18.2959 -18.1492 -15.0103 -14.9416 -14.8916 -14.6900
   -14.6718 -14.6565 -14.4842 -14.4176 -14.3597 -14.3256 -14.1017 -14.0943
   -13.9514 -13.9443 -13.8574  -9.4668  -9.3273  -8.9305  -8.2761  -8.2493
    -8.1765  -8.1547  -8.1429  -8.1401  -7.8540  -7.8273  -7.7320  -3.3982
    -3.3245  -3.2579  -3.0616  -2.8291  -2.8220  -2.7468  -2.2160  -2.1991
    -2.1517  -2.0404  -2.0291  -1.9670  -1.9418  -1.7733  -1.7270  -1.6640
    -1.5297  -1.4384  -1.4032  -1.2892  -1.1767  -1.1525  -1.0992  -0.9756
    -0.9187  -0.7714  -0.7418  -0.7017  -0.6575  -0.6117  -0.5965  -0.5575
    -0.4433  -0.2155  -0.1167  -0.0204  -0.0038   0.1059   0.1444   0.2229
     0.3005   0.3270   0.3579   0.3882   0.4462   0.4900   0.7030   0.7770
     0.8662   0.9819   0.9980   1.0032   1.1658   1.1849   1.2436   1.2511
     1.2965   1.3193   1.3362   1.3804   1.4515   1.5620   1.6259   1.6778
     1.7656   1.8693   1.9016   1.9806   1.9876   2.0578   2.3747   2.3788
     2.4843   2.5570   2.7175   2.8226   3.0145   3.0486   4.0122   5.5081
     6.1543   7.0081   7.0850   7.0900   7.2644   7.2805   7.5093   7.5734
     7.7627   8.0907   8.3389   8.3730   8.5494   8.7196   8.7772   8.8924
     8.9440   9.0709

          k = 0.1250-0.5125 0.0000 ( 37268 PWs)   bands (ev):

   -38.3714 -38.0325 -24.1196 -22.8775 -22.8489 -22.7840 -18.9807 -18.6569
   -18.6267 -18.4637 -18.2533 -18.1450 -15.0259 -14.8876 -14.8632 -14.7337
   -14.6476 -14.5322 -14.5015 -14.4998 -14.3999 -14.3688 -14.1384 -14.0170
   -13.9201 -13.9158 -13.8817  -9.4418  -9.3077  -8.9784  -8.2509  -8.2241
    -8.1638  -8.1381  -8.1287  -8.1242  -7.9020  -7.8754  -7.7747  -3.6229
    -3.4945  -3.4124  -3.2019  -3.0673  -3.0582  -2.8893  -2.2337  -2.2225
    -2.1575  -2.0527  -1.9831  -1.9114  -1.8565  -1.8049  -1.7830  -1.6855
    -1.6807  -1.6534  -1.4183  -1.3601  -1.3032  -1.2370  -1.1899  -1.0371
    -0.8804  -0.8382  -0.8132  -0.7567  -0.6970  -0.6489  -0.6059  -0.5852
    -0.5621  -0.2529  -0.1440  -0.1185  -0.0148   0.0988   0.1047   0.2403
     0.2983   0.3456   0.3472   0.4317   0.4501   0.4637   0.5479   0.8928
     0.9318   0.9797   1.0186   1.0722   1.1443   1.1661   1.2642   1.2767
     1.3043   1.3338   1.3715   1.4094   1.4220   1.5966   1.7252   1.8492
     1.8937   1.9696   2.0897   2.1142   2.2554   2.2619   2.4491   2.5222
     2.5414   2.5462   2.6347   2.7083   2.9110   2.9609   4.1968   5.7966
     6.2087   6.9182   7.2295   7.2965   7.3331   7.3775   7.5100   7.7765
     8.0741   8.1289   8.6922   8.8350   8.8849   8.9480   9.0426   9.1728
     9.2529   9.2541

          k = 0.2500 0.0000 0.0000 ( 37346 PWs)   bands (ev):

   -38.3828 -38.0440 -24.2057 -22.9791 -22.9505 -22.8820 -18.8097 -18.7082
   -18.4391 -18.3921 -18.3754 -18.0475 -15.3396 -15.1024 -15.0997 -14.8931
   -14.7281 -14.6856 -14.4840 -14.4451 -14.3078 -14.2127 -14.1241 -14.0229
   -14.0196 -13.8599 -13.7965  -9.6149  -8.9970  -8.9517  -8.2864  -8.2596
    -8.2512  -7.9299  -7.9039  -7.8886  -7.8610  -7.7963  -7.7619  -2.7453
    -2.6723  -2.6545  -2.2240  -2.1573  -2.1431  -2.1194  -2.0906  -2.0117
    -1.9781  -1.9197  -1.6988  -1.6863  -1.3050  -1.2289  -1.0182  -1.0001
    -0.9580  -0.9289  -0.8046  -0.7772  -0.7346  -0.7080  -0.7056  -0.6815
    -0.6206  -0.6206  -0.5900  -0.4336  -0.4211  -0.2683  -0.2127  -0.1664
    -0.1269  -0.0082   0.0124   0.0155   0.1050   0.1148   0.1888   0.1908
     0.2475   0.2556   0.3246   0.4061   0.4215   0.4247   0.4303   0.5225
     0.5553   0.6245   0.7698   0.8257   0.8537   0.8615   0.8978   0.9590
     1.0317   1.1342   1.2144   1.2386   1.2778   1.2884   1.3262   1.3281
     1.4164   1.4817   1.5263   1.6697   1.7405   1.7561   1.8538   1.8975
     1.9519   2.0156   2.2156   2.3572   2.4865   2.5841   2.6173   4.7157
     5.6567   5.6586   5.7978   6.3839   6.4899   6.6989   7.2883   7.3171
     7.5109   7.5975   7.8450   7.8698   8.0580   8.1292   8.2528   8.5078
     8.5218   8.6740

          k = 0.2500 0.1281 0.0000 ( 37310 PWs)   bands (ev):

   -38.3806 -38.0417 -24.1894 -22.9601 -22.9315 -22.8636 -18.7756 -18.7025
   -18.4754 -18.4070 -18.3842 -18.1478 -15.2344 -15.0430 -15.0222 -14.8658
   -14.6890 -14.6608 -14.4435 -14.4155 -14.3733 -14.2263 -14.1309 -14.0118
   -14.0092 -13.8900 -13.8199  -9.5954  -9.2496  -8.8475  -8.2913  -8.2604
    -8.2583  -8.1750  -8.1469  -8.0439  -7.7759  -7.7491  -7.6578  -2.8838
    -2.7720  -2.7001  -2.2783  -2.2399  -2.2031  -2.1773  -2.1311  -2.0991
    -2.0816  -1.8794  -1.8460  -1.7669  -1.6145  -1.3132  -1.2451  -1.2407
    -1.2330  -1.1186  -1.0927  -1.0649  -0.9584  -0.9397  -0.9036  -0.7919
    -0.7271  -0.6670  -0.6289  -0.5049  -0.4161  -0.2672  -0.1420  -0.0886
    -0.0279  -0.0257   0.0026   0.0813   0.1173   0.1242   0.1771   0.2101
     0.2366   0.2689   0.4437   0.4553   0.4628   0.4683   0.5446   0.5903
     0.5911   0.7143   0.7782   0.9579   0.9693   1.0256   1.0357   1.0656
     1.0975   1.1514   1.1654   1.2114   1.2629   1.2776   1.2926   1.4133
     1.4776   1.4804   1.5349   1.6908   1.7095   1.7337   1.8088   1.9376
     2.5098   2.5766   2.6738   2.7401   2.7808   2.8356   2.9705   4.8558
     5.8990   5.9002   5.9562   6.5258   6.5612   6.7763   7.4244   7.5386
     7.5822   7.6142   7.6528   7.8567   8.0076   8.1062   8.4188   8.5102
     8.6039   8.7145

          k = 0.2500 0.2563 0.0000 ( 37327 PWs)   bands (ev):

   -38.3750 -38.0361 -24.1495 -22.9136 -22.8850 -22.8184 -18.7091 -18.6895
   -18.6725 -18.3909 -18.3556 -18.3102 -15.0021 -14.8891 -14.8710 -14.8130
   -14.6109 -14.6008 -14.5164 -14.3647 -14.3490 -14.2645 -14.1595 -13.9794
   -13.9772 -13.9736 -13.8340  -9.5612  -9.4924  -8.9371  -8.4777  -8.4508
    -8.3378  -8.2241  -8.1935  -8.1922  -7.8732  -7.8464  -7.7543  -3.3043
    -3.1470  -2.9266  -2.6364  -2.5292  -2.3798  -2.3303  -2.3097  -2.2284
    -2.2174  -2.0753  -2.0215  -2.0100  -2.0077  -1.7460  -1.6674  -1.6425
    -1.5864  -1.5183  -1.4934  -1.1873  -1.1137  -1.0075  -0.9963  -0.9731
    -0.8489  -0.7949  -0.6230  -0.5737  -0.4860  -0.4323  -0.4088  -0.3336
    -0.2823  -0.1506  -0.0696   0.0372   0.0664   0.1800   0.2911   0.3226
     0.4102   0.4368   0.4481   0.4975   0.5370   0.5957   0.7922   0.9793
     0.9846   1.0407   1.1124   1.1248   1.1270   1.1375   1.1384   1.2242
     1.2629   1.2716   1.3082   1.3265   1.3352   1.4606   1.5057   1.5520
     1.6101   1.6982   1.7023   1.7638   1.8805   1.8924   1.9199   2.0345
     2.9920   2.9954   3.1222   3.1982   3.3113   3.4752   3.4831   5.2670
     5.9115   6.4121   6.4226   6.7130   6.8831   7.1155   7.2247   7.3644
     7.8315   8.0143   8.0715   8.0930   8.2313   8.4796   8.5389   8.6645
     8.7451   8.8278

          k = 0.2500 0.3844 0.0000 ( 37349 PWs)   bands (ev):

   -38.3695 -38.0305 -24.1089 -22.8660 -22.8374 -22.7721 -18.8907 -18.6727
   -18.5941 -18.5667 -18.3564 -18.2196 -14.8785 -14.7807 -14.7515 -14.6722
   -14.5897 -14.5671 -14.5278 -14.4424 -14.3050 -14.2463 -14.1360 -14.0557
   -13.9390 -13.9331 -13.8175  -9.6277  -9.4855  -9.1553  -8.5843  -8.5574
    -8.4365  -8.2032  -8.1810  -8.1706  -8.1099  -8.0835  -7.9771  -3.7187
    -3.5600  -3.3424  -3.2321  -2.9139  -2.7958  -2.7956  -2.4057  -2.3524
    -2.3074  -2.1157  -2.1118  -2.1083  -2.0863  -2.0005  -1.9439  -1.8907
    -1.7035  -1.5786  -1.5467  -1.3927  -1.2475  -1.1193  -1.0904  -0.9827
    -0.8559  -0.8322  -0.7712  -0.6506  -0.6146  -0.5761  -0.5531  -0.5247
    -0.3743  -0.3318  -0.1393   0.0536   0.1579   0.1590   0.3754   0.4100
     0.4575   0.5138   0.5748   0.6291   0.7016   0.7984   1.0366   1.0557
     1.0630   1.0885   1.1335   1.2858   1.3072   1.3306   1.3377   1.4243
     1.4290   1.4513   1.4957   1.5043   1.5579   1.5623   1.6557   1.7211
     1.8330   1.8344   1.8695   2.0028   2.0151   2.0641   2.3087   2.3127
     2.9215   2.9220   3.4001   3.4907   3.5791   3.7297   4.0020   5.4537
     5.9082   6.5774   6.5943   6.8499   6.8574   6.9953   7.5723   7.6727
     7.8609   8.2818   8.4376   8.4781   8.6549   8.9511   8.9768   9.1868
     9.2025   9.3200

          k = 0.2500-0.5125 0.0000 ( 37378 PWs)   bands (ev):

   -38.3672 -38.0282 -24.0918 -22.8460 -22.8174 -22.7527 -18.9652 -18.6669
   -18.6412 -18.5534 -18.3507 -18.1785 -14.9226 -14.7686 -14.6467 -14.6018
   -14.5515 -14.4972 -14.4932 -14.4881 -14.3886 -14.2957 -14.0724 -14.0539
   -13.9174 -13.9123 -13.8165  -9.6156  -9.4671  -9.2942  -8.5689  -8.5420
    -8.4289  -8.2693  -8.2427  -8.1914  -8.1736  -8.1564  -8.1132  -3.8823
    -3.7263  -3.5771  -3.3989  -3.0855  -3.0344  -3.0256  -2.3988  -2.3440
    -2.2764  -2.2745  -2.1179  -2.1112  -2.1013  -2.0713  -2.0086  -1.9544
    -1.7305  -1.6336  -1.5959  -1.4185  -1.3166  -1.1410  -1.1277  -0.9586
    -0.8781  -0.8576  -0.8339  -0.7262  -0.6749  -0.6371  -0.5676  -0.5297
    -0.4200  -0.3473  -0.1550   0.0561   0.1631   0.2133   0.4171   0.4611
     0.4690   0.5421   0.6234   0.6349   0.7862   0.8963   0.9409   1.1360
     1.1413   1.1748   1.1824   1.3352   1.3364   1.3745   1.4103   1.4142
     1.4301   1.4988   1.5184   1.5600   1.6185   1.6511   1.7198   1.8224
     1.8616   1.9259   2.0422   2.0632   2.2513   2.2566   2.4868   2.4912
     2.7634   2.7639   3.4577   3.5527   3.6333   3.7762   4.1778   5.2784
     6.4899   6.5256   6.5307   6.6006   6.8053   6.8727   7.3856   7.8844
     8.1454   8.3238   8.9059   9.0223   9.0489   9.0601   9.0935   9.2914
     9.4029   9.4639

          k = 0.3750 0.0000 0.0000 ( 37348 PWs)   bands (ev):

   -38.3785 -38.0396 -24.1684 -22.9328 -22.9041 -22.8376 -18.8973 -18.7210
   -18.5845 -18.3693 -18.3469 -18.0414 -15.1922 -15.0977 -15.0112 -15.0071
   -14.8016 -14.7514 -14.6036 -14.4529 -14.3007 -14.2520 -14.1250 -14.0113
   -14.0080 -13.9012 -13.8071  -9.6219  -8.9292  -8.9005  -8.2873  -8.2605
    -8.2528  -7.8706  -7.8449  -7.7993  -7.7714  -7.7569  -7.6786  -3.0687
    -2.9870  -2.9191  -2.5378  -2.2255  -2.2162  -2.1024  -1.9571  -1.8926
    -1.8916  -1.8380  -1.6886  -1.5872  -1.3938  -1.2681  -1.2067  -1.1922
    -1.0913  -1.0743  -1.0688  -1.0248  -0.9806  -0.9662  -0.8443  -0.8413
    -0.7397  -0.6999  -0.6952  -0.6902  -0.4819  -0.4653  -0.3663  -0.2940
    -0.2461  -0.1837  -0.1831  -0.1060   0.1113   0.1538   0.2069   0.2139
     0.2339   0.2422   0.3665   0.4320   0.4654   0.4783   0.4871   0.5206
     0.5244   0.6469   0.6696   0.8343   0.8962   0.9947   0.9956   1.0565
     1.0611   1.1337   1.2161   1.2271   1.2741   1.2812   1.3245   1.3480
     1.5524   1.6013   1.6553   1.6646   1.7111   1.7280   1.8895   1.9550
     2.0147   2.0750   2.2429   2.3951   2.4677   2.6902   2.6992   5.3179
     6.2324   6.2955   6.2966   6.8321   7.0050   7.3840   7.4714   7.7722
     7.7965   7.8012   7.8144   8.0817   8.2421   8.4479   8.5024   8.6216
     8.7124   8.8674

          k = 0.3750 0.1281 0.0000 ( 37304 PWs)   bands (ev):

   -38.3762 -38.0373 -24.1534 -22.9158 -22.8871 -22.8209 -18.8901 -18.6881
   -18.5771 -18.4677 -18.3143 -18.1397 -15.1256 -15.0327 -14.9562 -14.9279
   -14.7580 -14.6803 -14.5507 -14.4182 -14.3680 -14.2258 -14.1152 -13.9962
   -13.9916 -13.9114 -13.8345  -9.6043  -9.1894  -8.9054  -8.2865  -8.2610
    -8.2545  -8.1174  -8.0902  -7.9870  -7.8319  -7.8051  -7.7191  -3.2167
    -3.0974  -2.9742  -2.5937  -2.2577  -2.2302  -2.1737  -2.0931  -2.0571
    -2.0250  -1.8187  -1.7904  -1.7701  -1.5876  -1.5525  -1.4902  -1.4505
    -1.3736  -1.2383  -1.2379  -1.1244  -1.0760  -1.0369  -0.9760  -0.9114
    -0.8321  -0.7882  -0.7401  -0.5984  -0.5893  -0.3510  -0.2754  -0.1816
    -0.1093  -0.0868  -0.0107   0.0543   0.0620   0.1349   0.1500   0.1776
     0.2395   0.3412   0.4187   0.5326   0.5332   0.5826   0.6389   0.6424
     0.6465   0.7160   0.8594   0.9170   0.9294   1.0108   1.0181   1.1057
     1.1388   1.1526   1.2074   1.2180   1.2796   1.3632   1.3721   1.3781
     1.5302   1.5751   1.6568   1.6967   1.7020   1.8782   1.9213   1.9299
     2.6194   2.6708   2.7025   2.7681   2.8175   2.9898   3.0881   5.4403
     6.1466   6.4178   6.4227   6.6554   7.0874   7.3963   7.4485   7.4725
     7.6096   7.8649   7.8698   8.0803   8.3827   8.5638   8.6726   8.7371
     8.8503   8.9155

          k = 0.3750 0.2563 0.0000 ( 37327 PWs)   bands (ev):

   -38.3707 -38.0317 -24.1167 -22.8742 -22.8455 -22.7800 -18.8726 -18.6829
   -18.6049 -18.5593 -18.3589 -18.2274 -14.9467 -14.9038 -14.8298 -14.7406
   -14.6202 -14.5683 -14.5336 -14.4359 -14.3349 -14.1661 -14.1038 -13.9576
   -13.9545 -13.9534 -13.8402  -9.6036  -9.5182  -9.1419  -8.5267  -8.4997
    -8.3912  -8.2426  -8.2104  -8.2081  -8.1006  -8.0742  -7.9752  -3.6564
    -3.4837  -3.2049  -2.8183  -2.6080  -2.4435  -2.3879  -2.3396  -2.2331
    -2.2284  -2.1148  -2.1030  -2.0841  -2.0193  -2.0141  -1.9443  -1.8628
    -1.5725  -1.5126  -1.5028  -1.3119  -1.0817  -1.0392  -0.9474  -0.9144
    -0.8881  -0.8400  -0.7234  -0.5797  -0.5377  -0.4841  -0.4470  -0.4246
    -0.2776  -0.2659  -0.1723   0.1405   0.1767   0.2431   0.3610   0.4579
     0.5033   0.5933   0.6107   0.6822   0.6929   0.8181   1.0042   1.0367
     1.0404   1.1040   1.1145   1.1736   1.1872   1.2103   1.2419   1.2690
     1.3143   1.3198   1.4028   1.4138   1.4370   1.4648   1.5338   1.6265
     1.7456   1.7695   1.7911   1.7916   1.8513   1.9207   1.9220   1.9814
     2.9932   2.9940   3.4732   3.5218   3.5858   3.6664   3.8201   5.4885
     5.7984   6.3917   6.4049   6.7061   6.8615   6.8977   7.5455   7.7890
     7.9229   8.1117   8.1150   8.2769   8.5180   8.8373   8.8576   8.9507
     9.0752   9.2296

          k = 0.3750 0.3844 0.0000 ( 37423 PWs)   bands (ev):

   -38.3652 -38.0262 -24.0793 -22.8318 -22.8031 -22.7384 -18.8774 -18.8522
   -18.5546 -18.5371 -18.5155 -18.1384 -14.8066 -14.6973 -14.6874 -14.6800
   -14.6063 -14.5032 -14.4539 -14.4318 -14.2606 -14.1584 -14.0066 -14.0050
   -13.9255 -13.9203 -13.7824  -9.8427  -9.5109  -9.4343  -8.7932  -8.7660
    -8.6424  -8.4294  -8.4033  -8.2824  -8.2324  -8.2038  -8.1980  -4.1085
    -3.9261  -3.5676  -3.2676  -3.1849  -2.7723  -2.7678  -2.5413  -2.5130
    -2.4951  -2.4275  -2.3067  -2.1965  -2.1235  -2.1187  -2.0885  -2.0110
    -1.6856  -1.6408  -1.3834  -1.2168  -1.2081  -1.1595  -1.0662  -0.9945
    -0.9620  -0.8345  -0.7648  -0.7102  -0.6735  -0.6528  -0.5320  -0.5163
    -0.4267  -0.2256  -0.2218   0.1408   0.2554   0.3025   0.5719   0.6354
     0.7291   0.7763   0.8770   0.9499   1.0104   1.1728   1.1929   1.2061
     1.2639   1.2766   1.3090   1.3897   1.4324   1.4543   1.4758   1.4966
     1.5039   1.5636   1.6354   1.6710   1.6841   1.7117   1.7639   1.8057
     1.8534   1.8760   1.9282   2.0342   2.0356   2.1330   2.2304   2.2339
     2.9108   2.9151   3.9762   4.0699   4.1455   4.1627   4.3162   4.8788
     6.0272   6.0383   6.2337   6.5332   6.5648   6.8323   7.6054   7.9034
     8.1893   8.4069   8.6670   8.6926   8.7535   8.7704   9.0929   9.1263
     9.2662   9.3190

          k = 0.3750-0.5125 0.0000 ( 37434 PWs)   bands (ev):

   -38.3629 -38.0239 -24.0636 -22.8140 -22.7853 -22.7209 -18.9496 -18.8468
   -18.6254 -18.5331 -18.4764 -18.0991 -14.8108 -14.7093 -14.6214 -14.5565
   -14.5144 -14.4997 -14.4643 -14.3553 -14.2681 -14.2225 -13.9989 -13.9428
   -13.9132 -13.9086 -13.7489  -9.9231  -9.5987  -9.4727  -8.8722  -8.8448
    -8.7235  -8.5846  -8.5587  -8.4227  -8.2299  -8.1972  -8.1924  -4.2895
    -4.1077  -3.7364  -3.5116  -3.3538  -3.0108  -3.0060  -2.6537  -2.5574
    -2.5144  -2.4401  -2.4399  -2.2075  -2.1192  -2.1138  -2.0881  -2.0605
    -1.7461  -1.6637  -1.4019  -1.2879  -1.2497  -1.1230  -1.0490  -1.0488
    -1.0092  -0.8609  -0.8436  -0.7510  -0.7356  -0.7159  -0.5775  -0.5126
    -0.4581  -0.1936  -0.1922   0.1482   0.2814   0.3295   0.5854   0.6914
     0.8660   0.9230   0.9448   1.0640   1.1293   1.2231   1.2583   1.3010
     1.3258   1.3430   1.4053   1.4629   1.5256   1.5370   1.5405   1.6322
     1.6584   1.6596   1.6866   1.6866   1.7387   1.7568   1.8288   1.8929
     1.9529   1.9985   2.0490   2.1258   2.2719   2.2755   2.4260   2.4304
     2.7385   2.7456   4.1197   4.2383   4.3179   4.3261   4.4737   4.6434
     5.8300   5.8406   6.3198   6.4826   6.6533   6.7594   7.4364   8.0546
     8.1744   8.5073   8.7389   8.8063   8.9412   9.0173   9.0330   9.1936
     9.3149   9.3845

          k =-0.5000 0.0000 0.0000 ( 37306 PWs)   bands (ev):

   -38.3767 -38.0377 -24.1528 -22.9133 -22.8846 -22.8188 -18.9694 -18.6827
   -18.6573 -18.3668 -18.3074 -18.0388 -15.2370 -15.1226 -15.0456 -14.9112
   -14.8657 -14.6954 -14.6460 -14.4861 -14.2964 -14.2890 -14.0925 -14.0023
   -13.9959 -13.9127 -13.8195  -9.6202  -8.9004  -8.8850  -8.2868  -8.2558
    -8.2519  -7.8478  -7.8224  -7.7610  -7.7454  -7.7329  -7.6430  -3.1922
    -3.1118  -3.0338  -2.6663  -2.2522  -2.2438  -2.0991  -1.9233  -1.9225
    -1.7669  -1.7337  -1.6720  -1.4664  -1.4626  -1.4349  -1.3322  -1.2816
    -1.2086  -1.1241  -1.1065  -1.0846  -1.0573  -0.9402  -0.9354  -0.9162
    -0.8307  -0.8107  -0.7014  -0.6926  -0.6843  -0.5000  -0.3980  -0.3949
    -0.3190  -0.2415  -0.1892  -0.1752   0.1410   0.1779   0.2210   0.2256
     0.2283   0.2366   0.3192   0.4476   0.4799   0.4933   0.5044   0.5600
     0.5602   0.5673   0.6690   0.9319   0.9364   1.0080   1.0237   1.0471
     1.0987   1.1708   1.1940   1.2589   1.2735   1.2940   1.3118   1.3578
     1.6132   1.6196   1.6439   1.6647   1.7305   1.7803   1.9843   1.9985
     2.0555   2.0728   2.2468   2.3835   2.4256   2.6938   2.7033   5.9112
     6.0522   6.7272   7.0395   7.0695   7.1448   7.1484   7.3195   7.6755
     7.7835   7.7963   7.8233   8.0625   8.4227   8.6259   8.6718   8.8934
     8.9700   9.0288

          k =-0.5000 0.1281 0.0000 ( 37308 PWs)   bands (ev):

   -38.3744 -38.0354 -24.1383 -22.8971 -22.8684 -22.8029 -18.9617 -18.6504
   -18.6494 -18.4644 -18.2755 -18.1362 -15.1665 -15.0717 -14.9906 -14.8243
   -14.7952 -14.6623 -14.5557 -14.4508 -14.3556 -14.2594 -14.0611 -13.9839
   -13.9786 -13.9158 -13.8588  -9.6017  -9.0929  -9.0082  -8.2813  -8.2537
    -8.2481  -7.9830  -7.9723  -7.9575  -7.9443  -7.8707  -7.8468  -3.3456
    -3.2283  -3.0971  -2.7288  -2.2718  -2.2517  -2.1671  -2.0843  -2.0231
    -1.8340  -1.8049  -1.7987  -1.7808  -1.6701  -1.6499  -1.6486  -1.5843
    -1.4051  -1.2454  -1.2399  -1.2086  -1.1516  -0.9967  -0.9880  -0.8657
    -0.8585  -0.7920  -0.7910  -0.7271  -0.6258  -0.4008  -0.3311  -0.1979
    -0.1606  -0.1353  -0.0755   0.0227   0.0597   0.1218   0.1550   0.1901
     0.2262   0.3871   0.4298   0.5251   0.5270   0.5967   0.6323   0.7218
     0.7290   0.7930   0.8526   0.8604   0.9076   1.0227   1.0585   1.1092
     1.1745   1.2020   1.2030   1.2079   1.3070   1.3264   1.3657   1.3799
     1.5784   1.6204   1.6577   1.6935   1.7674   1.9106   1.9511   2.0621
     2.6436   2.6834   2.7023   2.7619   2.8112   3.0130   3.0892   5.9424
     6.1362   6.3314   6.8663   6.8846   7.2734   7.3095   7.4163   7.4916
     7.4963   7.7770   7.9219   8.1009   8.6674   8.8318   8.9419   9.0642
     9.0689   9.0897

          k =-0.5000 0.2563 0.0000 ( 37354 PWs)   bands (ev):

   -38.3689 -38.0299 -24.1029 -22.8576 -22.8290 -22.7639 -18.9429 -18.6784
   -18.6304 -18.5687 -18.3540 -18.1905 -14.9849 -14.9298 -14.8446 -14.7155
   -14.5833 -14.5369 -14.5190 -14.4273 -14.3664 -14.1683 -13.9833 -13.9453
   -13.9420 -13.9409 -13.8880  -9.5689  -9.5052  -9.3003  -8.4490  -8.4211
    -8.3288  -8.2942  -8.2687  -8.2487  -8.2165  -8.2048  -8.1598  -3.7981
    -3.6248  -3.3405  -2.9624  -2.5951  -2.4584  -2.3991  -2.3301  -2.2696
    -2.2290  -2.2269  -2.1000  -2.0853  -2.0818  -2.0198  -2.0154  -1.9459
    -1.5780  -1.5632  -1.4841  -1.2959  -1.0561  -1.0442  -0.9036  -0.8981
    -0.8539  -0.8525  -0.7604  -0.5966  -0.5790  -0.4823  -0.4719  -0.4679
    -0.2844  -0.2686  -0.2076   0.1745   0.1770   0.3442   0.4370   0.5248
     0.5524   0.5781   0.6857   0.7215   0.7292   0.9640   0.9749   1.0786
     1.0802   1.1365   1.1512   1.1808   1.2794   1.2816   1.2968   1.3206
     1.3307   1.3380   1.3411   1.3822   1.4090   1.5124   1.6583   1.7129
     1.7340   1.7416   1.7681   1.8099   1.8113   1.9130   1.9417   2.0262
     2.9896   2.9903   3.4826   3.6275   3.6941   3.7615   3.9085   5.2994
     6.3234   6.3493   6.3612   6.3912   6.7706   6.7929   7.6735   7.9837
     8.1656   8.2080   8.2202   8.2587   8.7819   8.8260   9.0359   9.0946
     9.1871   9.1943

          k =-0.5000 0.3844 0.0000 ( 37462 PWs)   bands (ev):

   -38.3634 -38.0244 -24.0669 -22.8175 -22.7888 -22.7243 -18.9242 -18.8694
   -18.6113 -18.5449 -18.4811 -18.1030 -14.8320 -14.6894 -14.6822 -14.6660
   -14.5848 -14.5148 -14.4562 -14.2994 -14.2872 -14.1197 -13.9833 -13.9194
   -13.9146 -13.9003 -13.7870  -9.9039  -9.5876  -9.5051  -8.8425  -8.8149
    -8.6957  -8.5880  -8.5624  -8.4319  -8.2469  -8.2140  -8.2110  -4.2689
    -4.0821  -3.7076  -3.3257  -3.2556  -2.7614  -2.7561  -2.6562  -2.5746
    -2.5324  -2.4560  -2.4392  -2.2390  -2.1226  -2.1186  -2.0839  -2.0478
    -1.7314  -1.6340  -1.3040  -1.2151  -1.2093  -1.1347  -1.1213  -0.9537
    -0.9441  -0.9025  -0.7602  -0.6938  -0.6883  -0.6765  -0.5605  -0.5310
    -0.4670  -0.1742  -0.1730   0.1401   0.2924   0.4135   0.6111   0.7442
     0.8631   0.9971   1.0040   1.1162   1.1297   1.1964   1.2349   1.2762
     1.3202   1.3310   1.3430   1.4251   1.4303   1.5249   1.5648   1.5850
     1.6047   1.6460   1.6601   1.6686   1.7084   1.7228   1.7266   1.8415
     1.9472   2.0180   2.0347   2.0398   2.0439   2.0863   2.1939   2.1960
     2.9069   2.9133   3.9755   4.2906   4.3674   4.3688   4.5169   4.6327
     5.7888   5.8004   6.3004   6.4572   6.6196   6.6773   7.6460   8.0322
     8.2134   8.5030   8.5491   8.7182   8.7792   8.9543   9.0406   9.1666
     9.3264   9.3873

          k =-0.5000-0.5125 0.0000 ( 37436 PWs)   bands (ev):

   -38.3611 -38.0221 -24.0519 -22.8006 -22.7719 -22.7076 -18.9432 -18.9164
   -18.6189 -18.6034 -18.4428 -18.0645 -14.7750 -14.7614 -14.5571 -14.5183
   -14.5124 -14.5011 -14.4998 -14.2597 -14.2065 -14.2018 -13.9649 -13.9145
   -13.9068 -13.8662 -13.7202 -10.0516  -9.7060  -9.4859  -8.9945  -8.9670
    -8.8435  -8.7055  -8.6798  -8.5400  -8.2472  -8.2081  -8.2075  -4.4583
    -4.2707  -3.8761  -3.5025  -3.4945  -2.9994  -2.9938  -2.7875  -2.6024
    -2.5687  -2.5622  -2.4794  -2.2616  -2.1108  -2.1068  -2.0830  -2.0807
    -1.7809  -1.6543  -1.3194  -1.2937  -1.2166  -1.1916  -1.0843  -1.0084
    -0.9883  -0.9316  -0.8501  -0.7761  -0.7716  -0.6347  -0.5724  -0.5515
    -0.5373  -0.1331  -0.1299   0.1489   0.3360   0.4325   0.6285   0.8129
     1.0646   1.1148   1.1412   1.2444   1.2777   1.3002   1.3155   1.3245
     1.3434   1.3561   1.4723   1.4853   1.5125   1.5765   1.6118   1.7356
     1.7648   1.7746   1.7826   1.7923   1.8131   1.8263   1.8505   1.8554
     1.8862   2.1391   2.2091   2.2316   2.2904   2.2954   2.3987   2.4031
     2.7306   2.7405   4.1092   4.3757   4.5070   4.5941   4.5971   4.7307
     5.5393   5.5508   6.1952   6.3682   6.6527   6.7704   7.5904   8.1324
     8.1457   8.4615   8.6154   8.7168   8.7768   8.9196   8.9245   8.9802
     9.2292   9.2483

     the Fermi energy is     2.7013 ev

!    total energy              =   -1868.77348144 Ry
     Harris-Foulkes estimate   =   -1868.77348187 Ry
     estimated scf accuracy    <       0.00000089 Ry

     The total energy is the sum of the following terms:

     one-electron contribution =  -25988.00034903 Ry
     hartree contribution      =   13145.70000403 Ry
     xc contribution           =    -642.20284601 Ry
     ewald contribution        =   11615.73823503 Ry
     smearing contrib. (-TS)   =      -0.00852546 Ry

     convergence has been achieved in  35 iterations

     negative rho (up, down):  9.046E-02 0.000E+00

     Forces acting on atoms (cartesian axes, Ry/au):

     atom    1 type  3   force =     0.00000000    0.00000000   -0.00014483
     atom    2 type  2   force =     0.00000000    0.00000000    0.00012803
     atom    3 type  3   force =     0.00000000    0.00000000   -0.00005669
     atom    4 type  1   force =     0.00000000    0.00000000   -0.00022421
     atom    5 type  2   force =     0.00000000    0.00000000   -0.00101628
     atom    6 type  3   force =     0.00000000    0.00000000    0.00037057
     atom    7 type  3   force =     0.00000000    0.00000000   -0.00005596
     atom    8 type  4   force =     0.00000000    0.00000000   -0.00082984
     atom    9 type  3   force =     0.00000000    0.00000000    0.00106645
     atom   10 type  3   force =     0.00000000    0.00000000    0.00139760
     atom   11 type  2   force =     0.00000000    0.00000000   -0.00123268
     atom   12 type  1   force =     0.00000000    0.00000000   -0.00501836
     atom   13 type  3   force =     0.00000000    0.00000000    0.00285916
     atom   14 type  3   force =     0.00000000    0.00000000    0.01593493
     atom   15 type  2   force =     0.00000000    0.00000000   -0.01432565
     atom   16 type  3   force =     0.00000000    0.00000000    0.03691760
     atom   17 type  1   force =     0.00000000    0.00000000   -0.03501002
     atom   18 type  2   force =     0.00000000    0.00000000    0.00374577
     atom   19 type  3   force =     0.00000000    0.00000000    0.01673364
     atom   20 type  3   force =     0.00000000    0.00000000    0.00853689
     atom   21 type  4   force =     0.00000000    0.00000000   -0.04141614
     atom   22 type  3   force =     0.00000000    0.00000000    0.00388433
     atom   23 type  3   force =     0.00000000    0.00000000    0.00643894
     atom   24 type  2   force =     0.00000000    0.00000000    0.00354131
     atom   25 type  1   force =     0.00000000    0.00000000   -0.00177442
     atom   26 type  3   force =     0.00000000    0.00000000    0.00131525
     atom   27 type  2   force =     0.00000000    0.00000000   -0.00217527
     atom   28 type  3   force =     0.00000000    0.00000000    0.00040989

     Total force =     0.072448     Total SCF correction =     0.005171


     Computing stress (Cartesian axis) and pressure


     negative rho (up, down):  9.046E-02 0.000E+00
          total   stress  (Ry/bohr**3)                   (kbar)     P=       -7.24
  -0.00008256   0.00000000   0.00000000          -12.15        0.00        0.00
   0.00000000  -0.00004106   0.00000000            0.00       -6.04        0.00
   0.00000000   0.00000000  -0.00002408            0.00        0.00       -3.54

 
     init_run     :      9.13s CPU     10.88s WALL (       1 calls)
     electrons    :    587.07s CPU    916.23s WALL (       1 calls)
     forces       :      3.93s CPU      4.13s WALL (       1 calls)
     stress       :     24.18s CPU     33.28s WALL (       1 calls)

     Called by init_run:
     wfcinit      :      6.52s CPU      7.25s WALL (       1 calls)
     potinit      :      0.65s CPU      1.04s WALL (       1 calls)
     hinit0       :      1.08s CPU      1.44s WALL (       1 calls)

     Called by electrons:
     c_bands      :    456.93s CPU    739.37s WALL (      35 calls)
     sum_band     :     87.16s CPU    104.39s WALL (      35 calls)
     v_of_rho     :      2.95s CPU      3.42s WALL (      36 calls)
     newd         :     22.73s CPU     28.04s WALL (      36 calls)
     mix_rho      :     17.57s CPU     41.11s WALL (      35 calls)

     Called by c_bands:
     init_us_2    :      3.76s CPU      3.84s WALL (    1825 calls)
     cegterg      :    430.21s CPU    711.91s WALL (     875 calls)

     Called by sum_band:
     sum_band:bec :      0.25s CPU      2.49s WALL (     875 calls)
     addusdens    :     25.27s CPU     30.46s WALL (      35 calls)

     Called by *egterg:
     h_psi        :    215.83s CPU    245.54s WALL (    3688 calls)
     s_psi        :     22.74s CPU     22.99s WALL (    3688 calls)
     g_psi        :      0.68s CPU      0.69s WALL (    2788 calls)
     cdiaghg      :    108.87s CPU    329.51s WALL (    3663 calls)

     Called by h_psi:
     h_psi:calbec :     25.69s CPU     31.31s WALL (    3688 calls)
     vloc_psi     :    165.70s CPU    178.08s WALL (    3688 calls)
     add_vuspsi   :     23.44s CPU     33.67s WALL (    3688 calls)

     General routines
     calbec       :     41.46s CPU     59.94s WALL (    4688 calls)
     fft          :      2.33s CPU      3.81s WALL (     491 calls)
     ffts         :      9.25s CPU     17.79s WALL (   14817 calls)
     fftw         :    190.67s CPU    203.76s WALL (  625034 calls)
     interpolate  :      0.19s CPU      0.52s WALL (      36 calls)
 
     Parallel routines
     fft_scatt_xy :     24.54s CPU     24.92s WALL (  640342 calls)
     fft_scatt_yz :    116.26s CPU    119.91s WALL (  640342 calls)
 
     PWSCF        :  10m25.08s CPU  16m 5.94s WALL

 
   This run was terminated on:  17:45:37   5May2021            

=------------------------------------------------------------------------------=
   JOB DONE.
=------------------------------------------------------------------------------=
[1620251137.206489] [holy7c06101:69638:0]          mpool.c:43   UCX  WARN  object 0x2b38c00 was not returned to mpool ucp_requests
[1620251137.207483] [holy7c06101:69635:0]          mpool.c:43   UCX  WARN  object 0x2bbe480 was not returned to mpool ucp_requests
[1620251137.205812] [holy7c06101:69637:0]          mpool.c:43   UCX  WARN  object 0x3d57540 was not returned to mpool ucp_requests
[1620251137.205828] [holy7c06101:69637:0]          mpool.c:43   UCX  WARN  object 0x3d57700 was not returned to mpool ucp_requests
[1620251137.208583] [holy7c06107:227108:0]          mpool.c:43   UCX  WARN  object 0x40b3bc0 was not returned to mpool ucp_requests
[1620251137.208278] [holy7c04404:123855:0]          mpool.c:43   UCX  WARN  object 0x3529980 was not returned to mpool ucp_requests
[1620251137.208774] [holy7c04404:123856:0]          mpool.c:43   UCX  WARN  object 0x38c4600 was not returned to mpool ucp_requests
[1620251137.209699] [holy7c04404:123860:0]          mpool.c:43   UCX  WARN  object 0x46e2580 was not returned to mpool ucp_requests
[1620251137.209712] [holy7c04404:123860:0]          mpool.c:43   UCX  WARN  object 0x46e2900 was not returned to mpool ucp_requests
