
     Program PWSCF v.6.5 starts on  5May2021 at 17:15:13 

     This program is part of the open-source Quantum ESPRESSO suite
     for quantum simulation of materials; please cite
         "P. Giannozzi et al., J. Phys.:Condens. Matter 21 395502 (2009);
         "P. Giannozzi et al., J. Phys.:Condens. Matter 29 465901 (2017);
          URL http://www.quantum-espresso.org", 
     in publications or presentations arising from this work. More details at
     http://www.quantum-espresso.org/quote

     Parallel version (MPI), running on    20 processors

     MPI processes distributed on     7 nodes
     R & G space division:  proc/nbgrp/npool/nimage =      20
     Reading input from YBCO_CuO_cleave_0.5_sep_scf.pwi
Warning: card &IONS ignored
Warning: card     ION_DYNAMICS = 'BFGS' ignored
Warning: card / ignored
Warning: card &CELL ignored
Warning: card     CELL_DYNAMICS = 'BFGS' ignored
Warning: card / ignored

     Current dimensions of program PWSCF are:
     Max number of different atomic species (ntypx) = 10
     Max number of k-points (npk) =  40000
     Max angular momentum in pseudopotentials (lmaxx) =  3

     Subspace diagonalization in iterative solution of the eigenvalue problem:
     one sub-group per band group will be used
     scalapack distributed-memory algorithm (size of sub-group:  4*  4 procs)

     Message from routine setup:
     using ibrav=0 with symmetry is DISCOURAGED, use correct ibrav instead
 
     Parallelization info
     --------------------
     sticks:   dense  smooth     PW     G-vecs:    dense   smooth      PW
     Min         150      50     14                71866    13826    2156
     Max         151      51     15                71905    13849    2201
     Sum        3015    1011    293              1437693   276691   43587
 


     bravais-lattice index     =            0
     lattice parameter (alat)  =       7.3477  a.u.
     unit-cell volume          =    4406.5316 (a.u.)^3
     number of atoms/cell      =           28
     number of atomic types    =            4
     number of electrons       =       229.00
     number of Kohn-Sham states=          138
     kinetic-energy cutoff     =      60.0000  Ry
     charge density cutoff     =     720.0000  Ry
     convergence threshold     =      1.0E-06
     mixing beta               =       0.2000
     number of iterations used =           10  local-TF  mixing
     Exchange-correlation= SLA PW PBE PBE
                           (   1   4   3   4   0   0   0)

     celldm(1)=   7.347715  celldm(2)=   0.000000  celldm(3)=   0.000000
     celldm(4)=   0.000000  celldm(5)=   0.000000  celldm(6)=   0.000000

     crystal axes: (cart. coord. in units of alat)
               a(1) = (   1.000000   0.000000   0.000000 )  
               a(2) = (   0.000000   0.975577   0.000000 )  
               a(3) = (   0.000000   0.000000  11.386186 )  

     reciprocal axes: (cart. coord. in units 2 pi/alat)
               b(1) = (  1.000000  0.000000  0.000000 )  
               b(2) = (  0.000000  1.025034  0.000000 )  
               b(3) = (  0.000000  0.000000  0.087826 )  


     PseudoPot. # 1 for Ba read from file:
     /n/holyscratch01/hoffman_lab/ruizhe/YBCO_Project/pseudo/Ba.pbe-nsp-van.UPF
     MD5 check sum: 2b9c31dd849566dd297d80989662b7a0
     Pseudo is Ultrasoft + core correction, Zval = 10.0
     Generated by new atomic code, or converted to UPF format
     Using radial grid of  907 points,  6 beta functions with: 
                l(1) =   0
                l(2) =   0
                l(3) =   1
                l(4) =   1
                l(5) =   2
                l(6) =   2
     Q(r) pseudized with  6 coefficients,  rinner =    1.200   1.200   1.200
                                                       1.200   1.200

     PseudoPot. # 2 for Cu read from file:
     /n/holyscratch01/hoffman_lab/ruizhe/YBCO_Project/pseudo/Cu.pbe-n-van_ak.UPF
     MD5 check sum: 34e3282627ffb533726feb647e090d62
     Pseudo is Ultrasoft + core correction, Zval = 11.0
     Generated by new atomic code, or converted to UPF format
     Using radial grid of  867 points,  6 beta functions with: 
                l(1) =   0
                l(2) =   0
                l(3) =   1
                l(4) =   1
                l(5) =   2
                l(6) =   2
     Q(r) pseudized with  8 coefficients,  rinner =    1.400   1.400   1.400
                                                       1.400   1.400

     PseudoPot. # 3 for O  read from file:
     /n/holyscratch01/hoffman_lab/ruizhe/YBCO_Project/pseudo/O.pbe-van_ak.UPF
     MD5 check sum: 783ce7fe4c79b6a4916957118fed0856
     Pseudo is Ultrasoft, Zval =  6.0
     Generated by new atomic code, or converted to UPF format
     Using radial grid of  737 points,  4 beta functions with: 
                l(1) =   0
                l(2) =   0
                l(3) =   1
                l(4) =   1
     Q(r) pseudized with  8 coefficients,  rinner =    0.800   0.800   0.800


     PseudoPot. # 4 for Y  read from file:
     /n/holyscratch01/hoffman_lab/ruizhe/YBCO_Project/pseudo/Y.pbe-nsp-van.UPF
     MD5 check sum: 4412fed3ab108fed87a1b7d6a69a4a38
     Pseudo is Ultrasoft + core correction, Zval = 11.0
     Generated by new atomic code, or converted to UPF format
     Using radial grid of  885 points,  6 beta functions with: 
                l(1) =   0
                l(2) =   0
                l(3) =   1
                l(4) =   1
                l(5) =   2
                l(6) =   2
     Q(r) pseudized with  6 coefficients,  rinner =    1.200   1.200   1.200
                                                       1.200   1.200

     atomic species   valence    mass     pseudopotential
        Ba            10.00   137.32700     Ba( 1.00)
        Cu            11.00    63.54600     Cu( 1.00)
        O              6.00    15.99900     O ( 1.00)
        Y             11.00    88.90584     Y ( 1.00)

      4 Sym. Ops. (no inversion) found



   Cartesian axes

     site n.     atom                  positions (alat units)
         1           O   tau(   1) = (   0.0000000   0.4877884  -0.0257983  )
         2           Cu  tau(   2) = (   0.0000000   0.0000000   0.0215779  )
         3           O   tau(   3) = (   0.0000000   0.0000000   0.5073114  )
         4           Ba  tau(   4) = (   0.4999996   0.4877884   0.5319677  )
         5           Cu  tau(   5) = (   0.0000000   0.0000000   1.0495845  )
         6           O   tau(   6) = (   0.4999996   0.0000000   1.1181579  )
         7           O   tau(   7) = (   0.0000000   0.4877884   1.1273137  )
         8           Y   tau(   8) = (   0.4999996   0.4877884   1.4938777  )
         9           O   tau(   9) = (   0.0000000   0.4877884   1.8497402  )
        10           O   tau(  10) = (   0.4999996   0.0000000   1.8692709  )
        11           Cu  tau(  11) = (   0.0000000   0.0000000   1.9417560  )
        12           Ba  tau(  12) = (   0.4999996   0.4877884   2.4526063  )
        13           O   tau(  13) = (   0.0000000   0.0000000   2.5103470  )
        14           O   tau(  14) = (   0.0000000   0.4877884   2.9968469  )
        15           Cu  tau(  15) = (   0.0000000   0.0000000   2.9968521  )
        16           O   tau(  16) = (   0.0000000   0.0000000   3.6119216  )
        17           Ba  tau(  17) = (   0.4999996   0.4877884   3.6696546  )
        18           Cu  tau(  18) = (   0.0000000   0.0000000   4.1805280  )
        19           O   tau(  19) = (   0.4999996   0.0000000   4.2530003  )
        20           O   tau(  20) = (   0.0000000   0.4877884   4.2725130  )
        21           Y   tau(  21) = (   0.4999996   0.4877884   4.6283780  )
        22           O   tau(  22) = (   0.0000000   0.4877884   4.9949420  )
        23           O   tau(  23) = (   0.4999996   0.0000000   5.0041107  )
        24           Cu  tau(  24) = (   0.0000000   0.0000000   5.0726892  )
        25           Ba  tau(  25) = (   0.4999996   0.4877884   5.5902906  )
        26           O   tau(  26) = (   0.0000000   0.0000000   5.6149469  )
        27           Cu  tau(  27) = (   0.0000000   0.0000000   6.1006521  )
        28           O   tau(  28) = (   0.0000000   0.4877884   6.1480334  )

     number of k points=    25  Gaussian smearing, width (Ry)=  0.0100
                       cart. coord. in units 2pi/alat
        k(    1) = (   0.0000000   0.0000000   0.0000000), wk =   0.0312500
        k(    2) = (   0.0000000   0.1281293   0.0000000), wk =   0.0625000
        k(    3) = (   0.0000000   0.2562585   0.0000000), wk =   0.0625000
        k(    4) = (   0.0000000   0.3843878   0.0000000), wk =   0.0625000
        k(    5) = (   0.0000000  -0.5125170   0.0000000), wk =   0.0312500
        k(    6) = (   0.1250000   0.0000000   0.0000000), wk =   0.0625000
        k(    7) = (   0.1250000   0.1281293   0.0000000), wk =   0.1250000
        k(    8) = (   0.1250000   0.2562585   0.0000000), wk =   0.1250000
        k(    9) = (   0.1250000   0.3843878   0.0000000), wk =   0.1250000
        k(   10) = (   0.1250000  -0.5125170   0.0000000), wk =   0.0625000
        k(   11) = (   0.2500000   0.0000000   0.0000000), wk =   0.0625000
        k(   12) = (   0.2500000   0.1281293   0.0000000), wk =   0.1250000
        k(   13) = (   0.2500000   0.2562585   0.0000000), wk =   0.1250000
        k(   14) = (   0.2500000   0.3843878   0.0000000), wk =   0.1250000
        k(   15) = (   0.2500000  -0.5125170   0.0000000), wk =   0.0625000
        k(   16) = (   0.3750000   0.0000000   0.0000000), wk =   0.0625000
        k(   17) = (   0.3750000   0.1281293   0.0000000), wk =   0.1250000
        k(   18) = (   0.3750000   0.2562585   0.0000000), wk =   0.1250000
        k(   19) = (   0.3750000   0.3843878   0.0000000), wk =   0.1250000
        k(   20) = (   0.3750000  -0.5125170   0.0000000), wk =   0.0625000
        k(   21) = (  -0.5000000   0.0000000   0.0000000), wk =   0.0312500
        k(   22) = (  -0.5000000   0.1281293   0.0000000), wk =   0.0625000
        k(   23) = (  -0.5000000   0.2562585   0.0000000), wk =   0.0625000
        k(   24) = (  -0.5000000   0.3843878   0.0000000), wk =   0.0625000
        k(   25) = (  -0.5000000  -0.5125170   0.0000000), wk =   0.0312500

     Dense  grid:  1437693 G-vectors     FFT dimensions: (  64,  64, 720)

     Smooth grid:   276691 G-vectors     FFT dimensions: (  40,  36, 432)

     Estimated max dynamical RAM per process >     459.32 MB

     Estimated total dynamical RAM >       8.97 GB

     Initial potential from superposition of free atoms

     starting charge  228.84827, renormalised to  229.00000

     negative rho (up, down):  8.961E-02 0.000E+00
     Starting wfcs are  201 randomized atomic wfcs

     total cpu time spent up to now is      103.3 secs

     Self-consistent Calculation

     iteration #  1     ecut=    60.00 Ry     beta= 0.20
     Davidson diagonalization with overlap
     ethr =  1.00E-02,  avg # of iterations =  2.0

     negative rho (up, down):  8.743E-02 0.000E+00

     total cpu time spent up to now is      154.5 secs

     total energy              =   -1869.52404731 Ry
     Harris-Foulkes estimate   =   -1871.06237086 Ry
     estimated scf accuracy    <      13.00103377 Ry

     iteration #  2     ecut=    60.00 Ry     beta= 0.20
     Davidson diagonalization with overlap
     ethr =  5.68E-03,  avg # of iterations =  1.0

     negative rho (up, down):  8.613E-02 0.000E+00

     total cpu time spent up to now is      227.9 secs

     total energy              =   -1868.88144581 Ry
     Harris-Foulkes estimate   =   -1869.86129735 Ry
     estimated scf accuracy    <       5.47283653 Ry

     iteration #  3     ecut=    60.00 Ry     beta= 0.20
     Davidson diagonalization with overlap
     ethr =  2.39E-03,  avg # of iterations =  1.0

     negative rho (up, down):  8.572E-02 0.000E+00

     total cpu time spent up to now is      376.9 secs

     total energy              =   -1868.78337797 Ry
     Harris-Foulkes estimate   =   -1869.16200177 Ry
     estimated scf accuracy    <       5.16686013 Ry

     iteration #  4     ecut=    60.00 Ry     beta= 0.20
     Davidson diagonalization with overlap
     ethr =  2.26E-03,  avg # of iterations =  1.0

     negative rho (up, down):  8.624E-02 0.000E+00

     total cpu time spent up to now is      573.9 secs

     total energy              =   -1868.84187720 Ry
     Harris-Foulkes estimate   =   -1868.96344499 Ry
     estimated scf accuracy    <       3.93754238 Ry

     iteration #  5     ecut=    60.00 Ry     beta= 0.20
     Davidson diagonalization with overlap
     ethr =  1.72E-03,  avg # of iterations =  1.0

     negative rho (up, down):  8.689E-02 0.000E+00

     total cpu time spent up to now is      612.6 secs

     total energy              =   -1868.83503546 Ry
     Harris-Foulkes estimate   =   -1868.93934527 Ry
     estimated scf accuracy    <       0.79402409 Ry

     iteration #  6     ecut=    60.00 Ry     beta= 0.20
     Davidson diagonalization with overlap
     ethr =  3.47E-04,  avg # of iterations =  2.2

     negative rho (up, down):  8.760E-02 0.000E+00

     total cpu time spent up to now is      675.5 secs

     total energy              =   -1868.83652111 Ry
     Harris-Foulkes estimate   =   -1868.86490877 Ry
     estimated scf accuracy    <       0.29076778 Ry

     iteration #  7     ecut=    60.00 Ry     beta= 0.20
     Davidson diagonalization with overlap
     ethr =  1.27E-04,  avg # of iterations =  5.8

     negative rho (up, down):  8.909E-02 0.000E+00

     total cpu time spent up to now is      730.6 secs

     total energy              =   -1868.80154997 Ry
     Harris-Foulkes estimate   =   -1868.84524405 Ry
     estimated scf accuracy    <       0.16844619 Ry

     iteration #  8     ecut=    60.00 Ry     beta= 0.20
     Davidson diagonalization with overlap
     ethr =  7.36E-05,  avg # of iterations =  5.6

     negative rho (up, down):  8.970E-02 0.000E+00

     total cpu time spent up to now is      770.6 secs

     total energy              =   -1868.82126777 Ry
     Harris-Foulkes estimate   =   -1868.83153604 Ry
     estimated scf accuracy    <       0.30076352 Ry

     iteration #  9     ecut=    60.00 Ry     beta= 0.20
     Davidson diagonalization with overlap
     ethr =  7.36E-05,  avg # of iterations =  1.1

     negative rho (up, down):  9.007E-02 0.000E+00

     total cpu time spent up to now is      806.1 secs

     total energy              =   -1868.82194896 Ry
     Harris-Foulkes estimate   =   -1868.82593056 Ry
     estimated scf accuracy    <       0.58077889 Ry

     iteration # 10     ecut=    60.00 Ry     beta= 0.20
     Davidson diagonalization with overlap
     ethr =  7.36E-05,  avg # of iterations =  1.0

     negative rho (up, down):  9.028E-02 0.000E+00

     total cpu time spent up to now is      824.5 secs

     total energy              =   -1868.81713772 Ry
     Harris-Foulkes estimate   =   -1868.82337627 Ry
     estimated scf accuracy    <       0.43590365 Ry

     iteration # 11     ecut=    60.00 Ry     beta= 0.20
     Davidson diagonalization with overlap
     ethr =  7.36E-05,  avg # of iterations =  1.0

     negative rho (up, down):  9.035E-02 0.000E+00

     total cpu time spent up to now is      865.6 secs

     total energy              =   -1868.81579646 Ry
     Harris-Foulkes estimate   =   -1868.81905225 Ry
     estimated scf accuracy    <       0.12412916 Ry

     iteration # 12     ecut=    60.00 Ry     beta= 0.20
     Davidson diagonalization with overlap
     ethr =  5.42E-05,  avg # of iterations =  1.7

     negative rho (up, down):  9.034E-02 0.000E+00

     total cpu time spent up to now is      884.4 secs

     total energy              =   -1868.81189988 Ry
     Harris-Foulkes estimate   =   -1868.81655021 Ry
     estimated scf accuracy    <       0.11847890 Ry

     iteration # 13     ecut=    60.00 Ry     beta= 0.20
     Davidson diagonalization with overlap
     ethr =  5.17E-05,  avg # of iterations =  2.6

     negative rho (up, down):  9.098E-02 0.000E+00

     total cpu time spent up to now is      920.3 secs

     total energy              =   -1868.81128415 Ry
     Harris-Foulkes estimate   =   -1868.81293697 Ry
     estimated scf accuracy    <       0.02710310 Ry

     iteration # 14     ecut=    60.00 Ry     beta= 0.20
     Davidson diagonalization with overlap
     ethr =  1.18E-05,  avg # of iterations =  7.2

     negative rho (up, down):  9.023E-02 0.000E+00

     total cpu time spent up to now is      962.0 secs

     total energy              =   -1868.81165953 Ry
     Harris-Foulkes estimate   =   -1868.81199598 Ry
     estimated scf accuracy    <       0.01302645 Ry

     iteration # 15     ecut=    60.00 Ry     beta= 0.20
     Davidson diagonalization with overlap
     ethr =  5.69E-06,  avg # of iterations =  3.4

     negative rho (up, down):  1.058E-01 0.000E+00

     total cpu time spent up to now is     1001.9 secs

     total energy              =   -1868.81015749 Ry
     Harris-Foulkes estimate   =   -1868.81199607 Ry
     estimated scf accuracy    <       0.01297780 Ry

     iteration # 16     ecut=    60.00 Ry     beta= 0.20
     Davidson diagonalization with overlap
     ethr =  5.67E-06,  avg # of iterations =  7.2

     negative rho (up, down):  1.099E-01 0.000E+00

     total cpu time spent up to now is     1054.1 secs

     total energy              =   -1868.80930286 Ry
     Harris-Foulkes estimate   =   -1868.81054707 Ry
     estimated scf accuracy    <       0.00699256 Ry

     iteration # 17     ecut=    60.00 Ry     beta= 0.20
     Davidson diagonalization with overlap
     ethr =  3.05E-06,  avg # of iterations =  5.0

     negative rho (up, down):  1.120E-01 0.000E+00

     total cpu time spent up to now is     1198.6 secs

     total energy              =   -1868.80897331 Ry
     Harris-Foulkes estimate   =   -1868.80961514 Ry
     estimated scf accuracy    <       0.00511726 Ry

     iteration # 18     ecut=    60.00 Ry     beta= 0.20
     Davidson diagonalization with overlap
     ethr =  2.23E-06,  avg # of iterations =  5.6

     negative rho (up, down):  1.150E-01 0.000E+00

     total cpu time spent up to now is     1223.6 secs

     total energy              =   -1868.80771275 Ry
     Harris-Foulkes estimate   =   -1868.80903534 Ry
     estimated scf accuracy    <       0.00394395 Ry

     iteration # 19     ecut=    60.00 Ry     beta= 0.20
     Davidson diagonalization with overlap
     ethr =  1.72E-06,  avg # of iterations =  9.1

     negative rho (up, down):  1.187E-01 0.000E+00

     total cpu time spent up to now is     1262.6 secs

     total energy              =   -1868.80734244 Ry
     Harris-Foulkes estimate   =   -1868.80781104 Ry
     estimated scf accuracy    <       0.00202450 Ry

     iteration # 20     ecut=    60.00 Ry     beta= 0.20
     Davidson diagonalization with overlap
     ethr =  8.84E-07,  avg # of iterations =  8.1

     negative rho (up, down):  1.164E-01 0.000E+00

     total cpu time spent up to now is     1303.1 secs

     total energy              =   -1868.80719299 Ry
     Harris-Foulkes estimate   =   -1868.80739818 Ry
     estimated scf accuracy    <       0.00118603 Ry

     iteration # 21     ecut=    60.00 Ry     beta= 0.20
     Davidson diagonalization with overlap
     ethr =  5.18E-07,  avg # of iterations =  5.9

     negative rho (up, down):  1.080E-01 0.000E+00

     total cpu time spent up to now is     1328.2 secs

     total energy              =   -1868.80700106 Ry
     Harris-Foulkes estimate   =   -1868.80721245 Ry
     estimated scf accuracy    <       0.00103708 Ry

     iteration # 22     ecut=    60.00 Ry     beta= 0.20
     Davidson diagonalization with overlap
     ethr =  4.53E-07,  avg # of iterations =  4.1

     negative rho (up, down):  1.009E-01 0.000E+00

     total cpu time spent up to now is     1360.3 secs

     total energy              =   -1868.80687650 Ry
     Harris-Foulkes estimate   =   -1868.80701634 Ry
     estimated scf accuracy    <       0.00038443 Ry

     iteration # 23     ecut=    60.00 Ry     beta= 0.20
     Davidson diagonalization with overlap
     ethr =  1.68E-07,  avg # of iterations =  4.6

     negative rho (up, down):  9.637E-02 0.000E+00

     total cpu time spent up to now is     1383.4 secs

     total energy              =   -1868.80680053 Ry
     Harris-Foulkes estimate   =   -1868.80688684 Ry
     estimated scf accuracy    <       0.00016804 Ry

     iteration # 24     ecut=    60.00 Ry     beta= 0.20
     Davidson diagonalization with overlap
     c_bands:  1 eigenvalues not converged
     c_bands:  1 eigenvalues not converged
     ethr =  7.34E-08,  avg # of iterations =  7.0

     negative rho (up, down):  9.316E-02 0.000E+00

     total cpu time spent up to now is     1418.5 secs

     total energy              =   -1868.80678924 Ry
     Harris-Foulkes estimate   =   -1868.80680428 Ry
     estimated scf accuracy    <       0.00008651 Ry

     iteration # 25     ecut=    60.00 Ry     beta= 0.20
     Davidson diagonalization with overlap
     c_bands:  1 eigenvalues not converged
     ethr =  3.78E-08,  avg # of iterations =  7.4

     negative rho (up, down):  9.091E-02 0.000E+00

     total cpu time spent up to now is     1456.4 secs

     total energy              =   -1868.80680564 Ry
     Harris-Foulkes estimate   =   -1868.80679162 Ry
     estimated scf accuracy    <       0.00003620 Ry

     iteration # 26     ecut=    60.00 Ry     beta= 0.20
     Davidson diagonalization with overlap
     ethr =  1.58E-08,  avg # of iterations =  6.8

     negative rho (up, down):  9.053E-02 0.000E+00

     total cpu time spent up to now is     1482.7 secs

     total energy              =   -1868.80681491 Ry
     Harris-Foulkes estimate   =   -1868.80680718 Ry
     estimated scf accuracy    <       0.00001676 Ry

     iteration # 27     ecut=    60.00 Ry     beta= 0.20
     Davidson diagonalization with overlap
     c_bands:  1 eigenvalues not converged
     ethr =  7.32E-09,  avg # of iterations =  4.7

     negative rho (up, down):  9.044E-02 0.000E+00

     total cpu time spent up to now is     1513.5 secs

     total energy              =   -1868.80681670 Ry
     Harris-Foulkes estimate   =   -1868.80681557 Ry
     estimated scf accuracy    <       0.00000584 Ry

     iteration # 28     ecut=    60.00 Ry     beta= 0.20
     Davidson diagonalization with overlap
     ethr =  2.55E-09,  avg # of iterations =  2.9

     negative rho (up, down):  9.045E-02 0.000E+00

     total cpu time spent up to now is     1533.6 secs

     total energy              =   -1868.80681732 Ry
     Harris-Foulkes estimate   =   -1868.80681723 Ry
     estimated scf accuracy    <       0.00000355 Ry

     iteration # 29     ecut=    60.00 Ry     beta= 0.20
     Davidson diagonalization with overlap
     ethr =  1.55E-09,  avg # of iterations =  1.9

     negative rho (up, down):  9.054E-02 0.000E+00

     total cpu time spent up to now is     1557.2 secs

     total energy              =   -1868.80681736 Ry
     Harris-Foulkes estimate   =   -1868.80681745 Ry
     estimated scf accuracy    <       0.00000129 Ry

     iteration # 30     ecut=    60.00 Ry     beta= 0.20
     Davidson diagonalization with overlap
     ethr =  5.63E-10,  avg # of iterations =  2.0

     negative rho (up, down):  9.064E-02 0.000E+00

     total cpu time spent up to now is     1575.0 secs

     End of self-consistent calculation

          k = 0.0000 0.0000 0.0000 ( 34453 PWs)   bands (ev):

   -37.9849 -37.9548 -22.6381 -22.6346 -22.4052 -22.3295 -18.5190 -18.4915
   -17.9903 -17.9802 -17.9609 -17.9490 -15.3140 -15.2914 -14.3563 -14.3315
   -14.1206 -14.1193 -14.1004 -14.0784 -13.9938 -13.8382 -13.8141 -13.6187
   -13.6164 -13.2818 -12.4963  -7.8577  -7.8536  -7.6728  -7.6303  -7.6270
    -7.6243  -7.6036  -7.6005  -7.3693  -7.3517  -7.2349  -7.1914  -1.9438
    -1.9213  -1.9120  -1.8911  -1.7699  -1.7472  -1.7200  -1.7163  -1.6590
    -1.6418  -1.5799  -1.5564  -1.3544  -0.7468  -0.7200  -0.3182  -0.3147
    -0.2784  -0.0484   0.0401   0.0704   0.0719   0.0944   0.1070   0.1076
     0.2366   0.2704   0.2718   0.2842   0.3489   0.3523   0.4172   0.4191
     0.4297   0.4371   0.5365   0.5401   0.5410   0.5458   0.6388   0.6620
     0.6696   0.6789   0.6855   0.6865   0.6881   0.7084   0.8013   0.8060
     1.2380   1.2533   1.2739   1.3238   1.3710   1.3783   1.3860   1.4453
     1.4536   1.5055   1.5258   1.6151   1.6293   1.6358   1.6378   1.6415
     1.6631   2.0798   2.1004   2.1245   2.1263   2.2646   2.3238   2.3254
     2.5028   2.6315   2.6407   2.7128   2.7144   2.8154   2.8568   5.3996
     5.4285   5.7546   6.0421   6.2795   6.8180   6.8255   7.1618   7.2524
     7.5754   7.7240   8.2958   8.3109   8.3390   8.4869   8.7023   8.8267
     8.8493   9.1969

          k = 0.0000 0.1281 0.0000 ( 34501 PWs)   bands (ev):

   -37.9826 -37.9525 -22.6166 -22.6131 -22.3842 -22.3100 -18.4831 -18.4556
   -18.0845 -18.0535 -17.9871 -17.9577 -15.2055 -15.1832 -14.3637 -14.3385
   -14.1298 -14.1271 -14.0694 -14.0478 -13.9621 -13.8846 -13.8611 -13.6241
   -13.6213 -13.3288 -12.5614  -7.8409  -7.8367  -7.6642  -7.6235  -7.6202
    -7.6103  -7.5890  -7.5858  -7.3732  -7.3300  -7.2012  -7.1994  -2.0452
    -2.0354  -2.0160  -1.9783  -1.8945  -1.8725  -1.7212  -1.7197  -1.5840
    -1.5646  -1.5588  -1.5411  -1.3674  -0.8387  -0.8342  -0.8184  -0.6869
    -0.6642  -0.3176  -0.2935  -0.1706  -0.0414  -0.0055   0.0187   0.0193
     0.0364   0.0397   0.0591   0.0989   0.1165   0.2288   0.3765   0.3848
     0.4055   0.4348   0.4376   0.5740   0.5835   0.6654   0.6659   0.6742
     0.6873   0.6929   0.7396   0.7699   0.7729   0.7953   0.9869   0.9952
     1.0619   1.0767   1.1884   1.2123   1.3143   1.3375   1.3965   1.5505
     1.5624   1.6263   1.6333   1.6656   1.6945   1.8128   1.8181   1.8459
     1.8594   2.0716   2.1009   2.1030   2.1591   2.2037   2.3031   2.3996
     2.4629   2.5151   2.5393   2.8990   3.0763   3.1381   3.1838   5.7863
     5.7977   6.0610   6.2869   6.4555   7.1374   7.1441   7.4806   7.5418
     7.8432   7.9849   8.2505   8.2784   8.4581   8.6434   8.9542   8.9681
     9.0875   9.3497

          k = 0.0000 0.2563 0.0000 ( 34540 PWs)   bands (ev):

   -37.9770 -37.9469 -22.5635 -22.5600 -22.3325 -22.2620 -18.3921 -18.3645
   -18.3096 -18.2788 -17.9794 -17.9499 -14.9581 -14.9371 -14.4374 -14.4111
   -14.1877 -14.1778 -14.0090 -13.9796 -13.9553 -13.9307 -13.8822 -13.6014
   -13.5978 -13.4239 -12.7162  -7.8004  -7.7963  -7.6641  -7.6611  -7.6401
    -7.5775  -7.4858  -7.4825  -7.4201  -7.2319  -7.2210  -7.1112  -2.4708
    -2.4548  -2.3248  -2.2890  -1.8701  -1.8691  -1.8128  -1.7531  -1.7328
    -1.5989  -1.5967  -1.5121  -1.5038  -1.4887  -1.4725  -1.3400  -0.7698
    -0.7313  -0.6923  -0.6300  -0.5182  -0.3470  -0.3413  -0.2930  -0.2672
    -0.2096  -0.2093  -0.1596  -0.1157  -0.0339   0.0077   0.0649   0.0910
     0.0937   0.2560   0.2744   0.4539   0.4756   0.4993   0.5756   0.7007
     0.7223   0.7255   0.7375   0.7379   0.7578   0.8643   0.9084   0.9275
     1.3215   1.3276   1.4267   1.4508   1.4711   1.5231   1.6135   1.6498
     1.6540   1.7087   1.7504   1.8271   1.8532   1.8614   1.9110   1.9451
     1.9748   2.0161   2.2044   2.2740   2.2922   2.3222   2.3589   2.4031
     2.4061   2.5764   2.6777   3.0050   3.4149   3.4386   3.7756   6.6856
     6.6889   6.8577   6.9283   6.9699   7.9923   7.9980   8.1203   8.1483
     8.2571   8.3775   8.4185   8.5612   8.8945   8.9538   9.1388   9.1520
     9.3297   9.4851

          k = 0.0000 0.3844 0.0000 ( 34436 PWs)   bands (ev):

   -37.9714 -37.9413 -22.5090 -22.5055 -22.2794 -22.2129 -18.5074 -18.4768
   -18.2939 -18.2662 -17.9716 -17.9421 -14.7092 -14.6926 -14.5798 -14.5503
   -14.2932 -14.2722 -13.9975 -13.9537 -13.9375 -13.9300 -13.8134 -13.5424
   -13.5386 -13.4730 -12.8667  -7.7602  -7.7561  -7.6971  -7.6942  -7.6105
    -7.5421  -7.4641  -7.3768  -7.3734  -7.2367  -7.1287  -7.0191  -2.8408
    -2.8256  -2.6472  -2.5954  -2.4809  -2.4261  -2.4229  -1.7780  -1.7778
    -1.5641  -1.5464  -1.5293  -1.5244  -1.4181  -1.4064  -1.3944  -1.0909
    -0.9368  -0.7657  -0.7036  -0.6928  -0.6566  -0.6305  -0.5967  -0.5785
    -0.4510  -0.4509  -0.3048  -0.2365  -0.2263  -0.1528  -0.1499  -0.1341
    -0.1244   0.0383   0.0913   0.1019   0.1383   0.5488   0.5902   0.6429
     0.6883   0.7190   0.7309   0.7617   0.7626   0.8815   1.1192   1.1686
     1.3903   1.4186   1.4999   1.5275   1.5716   1.5817   1.5968   1.6116
     1.6968   1.7212   1.7576   1.8390   2.0218   2.0356   2.0466   2.1156
     2.1410   2.1982   2.2542   2.2982   2.3714   2.3777   2.6793   2.7006
     2.7510   2.8107   2.8139   2.9679   3.3866   3.4092   4.1096   7.4851
     7.5547   7.6554   7.7812   7.8376   8.0077   8.0359   8.6293   8.7552
     8.8419   8.9664   9.0414   9.1824   9.2079   9.2379   9.3991   9.4977
     9.8032   9.9312

          k = 0.0000-0.5125 0.0000 ( 34590 PWs)   bands (ev):

   -37.9691 -37.9390 -22.4860 -22.4824 -22.2570 -22.1922 -18.5834 -18.5528
   -18.2508 -18.2231 -17.9684 -17.9389 -14.6603 -14.6372 -14.5780 -14.5602
   -14.3607 -14.3302 -14.0138 -13.9412 -13.9262 -13.9218 -13.7885 -13.5112
   -13.5072 -13.4734 -12.9275  -7.7437  -7.7397  -7.7087  -7.7058  -7.5952
    -7.5250  -7.4850  -7.3298  -7.3264  -7.2424  -7.0842  -6.9796  -2.9859
    -2.9711  -2.8186  -2.7305  -2.6965  -2.6572  -2.6527  -1.8129  -1.8125
    -1.6262  -1.5862  -1.4287  -1.3995  -1.3838  -1.3482  -1.3265  -1.2134
    -1.0085  -0.8940  -0.8698  -0.8324  -0.8257  -0.8160  -0.5553  -0.5553
    -0.4701  -0.4442  -0.4002  -0.3198  -0.3094  -0.2398  -0.2369  -0.2260
    -0.1746  -0.1485  -0.1422   0.0510   0.1118   0.5776   0.6464   0.6730
     0.6753   0.6903   0.6946   0.7677   0.7687   0.8840   1.1887   1.2291
     1.4047   1.4412   1.5081   1.5081   1.5941   1.6158   1.6644   1.6703
     1.6760   1.6772   1.6841   1.7839   2.0059   2.1682   2.1765   2.1827
     2.1890   2.2642   2.2666   2.2842   2.5731   2.6737   2.6746   2.6787
     2.9142   2.9604   2.9731   2.9763   3.2488   3.2731   4.1992   7.9111
     7.9650   7.9934   7.9998   8.0285   8.0660   8.0697   8.8334   8.9372
     9.0354   9.1594   9.3343   9.3366   9.3654   9.3750   9.6835   9.7637
    10.0536  10.0838

          k = 0.1250 0.0000 0.0000 ( 34512 PWs)   bands (ev):

   -37.9831 -37.9530 -22.6198 -22.6162 -22.3873 -22.3136 -18.4866 -18.4590
   -18.0905 -18.0614 -17.9777 -17.9465 -15.1985 -15.1754 -14.3816 -14.3586
   -14.1688 -14.1663 -14.0807 -14.0574 -14.0225 -13.8667 -13.8417 -13.6192
   -13.6168 -13.3046 -12.5611  -7.8678  -7.8636  -7.6698  -7.6487  -7.5952
    -7.5919  -7.5694  -7.5662  -7.3294  -7.3191  -7.2052  -7.1624  -2.0322
    -2.0157  -1.9359  -1.8947  -1.8626  -1.8419  -1.7050  -1.7000  -1.6484
    -1.6316  -1.6031  -1.5789  -1.3558  -0.7327  -0.7062  -0.3127  -0.3118
    -0.3093  -0.1844  -0.1566  -0.0523  -0.0169  -0.0133  -0.0048  -0.0006
     0.0773   0.0859   0.0865   0.1095   0.2289   0.2495   0.3219   0.3387
     0.5467   0.5501   0.6139   0.6166   0.6477   0.6518   0.6556   0.6614
     0.6847   0.6875   0.7088   0.7365   0.7958   0.8032   0.8057   0.8237
     1.0957   1.1218   1.1319   1.1681   1.2329   1.3602   1.3860   1.3890
     1.3914   1.4054   1.4536   1.5943   1.6156   1.6843   1.7060   1.8505
     1.8592   2.0178   2.1273   2.1966   2.2706   2.2724   2.3665   2.4312
     2.4656   2.5422   2.6098   2.6913   2.7763   2.8589   2.8952   5.6059
     5.6169   5.9678   6.2518   6.4104   7.0590   7.0638   7.3963   7.5120
     7.8031   7.9501   8.2915   8.3194   8.4511   8.6369   8.9652   9.0200
     9.1304   9.3267

          k = 0.1250 0.1281 0.0000 ( 34530 PWs)   bands (ev):

   -37.9808 -37.9507 -22.5989 -22.5954 -22.3669 -22.2946 -18.4511 -18.4235
   -18.0941 -18.0729 -18.0644 -18.0425 -15.0909 -15.0682 -14.3789 -14.3551
   -14.1652 -14.1625 -14.0507 -14.0295 -13.9893 -13.9210 -13.8953 -13.6186
   -13.6158 -13.3395 -12.6081  -7.8553  -7.8512  -7.7432  -7.7399  -7.6560
    -7.6377  -7.4837  -7.4454  -7.4422  -7.3437  -7.1967  -7.0499  -2.1378
    -2.1236  -2.0764  -2.0306  -1.8947  -1.8771  -1.7440  -1.7299  -1.6932
    -1.6837  -1.5226  -1.4922  -1.3588  -0.8362  -0.8309  -0.8284  -0.6412
    -0.6157  -0.5072  -0.4858  -0.3069  -0.3016  -0.2168  -0.1917  -0.1668
    -0.0038   0.0256   0.0301   0.1575   0.2197   0.2612   0.3201   0.3273
     0.3624   0.4229   0.4245   0.5900   0.5941   0.6333   0.6394   0.7018
     0.7146   0.7316   0.7397   0.7398   0.7596   0.8158   0.9864   0.9938
     1.1263   1.1484   1.2673   1.2847   1.3332   1.3560   1.3657   1.4078
     1.4702   1.5617   1.5913   1.6327   1.6492   1.6918   1.7191   1.9813
     1.9846   2.0343   2.0413   2.0459   2.2028   2.2144   2.4300   2.6082
     2.6733   2.7646   2.8278   2.9318   3.0940   3.1494   3.1948   5.9354
     5.9406   6.2338   6.4582   6.5630   7.3677   7.3723   7.7036   7.7908
     8.0251   8.1277   8.2070   8.2611   8.6098   8.7797   9.0464   9.1444
     9.2364   9.3881

          k = 0.1250 0.2563 0.0000 ( 34558 PWs)   bands (ev):

   -37.9752 -37.9452 -22.5478 -22.5442 -22.3170 -22.2481 -18.3613 -18.3336
   -18.3051 -18.2743 -18.0748 -18.0457 -14.8460 -14.8248 -14.4225 -14.3960
   -14.1888 -14.1811 -14.0087 -13.9929 -13.9914 -13.9553 -13.9016 -13.5927
   -13.5892 -13.4142 -12.7234  -7.8668  -7.8636  -7.8008  -7.7967  -7.6323
    -7.6187  -7.5762  -7.4350  -7.4014  -7.3981  -7.1596  -7.0140  -2.5732
    -2.5521  -2.3574  -2.3208  -1.8904  -1.8870  -1.8099  -1.7895  -1.7761
    -1.7114  -1.6919  -1.5932  -1.5907  -1.4442  -1.4087  -1.3286  -0.8615
    -0.8199  -0.6972  -0.6692  -0.6590  -0.6529  -0.5812  -0.5544  -0.5263
    -0.1533  -0.1458  -0.1089  -0.0581  -0.0176   0.0170   0.0718   0.1038
     0.1393   0.3560   0.3664   0.5207   0.5341   0.5659   0.6208   0.6310
     0.6526   0.7103   0.7481   0.7711   0.7738   0.8028   1.1197   1.1365
     1.3408   1.3487   1.4060   1.4502   1.4761   1.5510   1.5724   1.5792
     1.5944   1.7092   1.7587   1.7977   1.8570   1.8585   1.9405   1.9653
     2.0112   2.0470   2.0746   2.3240   2.3734   2.3750   2.4679   2.7736
     2.8514   2.9068   3.0824   3.1502   3.4173   3.4453   3.7708   6.7391
     6.7425   6.8843   7.0346   7.0612   7.9709   8.0039   8.1946   8.1980
     8.4546   8.5732   8.5838   8.7053   8.8898   8.9367   9.0763   9.1939
     9.3577   9.4415

          k = 0.1250 0.3844 0.0000 ( 34567 PWs)   bands (ev):

   -37.9697 -37.9396 -22.4952 -22.4917 -22.2657 -22.2005 -18.5014 -18.4708
   -18.2645 -18.2368 -18.0649 -18.0358 -14.6069 -14.5941 -14.5353 -14.5002
   -14.2640 -14.2476 -14.0155 -13.9969 -13.9733 -13.9116 -13.8058 -13.5385
   -13.5346 -13.4635 -12.8399  -7.8715  -7.8684  -7.7703  -7.7661  -7.6348
    -7.5950  -7.5611  -7.4493  -7.4460  -7.4213  -7.2025  -7.0763  -2.9577
    -2.9379  -2.6894  -2.6444  -2.4739  -2.4159  -2.4127  -1.8105  -1.8084
    -1.6657  -1.6298  -1.6283  -1.6146  -1.4510  -1.4157  -1.3773  -1.1236
    -1.1161  -1.0991  -1.0347  -0.9250  -0.8496  -0.7228  -0.5136  -0.4900
    -0.3651  -0.3253  -0.3166  -0.2808  -0.2212  -0.1484  -0.1450  -0.0787
    -0.0482   0.2389   0.2592   0.3874   0.4210   0.5868   0.6249   0.6515
     0.6899   0.7401   0.7518   0.7835   0.8117   0.8223   1.2202   1.2530
     1.3833   1.4167   1.4781   1.5848   1.5922   1.6505   1.6571   1.6990
     1.7150   1.7397   1.8268   1.8805   2.0179   2.0270   2.0367   2.0730
     2.1180   2.3330   2.3845   2.4375   2.7185   2.7847   2.7880   2.8613
     2.8828   2.9209   3.1094   3.1418   3.4047   3.4376   4.0931   7.3598
     7.4478   7.4978   7.6609   7.7033   7.9296   7.9506   8.6927   8.7455
     8.7539   9.0677   9.1473   9.2014   9.3311   9.3496   9.5486   9.7240
     9.9443   9.9621

          k = 0.1250-0.5125 0.0000 ( 34552 PWs)   bands (ev):

   -37.9673 -37.9372 -22.4731 -22.4695 -22.2441 -22.1804 -18.5770 -18.5464
   -18.2220 -18.1943 -18.0608 -18.0316 -14.6195 -14.5961 -14.4605 -14.4426
   -14.3259 -14.2998 -14.0016 -13.9847 -13.9827 -13.9029 -13.7660 -13.5099
   -13.5060 -13.4718 -12.8881  -7.8462  -7.8433  -7.7563  -7.7522  -7.6143
    -7.5900  -7.5483  -7.4974  -7.4940  -7.3760  -7.2410  -7.1415  -3.1070
    -3.0877  -2.8476  -2.7850  -2.7098  -2.6518  -2.6482  -1.8279  -1.8271
    -1.6172  -1.5810  -1.5080  -1.4959  -1.4568  -1.4313  -1.4063  -1.3004
    -1.2720  -1.2648  -1.2442  -1.0146  -0.8973  -0.7769  -0.4766  -0.4663
    -0.4542  -0.3863  -0.3531  -0.3307  -0.3106  -0.2394  -0.2338  -0.1278
    -0.0765   0.1957   0.2263   0.2656   0.2848   0.5755   0.6317   0.6628
     0.7274   0.7543   0.7553   0.7895   0.8467   0.8716   1.3031   1.3276
     1.4309   1.4871   1.5164   1.5348   1.5686   1.6591   1.6734   1.6881
     1.7024   1.7071   1.7963   1.9191   1.9806   2.1243   2.1338   2.2535
     2.2693   2.3767   2.6677   2.6718   2.8447   2.8611   2.8750   2.9521
     2.9553   2.9640   3.0337   3.0449   3.2974   3.3337   4.1771   7.5846
     7.6273   7.6832   7.7372   7.7529   8.0081   8.0922   8.9447   8.9482
     9.2500   9.2620   9.4533   9.4964   9.5243   9.6093   9.6260   9.7267
    10.0347  10.2174

          k = 0.2500 0.0000 0.0000 ( 34588 PWs)   bands (ev):

   -37.9788 -37.9487 -22.5746 -22.5710 -22.3434 -22.2746 -18.4048 -18.3769
   -18.3055 -18.2771 -17.9717 -17.9405 -14.9342 -14.9105 -14.4912 -14.4708
   -14.2829 -14.2745 -14.1180 -14.0270 -14.0193 -13.9002 -13.8730 -13.6136
   -13.6107 -13.3475 -12.7107  -7.8787  -7.8745  -7.7039  -7.6238  -7.5251
    -7.5219  -7.4841  -7.4809  -7.2720  -7.2383  -7.1393  -7.0907  -2.3403
    -2.3265  -2.2475  -2.1979  -1.7514  -1.7511  -1.7186  -1.6981  -1.6136
    -1.5981  -1.5187  -1.4807  -1.3914  -0.8173  -0.7978  -0.4811  -0.4251
    -0.4062  -0.3972  -0.3937  -0.2997  -0.2962  -0.2785  -0.2737  -0.2151
    -0.2138  -0.1685  -0.0112   0.0260   0.1174   0.2038   0.2709   0.3213
     0.4007   0.4213   0.4282   0.4507   0.5941   0.5979   0.6413   0.6617
     0.6643   0.7221   0.8103   0.8118   0.8332   0.8356   0.9221   0.9457
     0.9760   0.9844   1.1029   1.2320   1.2354   1.3461   1.4472   1.4557
     1.4983   1.5486   1.5538   1.6979   1.7244   1.7321   1.7368   1.7892
     1.8186   1.8328   2.0959   2.1622   2.1648   2.2824   2.3495   2.3575
     2.3928   2.6733   2.6872   2.8061   2.8581   2.9987   3.0395   6.0636
     6.0668   6.4840   6.8021   6.8394   7.6913   7.6969   8.0423   8.1920
     8.2457   8.2733   8.2788   8.4483   8.9065   9.0265   9.2429   9.3884
     9.4938   9.5992

          k = 0.2500 0.1281 0.0000 ( 34584 PWs)   bands (ev):

   -37.9765 -37.9464 -22.5556 -22.5521 -22.3248 -22.2570 -18.3707 -18.3428
   -18.2997 -18.2713 -18.0717 -18.0406 -14.8294 -14.8063 -14.4639 -14.4419
   -14.2570 -14.2503 -14.0712 -14.0013 -13.9937 -13.9655 -13.9351 -13.6032
   -13.6003 -13.3586 -12.7189  -7.8862  -7.8823  -7.7706  -7.7671  -7.7056
    -7.6148  -7.5140  -7.3915  -7.3713  -7.3681  -7.1347  -6.9863  -2.4787
    -2.4549  -2.2924  -2.2482  -1.8354  -1.8276  -1.8072  -1.7838  -1.7252
    -1.7236  -1.4305  -1.3924  -1.3799  -0.8826  -0.8377  -0.8300  -0.8269
    -0.8204  -0.6997  -0.6789  -0.6577  -0.6392  -0.5248  -0.5028  -0.2748
    -0.1698  -0.1259  -0.0232   0.1020   0.1593   0.2536   0.2909   0.3260
     0.3347   0.4034   0.4065   0.5146   0.5251   0.5630   0.5909   0.6287
     0.6356   0.7264   0.8077   0.8485   0.8621   0.8644   0.9956   0.9990
     1.1736   1.1856   1.3500   1.3853   1.4027   1.4451   1.4662   1.4878
     1.5518   1.5744   1.6177   1.6709   1.6835   1.6896   1.7697   1.8855
     1.8880   1.8987   1.9881   2.1017   2.1095   2.2417   2.4579   2.8670
     2.9090   2.9353   3.1307   3.1441   3.1551   3.2329   3.2771   6.3059
     6.3089   6.6198   6.9283   6.9633   7.9457   7.9552   8.0329   8.0613
     8.3266   8.4573   8.5052   8.6702   8.9501   8.9845   9.1510   9.3351
     9.3646   9.4283

          k = 0.2500 0.2563 0.0000 ( 34583 PWs)   bands (ev):

   -37.9709 -37.9408 -22.5091 -22.5056 -22.2791 -22.2140 -18.3058 -18.2850
   -18.2758 -18.2691 -18.2571 -18.2397 -14.5976 -14.5793 -14.4120 -14.3813
   -14.2058 -14.2014 -14.1115 -14.0895 -13.9462 -13.9444 -13.9181 -13.5708
   -13.5674 -13.3909 -12.7433  -8.0730  -8.0698  -7.8196  -7.8183  -7.8153
    -7.6673  -7.6132  -7.5891  -7.4684  -7.4652  -7.2312  -7.0804  -2.9006
    -2.8726  -2.5176  -2.4752  -1.9760  -1.9697  -1.9156  -1.8915  -1.8226
    -1.8215  -1.7598  -1.6015  -1.5994  -1.3634  -1.3377  -1.3196  -1.2356
    -1.2316  -1.1695  -1.1228  -0.6994  -0.6768  -0.6299  -0.5735  -0.5088
    -0.2362  -0.1972  -0.0754  -0.0430  -0.0213  -0.0116   0.0713   0.0779
     0.0992   0.1553   0.2366   0.5383   0.6126   0.7090   0.7217   0.8117
     0.8544   0.8737   0.8827   0.8995   0.9491   0.9844   1.3645   1.3916
     1.4461   1.4565   1.4786   1.5296   1.5325   1.5416   1.5521   1.6248
     1.6312   1.6488   1.6682   1.7693   1.8883   1.9435   1.9593   2.0469
     2.1152   2.1739   2.2352   2.2977   2.2994   2.3029   2.6468   2.8662
     3.3903   3.4093   3.5195   3.5327   3.7069   3.7224   3.7598   6.7994
     6.8201   6.8480   7.2836   7.3232   7.7705   7.8118   8.4751   8.4816
     8.7691   8.9535   8.9668   8.9756   9.1122   9.1532   9.3050   9.3240
     9.4682   9.5722

          k = 0.2500 0.3844 0.0000 ( 34619 PWs)   bands (ev):

   -37.9654 -37.9353 -22.4616 -22.4580 -22.2324 -22.1701 -18.4870 -18.4563
   -18.2699 -18.2414 -18.1893 -18.1614 -14.4726 -14.4567 -14.3449 -14.3081
   -14.1849 -14.1784 -14.1647 -14.1465 -13.9125 -13.8634 -13.7931 -13.5273
   -13.5235 -13.4368 -12.7736  -8.1797  -8.1766  -7.9223  -7.7979  -7.7939
    -7.7442  -7.7052  -7.7020  -7.6151  -7.5770  -7.4461  -7.3173  -3.3151
    -3.2880  -2.8689  -2.8263  -2.4464  -2.3894  -2.3863  -2.0027  -1.9951
    -1.9020  -1.8724  -1.7084  -1.7078  -1.6989  -1.6805  -1.4645  -1.4387
    -1.3614  -1.1787  -1.1450  -0.7460  -0.7265  -0.7100  -0.5729  -0.5545
    -0.4460  -0.3733  -0.2584  -0.1983  -0.1920  -0.1673  -0.1483  -0.0570
     0.0425   0.0955   0.1751   0.5679   0.6609   0.8023   0.8187   0.8587
     0.9109   0.9189   1.0191   1.0863   1.2036   1.2246   1.4327   1.4437
     1.4509   1.4743   1.5562   1.6935   1.7069   1.7506   1.7613   1.8214
     1.8973   1.9093   1.9495   1.9607   2.0007   2.0417   2.0725   2.1760
     2.2790   2.3985   2.4275   2.5615   2.6559   2.7186   2.7219   2.8978
     3.3205   3.3376   3.7961   3.8093   3.9641   3.9872   4.0605   6.8312
     6.9846   6.9979   7.2705   7.3190   8.0737   8.0904   8.8217   8.8398
     8.8986   8.9992   9.3631   9.3937   9.5418   9.6325   9.8398   9.8574
     9.9799  10.0772

          k = 0.2500-0.5125 0.0000 ( 34634 PWs)   bands (ev):

   -37.9631 -37.9330 -22.4415 -22.4380 -22.2127 -22.1517 -18.5614 -18.5308
   -18.2641 -18.2356 -18.1487 -18.1207 -14.5161 -14.4915 -14.2394 -14.2244
   -14.1987 -14.1837 -14.1496 -14.1280 -13.9117 -13.8468 -13.7116 -13.5064
   -13.5025 -13.4678 -12.7876  -8.1643  -8.1613  -7.9162  -7.8646  -7.8612
    -7.7837  -7.7796  -7.6917  -7.6390  -7.6051  -7.5356  -7.4824  -3.4780
    -3.4514  -3.0277  -2.9825  -2.6995  -2.6282  -2.6250  -1.9962  -1.9879
    -1.8634  -1.8605  -1.8405  -1.8329  -1.7004  -1.6968  -1.5785  -1.5516
    -1.3656  -1.1797  -1.1485  -0.7612  -0.7424  -0.7353  -0.5560  -0.5381
    -0.5345  -0.4571  -0.3358  -0.2674  -0.2608  -0.2248  -0.1948  -0.0730
     0.0368   0.0772   0.1711   0.5831   0.6830   0.8236   0.8424   0.8699
     0.8947   0.9066   1.0389   1.1146   1.3331   1.3561   1.5034   1.5144
     1.5285   1.5565   1.6595   1.7259   1.7380   1.8075   1.8139   1.8458
     1.8559   1.9702   1.9733   2.0235   2.0306   2.2057   2.2266   2.2470
     2.3059   2.3745   2.6624   2.6665   2.8190   2.8972   2.9004   2.9452
     3.1610   3.1819   3.8519   3.8672   4.0185   4.0409   4.1314   6.7787
     6.9351   6.9407   7.1961   7.2513   8.2087   8.2882   8.7630   9.2363
     9.4209   9.4604   9.4700   9.4907   9.7563   9.8082   9.8312   9.8648
     9.9806  10.1341

          k = 0.3750 0.0000 0.0000 ( 34606 PWs)   bands (ev):

   -37.9744 -37.9443 -22.5283 -22.5247 -22.2985 -22.2348 -18.4948 -18.4668
   -18.3161 -18.2880 -17.9656 -17.9344 -14.6932 -14.6810 -14.6173 -14.5829
   -14.4070 -14.3892 -14.2102 -14.0209 -14.0111 -13.8929 -13.8639 -13.6020
   -13.5990 -13.3778 -12.8485  -7.8803  -7.8761  -7.7191  -7.5869  -7.4658
    -7.4627  -7.3948  -7.3915  -7.2396  -7.1538  -7.0817  -7.0164  -2.6649
    -2.6483  -2.5151  -2.4711  -1.8204  -1.8197  -1.5619  -1.5452  -1.4913
    -1.4891  -1.4718  -1.4419  -1.4279  -0.8303  -0.8121  -0.7942  -0.7804
    -0.7390  -0.6242  -0.5927  -0.5694  -0.5137  -0.4385  -0.4377  -0.2839
    -0.2805  -0.2759  -0.0959  -0.0364  -0.0261   0.0098   0.0196   0.0731
     0.1761   0.2043   0.4773   0.5234   0.6194   0.6241   0.6245   0.6483
     0.6509   0.8064   0.8699   0.8718   0.8933   0.8979   0.9073   0.9832
     0.9843   1.0527   1.0683   1.2497   1.2745   1.3246   1.5283   1.5345
     1.5672   1.5818   1.6225   1.6344   1.7067   1.7341   1.8604   1.9618
     1.9723   2.0051   2.0298   2.0739   2.0790   2.1551   2.2113   2.4111
     2.4167   2.6882   2.7062   2.8483   2.8667   3.1070   3.1367   6.7007
     6.7037   6.9817   7.4054   7.4442   8.2003   8.2016   8.2040   8.2289
     8.6473   8.6579   8.8838   9.0603   9.0810   9.1721   9.2444   9.6578
     9.6601   9.7207

          k = 0.3750 0.1281 0.0000 ( 34566 PWs)   bands (ev):

   -37.9721 -37.9420 -22.5113 -22.5077 -22.2816 -22.2187 -18.4875 -18.4595
   -18.2832 -18.2550 -18.0639 -18.0328 -14.6314 -14.6213 -14.5337 -14.4950
   -14.3584 -14.3463 -14.1553 -13.9894 -13.9813 -13.9598 -13.9295 -13.5856
   -13.5826 -13.3707 -12.8246  -7.8813  -7.8772  -7.7209  -7.7119  -7.7094
    -7.5829  -7.4637  -7.4272  -7.4240  -7.3275  -7.1972  -7.0446  -2.8130
    -2.7889  -2.5695  -2.5272  -1.8539  -1.8500  -1.7669  -1.7518  -1.6408
    -1.6217  -1.4105  -1.3803  -1.3425  -1.1433  -1.1346  -1.0759  -1.0378
    -0.8899  -0.8299  -0.8267  -0.6880  -0.6583  -0.6249  -0.5800  -0.3871
    -0.3529  -0.3202  -0.0523   0.0351   0.0718   0.1938   0.1953   0.2323
     0.2522   0.3247   0.3327   0.4242   0.4313   0.5803   0.5817   0.6883
     0.7467   0.7650   0.7958   0.9376   0.9418   0.9876   1.0509   1.0542
     1.1950   1.2731   1.3242   1.3906   1.4115   1.4396   1.5327   1.5409
     1.5844   1.6085   1.7252   1.7529   1.7696   1.7717   1.9144   1.9344
     1.9462   1.9707   1.9939   2.0503   2.1061   2.1973   2.2549   2.8526
     3.0224   3.0382   3.1596   3.1694   3.1771   3.3844   3.4150   6.8221
     6.8262   6.9316   7.4893   7.5337   7.8546   7.8909   8.2760   8.2794
     8.9600   8.9731   9.0114   9.0491   9.1039   9.1588   9.3804   9.5334
     9.6609   9.7986

          k = 0.3750 0.2563 0.0000 ( 34593 PWs)   bands (ev):

   -37.9666 -37.9365 -22.4697 -22.4662 -22.2405 -22.1794 -18.4700 -18.4420
   -18.2791 -18.2483 -18.2000 -18.1717 -14.5115 -14.4993 -14.3470 -14.3168
   -14.2143 -14.2011 -14.1271 -14.0993 -14.0014 -13.9099 -13.9032 -13.5480
   -13.5448 -13.3674 -12.7658  -8.1221  -8.1189  -7.8716  -7.8378  -7.8337
    -7.7177  -7.6959  -7.6927  -7.6494  -7.5648  -7.4528  -7.3017  -3.2538
    -3.2240  -2.8001  -2.7567  -2.0412  -2.0334  -1.9457  -1.9286  -1.8271
    -1.8260  -1.7245  -1.7061  -1.6864  -1.6079  -1.6053  -1.4538  -1.4227
    -1.3810  -1.1006  -1.0630  -0.6803  -0.6504  -0.5881  -0.5499  -0.5023
    -0.3787  -0.3501  -0.1274  -0.0770  -0.0630  -0.0270  -0.0111  -0.0011
     0.1165   0.1366   0.2177   0.5371   0.6290   0.8528   0.8665   0.8991
     0.9846   1.0433   1.1016   1.1035   1.2257   1.2436   1.4152   1.4385
     1.4578   1.4783   1.5334   1.5897   1.5948   1.6447   1.6542   1.6981
     1.8084   1.8205   1.8394   1.8491   1.9444   1.9932   2.0209   2.1152
     2.1323   2.1954   2.1980   2.2160   2.2391   2.3124   2.5964   2.8153
     3.3891   3.4126   3.7398   3.9135   3.9221   4.0587   4.0698   6.6515
     6.7989   6.8083   7.2645   7.2988   7.9565   7.9998   8.5177   8.5226
     8.9849   9.1848   9.2921   9.3369   9.3548   9.4123   9.6438   9.6972
     9.8016   9.8658

          k = 0.3750 0.3844 0.0000 ( 34673 PWs)   bands (ev):

   -37.9611 -37.9310 -22.4273 -22.4238 -22.1985 -22.1394 -18.4738 -18.4495
   -18.4434 -18.4212 -18.1106 -18.0824 -14.4012 -14.3837 -14.2911 -14.2687
   -14.2044 -14.1915 -14.0322 -14.0073 -13.8554 -13.8278 -13.7864 -13.5144
   -13.5107 -13.4053 -12.7047  -8.3886  -8.3854  -8.1262  -8.0247  -8.0214
    -7.9532  -7.8260  -7.8218  -7.7731  -7.6626  -7.6271  -7.5476  -3.7067
    -3.6770  -3.1618  -3.1191  -2.4148  -2.3617  -2.3586  -2.1374  -2.1306
    -2.1027  -2.0799  -2.0336  -2.0142  -1.7182  -1.7174  -1.5949  -1.5649
    -1.3635  -0.9537  -0.9249  -0.7725  -0.7439  -0.6427  -0.5883  -0.5821
    -0.4793  -0.4157  -0.3603  -0.3237  -0.3005  -0.2461  -0.2415  -0.0191
     0.1775   0.1845   0.2654   0.5962   0.7499   0.9801   1.1001   1.1085
     1.1621   1.1785   1.3537   1.4452   1.5572   1.5832   1.5918   1.5987
     1.6699   1.7030   1.7259   1.7956   1.8027   1.8145   1.8551   1.8798
     1.8822   1.9598   1.9832   2.1100   2.1169   2.1291   2.2233   2.3690
     2.4032   2.4348   2.4663   2.5970   2.6398   2.6430   2.7120   2.9080
     3.3102   3.3348   4.0011   4.4588   4.4687   4.5615   4.5691   6.2487
     6.4338   6.4381   6.9622   7.0153   8.2864   8.3052   8.8254   9.0439
     9.1067   9.1197   9.2110   9.2396   9.5680   9.6732   9.7482   9.7653
     9.9651  10.0054

          k = 0.3750-0.5125 0.0000 ( 34698 PWs)   bands (ev):

   -37.9588 -37.9287 -22.4095 -22.4060 -22.1809 -22.1226 -18.5459 -18.5153
   -18.4443 -18.4161 -18.0716 -18.0433 -14.4039 -14.3776 -14.3070 -14.2900
   -14.1498 -14.1467 -13.9539 -13.9340 -13.8337 -13.7915 -13.6581 -13.5028
   -13.4989 -13.4637 -12.6785  -8.4676  -8.4645  -8.2073  -8.1799  -8.1766
    -8.0014  -7.9281  -7.8209  -7.8168  -7.8051  -7.6476  -7.5463  -3.8878
    -3.8585  -3.3275  -3.2847  -2.6715  -2.5998  -2.5967  -2.2420  -2.2175
    -2.1541  -2.1484  -2.0450  -2.0242  -1.7139  -1.7129  -1.6430  -1.6131
    -1.3501  -0.9781  -0.9518  -0.7205  -0.7082  -0.6999  -0.6441  -0.6398
    -0.5180  -0.4449  -0.4362  -0.3955  -0.3842  -0.3288  -0.3254  -0.0305
     0.2123   0.2168   0.2962   0.6221   0.7917   0.9926   1.1368   1.1488
     1.2694   1.2887   1.4323   1.5700   1.6183   1.6292   1.6386   1.6526
     1.7937   1.8076   1.8246   1.8527   1.8672   1.9063   1.9287   2.0336
     2.0380   2.0672   2.0834   2.1558   2.1723   2.1949   2.2341   2.3641
     2.6357   2.6814   2.6857   2.6934   2.7827   2.8364   2.8396   2.9619
     3.1379   3.1676   4.0447   4.6225   4.6335   4.7275   4.7345   6.0550
     6.2356   6.2386   6.8581   6.9296   8.4100   8.4727   8.5887   9.0036
     9.1665   9.2798   9.4949   9.5182   9.6038   9.6394   9.6589   9.7829
     9.8764   9.9172

          k =-0.5000 0.0000 0.0000 ( 34574 PWs)   bands (ev):

   -37.9726 -37.9425 -22.5088 -22.5052 -22.2795 -22.2180 -18.5670 -18.5391
   -18.2777 -18.2494 -17.9631 -17.9318 -14.7307 -14.7163 -14.5040 -14.4825
   -14.4770 -14.4520 -14.2561 -14.0435 -14.0216 -13.8815 -13.8522 -13.5962
   -13.5933 -13.3882 -12.9011  -7.8796  -7.8753  -7.7206  -7.5704  -7.4431
    -7.4400  -7.3565  -7.3532  -7.2310  -7.1177  -7.0598  -6.9848  -2.7887
    -2.7726  -2.6306  -2.5875  -1.8472  -1.8464  -1.5283  -1.5129  -1.5123
    -1.4681  -1.4466  -1.2681  -1.2494  -1.0704  -1.0570  -0.8682  -0.7379
    -0.7222  -0.7050  -0.6993  -0.6887  -0.5786  -0.5344  -0.5337  -0.3107
    -0.2809  -0.2780  -0.2746  -0.2477  -0.1227  -0.0133  -0.0038   0.0262
     0.1498   0.1620   0.4874   0.5736   0.6188   0.6310   0.6349   0.6427
     0.6453   0.8452   0.8774   0.8851   0.8894   0.9629   0.9701   0.9754
     0.9792   0.9871   0.9990   1.2479   1.3501   1.4256   1.5276   1.5691
     1.5776   1.5809   1.6069   1.6235   1.7156   1.7664   1.8002   2.0190
     2.0203   2.0657   2.0789   2.0798   2.1263   2.1755   2.2026   2.3960
     2.4000   2.6754   2.6924   2.8506   2.8532   3.1214   3.1445   7.2366
     7.4372   7.4649   7.5553   7.5583   7.7073   7.7891   8.1837   8.2110
     8.7151   8.8326   8.9237   9.2712   9.3926   9.4218   9.5292   9.5574
     9.6698   9.9029

          k =-0.5000 0.1281 0.0000 ( 34580 PWs)   bands (ev):

   -37.9703 -37.9402 -22.4926 -22.4891 -22.2635 -22.2026 -18.5592 -18.5313
   -18.2454 -18.2171 -18.0606 -18.0295 -14.6817 -14.6669 -14.4364 -14.4117
   -14.3881 -14.3612 -14.2002 -14.0120 -13.9894 -13.9482 -13.9186 -13.5779
   -13.5749 -13.3745 -12.8660  -7.8755  -7.8713  -7.7169  -7.5782  -7.5751
    -7.5698  -7.5673  -7.5630  -7.3566  -7.3228  -7.1916  -7.1784  -2.9423
    -2.9187  -2.6932  -2.6513  -1.8673  -1.8652  -1.7560  -1.7393  -1.4964
    -1.4335  -1.3945  -1.3769  -1.3720  -1.3695  -1.3381  -1.2350  -1.1900
    -0.8798  -0.8339  -0.8304  -0.6954  -0.6079  -0.6023  -0.5801  -0.4532
    -0.4512  -0.3605  -0.0488   0.0058   0.0073   0.1498   0.1799   0.2004
     0.2243   0.2479   0.2625   0.3421   0.3585   0.5855   0.5898   0.6896
     0.7805   0.8430   0.8606   0.9311   0.9359   1.0595   1.1351   1.1380
     1.1858   1.2651   1.2860   1.3855   1.5055   1.5091   1.5416   1.5724
     1.5921   1.6087   1.7009   1.7180   1.7330   1.7366   1.9339   1.9873
     2.0225   2.0369   2.0445   2.1207   2.1502   2.1620   2.1866   2.8343
     3.0455   3.0544   3.1541   3.1607   3.1705   3.4039   3.4369   7.0698
     7.2725   7.2792   7.6699   7.6986   7.8139   7.8919   7.9006   7.9105
     8.9528   9.2571   9.2626   9.2976   9.3444   9.4949   9.5782   9.5911
     9.6685   9.8459

          k =-0.5000 0.2563 0.0000 ( 34618 PWs)   bands (ev):

   -37.9648 -37.9347 -22.4532 -22.4496 -22.2243 -22.1649 -18.5404 -18.5125
   -18.2746 -18.2438 -18.1637 -18.1354 -14.5579 -14.5419 -14.3182 -14.3060
   -14.1315 -14.1178 -14.1100 -14.0668 -14.0502 -13.9361 -13.9056 -13.5382
   -13.5350 -13.3575 -12.7755  -8.0443  -8.0411  -7.8894  -7.8863  -7.8441
    -7.8399  -7.8026  -7.6794  -7.6493  -7.6181  -7.5354  -7.5013  -3.3959
    -3.3660  -2.9366  -2.8940  -2.0570  -2.0487  -1.9343  -1.9183  -1.8614
    -1.8373  -1.8210  -1.8192  -1.7083  -1.6095  -1.6070  -1.5346  -1.5008
    -1.3949  -1.0703  -1.0342  -0.6662  -0.6311  -0.5276  -0.5046  -0.4705
    -0.4463  -0.4444  -0.1259  -0.0949  -0.0631  -0.0619  -0.0590   0.0168
     0.1160   0.1235   0.2135   0.5359   0.6391   0.8919   0.9040   0.9197
     1.0000   1.0996   1.1441   1.1654   1.3852   1.4044   1.4482   1.4842
     1.5084   1.5363   1.6148   1.6577   1.6845   1.6886   1.6909   1.6948
     1.7297   1.7719   1.8971   1.9253   1.9617   2.1023   2.1240   2.1341
     2.1491   2.1559   2.1708   2.1984   2.2789   2.3263   2.3896   2.7791
     3.3856   3.4095   3.7326   4.0241   4.0321   4.1528   4.1640   6.5579
     6.7572   6.7619   7.1813   7.2168   8.0990   8.1726   8.6144   8.6181
     8.9949   9.2444   9.3677   9.4454   9.4750   9.5900   9.6736   9.7179
     9.7642   9.9631

          k =-0.5000 0.3844 0.0000 ( 34742 PWs)   bands (ev):

   -37.9593 -37.9292 -22.4130 -22.4094 -22.1843 -22.1265 -18.5216 -18.4937
   -18.4656 -18.4349 -18.0762 -18.0478 -14.4277 -14.4106 -14.2823 -14.2554
   -14.1807 -14.1789 -13.8994 -13.8922 -13.8640 -13.8619 -13.7696 -13.5087
   -13.5051 -13.3907 -12.6752  -8.4379  -8.4348  -8.1833  -8.1800  -8.1770
    -7.9861  -7.9330  -7.8393  -7.8349  -7.7990  -7.6778  -7.5437  -3.8674
    -3.8374  -3.3039  -3.2618  -2.4017  -2.3499  -2.3469  -2.2462  -2.2183
    -2.1712  -2.1655  -2.0632  -2.0459  -1.7174  -1.7165  -1.6343  -1.5990
    -1.3615  -0.8636  -0.8440  -0.8379  -0.8098  -0.6436  -0.5467  -0.5408
    -0.5219  -0.4718  -0.3601  -0.3574  -0.3288  -0.2823  -0.2792  -0.0090
     0.2329   0.2346   0.3023   0.6069   0.7808   1.0256   1.1966   1.2199
     1.3325   1.3521   1.5004   1.5572   1.5905   1.6294   1.6359   1.6795
     1.7445   1.7522   1.8065   1.8320   1.8525   1.8983   1.9376   1.9752
     1.9970   2.0329   2.0583   2.0914   2.1252   2.1674   2.2303   2.3590
     2.4487   2.4690   2.5738   2.6020   2.6050   2.6630   2.7164   2.8539
     3.3077   3.3334   3.9876   4.6839   4.6930   4.7664   4.7731   6.0054
     6.1953   6.1983   6.8538   6.9086   8.3759   8.4509   8.7867   8.8214
     8.9703   9.1283   9.4402   9.4716   9.5700   9.6076   9.6410   9.8275
     9.8394   9.9172

          k =-0.5000-0.5125 0.0000 ( 34692 PWs)   bands (ev):

   -37.9571 -37.9270 -22.3961 -22.3926 -22.1676 -22.1104 -18.5394 -18.5139
   -18.5088 -18.4859 -18.0379 -18.0095 -14.3726 -14.3554 -14.3543 -14.3270
   -14.1139 -14.1119 -13.8592 -13.8389 -13.7994 -13.7693 -13.6367 -13.5010
   -13.4970 -13.4618 -12.6303  -8.5900  -8.5868  -8.3256  -8.3008  -8.2975
    -8.1290  -8.0501  -7.9180  -7.8367  -7.8321  -7.6746  -7.5423  -4.0569
    -4.0271  -3.4716  -3.4296  -2.6590  -2.5876  -2.5845  -2.3769  -2.3481
    -2.1989  -2.1936  -2.0860  -2.0678  -1.7057  -1.7047  -1.6686  -1.6328
    -1.3391  -0.9242  -0.8916  -0.7892  -0.7693  -0.7204  -0.6023  -0.5870
    -0.5307  -0.4841  -0.4531  -0.4506  -0.4113  -0.3656  -0.3626  -0.0195
     0.2761   0.2777   0.3366   0.6367   0.8274   1.0419   1.2713   1.3026
     1.5463   1.5651   1.6462   1.6478   1.6511   1.6640   1.6678   1.6988
     1.7071   1.8020   1.8668   1.9318   1.9529   1.9868   2.0000   2.0236
     2.1704   2.1790   2.1808   2.1868   2.1966   2.1979   2.3559   2.4960
     2.7010   2.7048   2.7218   2.7642   2.8091   2.8123   2.8645   3.0268
     3.1317   3.1631   4.0231   4.8986   4.9087   4.9949   5.0009   5.7619
     5.9450   5.9478   6.7381   6.8173   8.5306   8.5582   8.5687   8.7024
     8.9041   9.1530   9.3285   9.3788   9.4668   9.5463   9.6522   9.6969
     9.7302  10.2221

     the Fermi energy is     3.1063 ev

!    total energy              =   -1868.80681669 Ry
     Harris-Foulkes estimate   =   -1868.80681741 Ry
     estimated scf accuracy    <       0.00000070 Ry

     The total energy is the sum of the following terms:

     one-electron contribution =  -31434.35765345 Ry
     hartree contribution      =   15872.94949213 Ry
     xc contribution           =    -642.27361609 Ry
     ewald contribution        =   14334.88422101 Ry
     smearing contrib. (-TS)   =      -0.00926028 Ry

     convergence has been achieved in  30 iterations

     negative rho (up, down):  9.064E-02 0.000E+00

     Forces acting on atoms (cartesian axes, Ry/au):

     atom    1 type  3   force =     0.00000000    0.00000000   -0.00010639
     atom    2 type  2   force =     0.00000000    0.00000000   -0.00008073
     atom    3 type  3   force =     0.00000000    0.00000000    0.00014060
     atom    4 type  1   force =     0.00000000    0.00000000   -0.00016021
     atom    5 type  2   force =     0.00000000    0.00000000    0.00035475
     atom    6 type  3   force =     0.00000000    0.00000000    0.00053362
     atom    7 type  3   force =     0.00000000    0.00000000    0.00042088
     atom    8 type  4   force =     0.00000000    0.00000000   -0.00089148
     atom    9 type  3   force =     0.00000000    0.00000000    0.00124243
     atom   10 type  3   force =     0.00000000    0.00000000    0.00104507
     atom   11 type  2   force =     0.00000000    0.00000000   -0.00070533
     atom   12 type  1   force =     0.00000000    0.00000000    0.01169612
     atom   13 type  3   force =     0.00000000    0.00000000   -0.00684937
     atom   14 type  3   force =     0.00000000    0.00000000    0.01297815
     atom   15 type  2   force =     0.00000000    0.00000000    0.03848179
     atom   16 type  3   force =     0.00000000    0.00000000   -0.03029762
     atom   17 type  1   force =     0.00000000    0.00000000   -0.02038781
     atom   18 type  2   force =     0.00000000    0.00000000   -0.01096054
     atom   19 type  3   force =     0.00000000    0.00000000    0.00347911
     atom   20 type  3   force =     0.00000000    0.00000000    0.00154575
     atom   21 type  4   force =     0.00000000    0.00000000   -0.00061045
     atom   22 type  3   force =     0.00000000    0.00000000   -0.00006043
     atom   23 type  3   force =     0.00000000    0.00000000    0.00028766
     atom   24 type  2   force =     0.00000000    0.00000000   -0.00083157
     atom   25 type  1   force =     0.00000000    0.00000000    0.00002849
     atom   26 type  3   force =     0.00000000    0.00000000   -0.00069427
     atom   27 type  2   force =     0.00000000    0.00000000    0.00032039
     atom   28 type  3   force =     0.00000000    0.00000000    0.00008136

     Total force =     0.057511     Total SCF correction =     0.003447


     Computing stress (Cartesian axis) and pressure


     negative rho (up, down):  9.064E-02 0.000E+00
          total   stress  (Ry/bohr**3)                   (kbar)     P=       -6.00
  -0.00000052   0.00000000   0.00000000           -0.08        0.00        0.00
   0.00000000  -0.00004874   0.00000000            0.00       -7.17        0.00
   0.00000000   0.00000000  -0.00007306            0.00        0.00      -10.75

 
     init_run     :    100.02s CPU    100.79s WALL (       1 calls)
     electrons    :   1429.87s CPU   1471.75s WALL (       1 calls)
     forces       :      4.42s CPU      4.92s WALL (       1 calls)
     stress       :     49.79s CPU     51.27s WALL (       1 calls)

     Called by init_run:
     wfcinit      :     91.91s CPU     92.34s WALL (       1 calls)
     potinit      :      1.42s CPU      1.44s WALL (       1 calls)
     hinit0       :      4.06s CPU      4.08s WALL (       1 calls)

     Called by electrons:
     c_bands      :   1289.56s CPU   1307.66s WALL (      30 calls)
     sum_band     :     90.13s CPU    103.19s WALL (      30 calls)
     v_of_rho     :      4.07s CPU      4.11s WALL (      31 calls)
     newd         :     23.32s CPU     34.06s WALL (      31 calls)
     mix_rho      :     24.30s CPU     24.47s WALL (      30 calls)

     Called by c_bands:
     init_us_2    :      3.15s CPU      3.19s WALL (    1575 calls)
     cegterg      :   1263.14s CPU   1280.60s WALL (     750 calls)

     Called by sum_band:
     sum_band:bec :      0.21s CPU      0.21s WALL (     750 calls)
     addusdens    :     16.75s CPU     29.02s WALL (      30 calls)

     Called by *egterg:
     h_psi        :    280.50s CPU    289.73s WALL (    3778 calls)
     s_psi        :     19.65s CPU     19.93s WALL (    3778 calls)
     g_psi        :      0.57s CPU      0.58s WALL (    3003 calls)
     cdiaghg      :    858.88s CPU    861.75s WALL (    3753 calls)

     Called by h_psi:
     h_psi:calbec :     40.64s CPU     41.81s WALL (    3778 calls)
     vloc_psi     :    218.05s CPU    220.91s WALL (    3778 calls)
     add_vuspsi   :     20.67s CPU     23.66s WALL (    3778 calls)

     General routines
     calbec       :     86.23s CPU     87.56s WALL (    4653 calls)
     fft          :      6.20s CPU      6.23s WALL (     426 calls)
     ffts         :     10.15s CPU     10.23s WALL (   11958 calls)
     fftw         :    247.60s CPU    250.70s WALL (  543444 calls)
     interpolate  :      0.79s CPU      0.79s WALL (      31 calls)
 
     Parallel routines
     fft_scatt_xy :     20.06s CPU     20.38s WALL (  555828 calls)
     fft_scatt_yz :    192.23s CPU    194.36s WALL (  555828 calls)
 
     PWSCF        :  26m26.65s CPU  27m11.33s WALL

 
   This run was terminated on:  17:42:24   5May2021            

=------------------------------------------------------------------------------=
   JOB DONE.
=------------------------------------------------------------------------------=
[1620250945.460915] [holy7c04406:105483:0]          mpool.c:43   UCX  WARN  object 0x3b11480 was not returned to mpool ucp_requests
[1620250945.460928] [holy7c04406:105483:0]          mpool.c:43   UCX  WARN  object 0x3b11800 was not returned to mpool ucp_requests
[1620250945.470056] [holy7c06511:44597:0]          mpool.c:43   UCX  WARN  object 0x34582c0 was not returned to mpool ucp_requests
[1620250945.470099] [holy7c06511:44597:0]          mpool.c:43   UCX  WARN  object 0x3458480 was not returned to mpool ucp_requests
[1620250945.472253] [holy7c06511:44599:0]          mpool.c:43   UCX  WARN  object 0x3434b00 was not returned to mpool ucp_requests
[1620250945.478898] [holy7c06502:52221:0]          mpool.c:43   UCX  WARN  object 0x2912140 was not returned to mpool ucp_requests
[1620250945.480825] [holy7c06502:52225:0]          mpool.c:43   UCX  WARN  object 0x2abf900 was not returned to mpool ucp_requests
[1620250945.480848] [holy7c06502:52225:0]          mpool.c:43   UCX  WARN  object 0x2ac01c0 was not returned to mpool ucp_requests
[1620250945.483938] [holy7c06511:44598:0]          mpool.c:43   UCX  WARN  object 0x4567640 was not returned to mpool ucp_requests
