
     Program PWSCF v.6.5 starts on  5May2021 at 17:23:47 

     This program is part of the open-source Quantum ESPRESSO suite
     for quantum simulation of materials; please cite
         "P. Giannozzi et al., J. Phys.:Condens. Matter 21 395502 (2009);
         "P. Giannozzi et al., J. Phys.:Condens. Matter 29 465901 (2017);
          URL http://www.quantum-espresso.org", 
     in publications or presentations arising from this work. More details at
     http://www.quantum-espresso.org/quote

     Parallel version (MPI), running on    20 processors

     MPI processes distributed on    17 nodes
     R & G space division:  proc/nbgrp/npool/nimage =      20
     Reading input from YBCO_Y_cleave_1.0_sep_scf.pwi
Warning: card &IONS ignored
Warning: card     ION_DYNAMICS = 'BFGS' ignored
Warning: card / ignored
Warning: card &CELL ignored
Warning: card     CELL_DYNAMICS = 'BFGS' ignored
Warning: card / ignored

     Current dimensions of program PWSCF are:
     Max number of different atomic species (ntypx) = 10
     Max number of k-points (npk) =  40000
     Max angular momentum in pseudopotentials (lmaxx) =  3

     Subspace diagonalization in iterative solution of the eigenvalue problem:
     one sub-group per band group will be used
     scalapack distributed-memory algorithm (size of sub-group:  4*  4 procs)

     Message from routine setup:
     using ibrav=0 with symmetry is DISCOURAGED, use correct ibrav instead
 
     Parallelization info
     --------------------
     sticks:   dense  smooth     PW     G-vecs:    dense   smooth      PW
     Min         150      50     14                72684    13980    2180
     Max         151      51     15                72723    14005    2227
     Sum        3015    1011    293              1454061   279771   44085
 


     bravais-lattice index     =            0
     lattice parameter (alat)  =       7.3477  a.u.
     unit-cell volume          =    4456.2979 (a.u.)^3
     number of atoms/cell      =           28
     number of atomic types    =            4
     number of electrons       =       229.00
     number of Kohn-Sham states=          138
     kinetic-energy cutoff     =      60.0000  Ry
     charge density cutoff     =     720.0000  Ry
     convergence threshold     =      1.0E-06
     mixing beta               =       0.2000
     number of iterations used =           10  local-TF  mixing
     Exchange-correlation= SLA PW PBE PBE
                           (   1   4   3   4   0   0   0)

     celldm(1)=   7.347715  celldm(2)=   0.000000  celldm(3)=   0.000000
     celldm(4)=   0.000000  celldm(5)=   0.000000  celldm(6)=   0.000000

     crystal axes: (cart. coord. in units of alat)
               a(1) = (   1.000000   0.000000   0.000000 )  
               a(2) = (   0.000000   0.975577   0.000000 )  
               a(3) = (   0.000000   0.000000  11.514779 )  

     reciprocal axes: (cart. coord. in units 2 pi/alat)
               b(1) = (  1.000000  0.000000  0.000000 )  
               b(2) = (  0.000000  1.025034  0.000000 )  
               b(3) = (  0.000000  0.000000  0.086845 )  


     PseudoPot. # 1 for Ba read from file:
     /n/holyscratch01/hoffman_lab/ruizhe/YBCO_Project/pseudo/Ba.pbe-nsp-van.UPF
     MD5 check sum: 2b9c31dd849566dd297d80989662b7a0
     Pseudo is Ultrasoft + core correction, Zval = 10.0
     Generated by new atomic code, or converted to UPF format
     Using radial grid of  907 points,  6 beta functions with: 
                l(1) =   0
                l(2) =   0
                l(3) =   1
                l(4) =   1
                l(5) =   2
                l(6) =   2
     Q(r) pseudized with  6 coefficients,  rinner =    1.200   1.200   1.200
                                                       1.200   1.200

     PseudoPot. # 2 for Cu read from file:
     /n/holyscratch01/hoffman_lab/ruizhe/YBCO_Project/pseudo/Cu.pbe-n-van_ak.UPF
     MD5 check sum: 34e3282627ffb533726feb647e090d62
     Pseudo is Ultrasoft + core correction, Zval = 11.0
     Generated by new atomic code, or converted to UPF format
     Using radial grid of  867 points,  6 beta functions with: 
                l(1) =   0
                l(2) =   0
                l(3) =   1
                l(4) =   1
                l(5) =   2
                l(6) =   2
     Q(r) pseudized with  8 coefficients,  rinner =    1.400   1.400   1.400
                                                       1.400   1.400

     PseudoPot. # 3 for O  read from file:
     /n/holyscratch01/hoffman_lab/ruizhe/YBCO_Project/pseudo/O.pbe-van_ak.UPF
     MD5 check sum: 783ce7fe4c79b6a4916957118fed0856
     Pseudo is Ultrasoft, Zval =  6.0
     Generated by new atomic code, or converted to UPF format
     Using radial grid of  737 points,  4 beta functions with: 
                l(1) =   0
                l(2) =   0
                l(3) =   1
                l(4) =   1
     Q(r) pseudized with  8 coefficients,  rinner =    0.800   0.800   0.800


     PseudoPot. # 4 for Y  read from file:
     /n/holyscratch01/hoffman_lab/ruizhe/YBCO_Project/pseudo/Y.pbe-nsp-van.UPF
     MD5 check sum: 4412fed3ab108fed87a1b7d6a69a4a38
     Pseudo is Ultrasoft + core correction, Zval = 11.0
     Generated by new atomic code, or converted to UPF format
     Using radial grid of  885 points,  6 beta functions with: 
                l(1) =   0
                l(2) =   0
                l(3) =   1
                l(4) =   1
                l(5) =   2
                l(6) =   2
     Q(r) pseudized with  6 coefficients,  rinner =    1.200   1.200   1.200
                                                       1.200   1.200

     atomic species   valence    mass     pseudopotential
        Ba            10.00   137.32700     Ba( 1.00)
        Cu            11.00    63.54600     Cu( 1.00)
        O              6.00    15.99900     O ( 1.00)
        Y             11.00    88.90584     Y ( 1.00)

      4 Sym. Ops. (no inversion) found



   Cartesian axes

     site n.     atom                  positions (alat units)
         1           O   tau(   1) = (   0.0000000   0.4877884  -0.0257983  )
         2           Cu  tau(   2) = (   0.0000000   0.0000000   0.0215779  )
         3           O   tau(   3) = (   0.0000000   0.0000000   0.5073114  )
         4           Ba  tau(   4) = (   0.4999996   0.4877884   0.5319677  )
         5           Cu  tau(   5) = (   0.0000000   0.0000000   1.0495845  )
         6           O   tau(   6) = (   0.4999996   0.0000000   1.1181579  )
         7           O   tau(   7) = (   0.0000000   0.4877884   1.1273137  )
         8           Y   tau(   8) = (   0.4999996   0.4877884   1.4938777  )
         9           O   tau(   9) = (   0.0000000   0.4877884   1.8497402  )
        10           O   tau(  10) = (   0.4999996   0.0000000   1.8692709  )
        11           Cu  tau(  11) = (   0.0000000   0.0000000   1.9417560  )
        12           Ba  tau(  12) = (   0.4999996   0.4877884   2.4526063  )
        13           O   tau(  13) = (   0.0000000   0.0000000   2.5103470  )
        14           O   tau(  14) = (   0.0000000   0.4877884   2.9968469  )
        15           Cu  tau(  15) = (   0.0000000   0.0000000   2.9968521  )
        16           O   tau(  16) = (   0.0000000   0.0000000   3.4833288  )
        17           Ba  tau(  17) = (   0.4999996   0.4877884   3.5410618  )
        18           Cu  tau(  18) = (   0.0000000   0.0000000   4.0519352  )
        19           O   tau(  19) = (   0.4999996   0.0000000   4.1244075  )
        20           O   tau(  20) = (   0.0000000   0.4877884   4.1439202  )
        21           Y   tau(  21) = (   0.4999996   0.4877884   4.4997853  )
        22           O   tau(  22) = (   0.0000000   0.4877884   5.1235348  )
        23           O   tau(  23) = (   0.4999996   0.0000000   5.1327035  )
        24           Cu  tau(  24) = (   0.0000000   0.0000000   5.2012820  )
        25           Ba  tau(  25) = (   0.4999996   0.4877884   5.7188833  )
        26           O   tau(  26) = (   0.0000000   0.0000000   5.7435397  )
        27           Cu  tau(  27) = (   0.0000000   0.0000000   6.2292449  )
        28           O   tau(  28) = (   0.0000000   0.4877884   6.2766262  )

     number of k points=    25  Gaussian smearing, width (Ry)=  0.0100
                       cart. coord. in units 2pi/alat
        k(    1) = (   0.0000000   0.0000000   0.0000000), wk =   0.0312500
        k(    2) = (   0.0000000   0.1281293   0.0000000), wk =   0.0625000
        k(    3) = (   0.0000000   0.2562585   0.0000000), wk =   0.0625000
        k(    4) = (   0.0000000   0.3843878   0.0000000), wk =   0.0625000
        k(    5) = (   0.0000000  -0.5125170   0.0000000), wk =   0.0312500
        k(    6) = (   0.1250000   0.0000000   0.0000000), wk =   0.0625000
        k(    7) = (   0.1250000   0.1281293   0.0000000), wk =   0.1250000
        k(    8) = (   0.1250000   0.2562585   0.0000000), wk =   0.1250000
        k(    9) = (   0.1250000   0.3843878   0.0000000), wk =   0.1250000
        k(   10) = (   0.1250000  -0.5125170   0.0000000), wk =   0.0625000
        k(   11) = (   0.2500000   0.0000000   0.0000000), wk =   0.0625000
        k(   12) = (   0.2500000   0.1281293   0.0000000), wk =   0.1250000
        k(   13) = (   0.2500000   0.2562585   0.0000000), wk =   0.1250000
        k(   14) = (   0.2500000   0.3843878   0.0000000), wk =   0.1250000
        k(   15) = (   0.2500000  -0.5125170   0.0000000), wk =   0.0625000
        k(   16) = (   0.3750000   0.0000000   0.0000000), wk =   0.0625000
        k(   17) = (   0.3750000   0.1281293   0.0000000), wk =   0.1250000
        k(   18) = (   0.3750000   0.2562585   0.0000000), wk =   0.1250000
        k(   19) = (   0.3750000   0.3843878   0.0000000), wk =   0.1250000
        k(   20) = (   0.3750000  -0.5125170   0.0000000), wk =   0.0625000
        k(   21) = (  -0.5000000   0.0000000   0.0000000), wk =   0.0312500
        k(   22) = (  -0.5000000   0.1281293   0.0000000), wk =   0.0625000
        k(   23) = (  -0.5000000   0.2562585   0.0000000), wk =   0.0625000
        k(   24) = (  -0.5000000   0.3843878   0.0000000), wk =   0.0625000
        k(   25) = (  -0.5000000  -0.5125170   0.0000000), wk =   0.0312500

     Dense  grid:  1454061 G-vectors     FFT dimensions: (  64,  64, 729)

     Smooth grid:   279771 G-vectors     FFT dimensions: (  40,  36, 432)

     Estimated max dynamical RAM per process >     464.48 MB

     Estimated total dynamical RAM >       9.07 GB

     Initial potential from superposition of free atoms

     starting charge  228.84827, renormalised to  229.00000

     negative rho (up, down):  8.981E-02 0.000E+00
     Starting wfcs are  201 randomized atomic wfcs

     total cpu time spent up to now is       11.1 secs

     Self-consistent Calculation

     iteration #  1     ecut=    60.00 Ry     beta= 0.20
     Davidson diagonalization with overlap
     ethr =  1.00E-02,  avg # of iterations =  2.0

     negative rho (up, down):  8.743E-02 0.000E+00

     total cpu time spent up to now is       29.0 secs

     total energy              =   -1869.47895124 Ry
     Harris-Foulkes estimate   =   -1871.02688772 Ry
     estimated scf accuracy    <      13.70162900 Ry

     iteration #  2     ecut=    60.00 Ry     beta= 0.20
     Davidson diagonalization with overlap
     ethr =  5.98E-03,  avg # of iterations =  1.0

     negative rho (up, down):  8.597E-02 0.000E+00

     total cpu time spent up to now is       44.9 secs

     total energy              =   -1868.95461677 Ry
     Harris-Foulkes estimate   =   -1869.81737464 Ry
     estimated scf accuracy    <       6.09691731 Ry

     iteration #  3     ecut=    60.00 Ry     beta= 0.20
     Davidson diagonalization with overlap
     ethr =  2.66E-03,  avg # of iterations =  1.0

     negative rho (up, down):  8.516E-02 0.000E+00

     total cpu time spent up to now is       60.9 secs

     total energy              =   -1868.62585664 Ry
     Harris-Foulkes estimate   =   -1869.16741183 Ry
     estimated scf accuracy    <       4.01068740 Ry

     iteration #  4     ecut=    60.00 Ry     beta= 0.20
     Davidson diagonalization with overlap
     ethr =  1.75E-03,  avg # of iterations =  1.4

     negative rho (up, down):  8.504E-02 0.000E+00

     total cpu time spent up to now is       77.2 secs

     total energy              =   -1868.86879089 Ry
     Harris-Foulkes estimate   =   -1868.87688523 Ry
     estimated scf accuracy    <       4.36502900 Ry

     iteration #  5     ecut=    60.00 Ry     beta= 0.20
     Davidson diagonalization with overlap
     ethr =  1.75E-03,  avg # of iterations =  1.0

     negative rho (up, down):  8.562E-02 0.000E+00

     total cpu time spent up to now is       93.2 secs

     total energy              =   -1868.74516139 Ry
     Harris-Foulkes estimate   =   -1868.88698929 Ry
     estimated scf accuracy    <       3.97656166 Ry

     iteration #  6     ecut=    60.00 Ry     beta= 0.20
     Davidson diagonalization with overlap
     ethr =  1.74E-03,  avg # of iterations =  1.0

     negative rho (up, down):  8.652E-02 0.000E+00

     total cpu time spent up to now is      109.0 secs

     total energy              =   -1868.69541003 Ry
     Harris-Foulkes estimate   =   -1868.78666482 Ry
     estimated scf accuracy    <       1.94439121 Ry

     iteration #  7     ecut=    60.00 Ry     beta= 0.20
     Davidson diagonalization with overlap
     ethr =  8.49E-04,  avg # of iterations =  1.0

     negative rho (up, down):  8.706E-02 0.000E+00

     total cpu time spent up to now is      124.8 secs

     total energy              =   -1868.69345783 Ry
     Harris-Foulkes estimate   =   -1868.72867854 Ry
     estimated scf accuracy    <       0.34997713 Ry

     iteration #  8     ecut=    60.00 Ry     beta= 0.20
     Davidson diagonalization with overlap
     ethr =  1.53E-04,  avg # of iterations =  7.6

     negative rho (up, down):  8.837E-02 0.000E+00

     total cpu time spent up to now is      149.7 secs

     total energy              =   -1868.65872241 Ry
     Harris-Foulkes estimate   =   -1868.70429003 Ry
     estimated scf accuracy    <       0.25840904 Ry

     iteration #  9     ecut=    60.00 Ry     beta= 0.20
     Davidson diagonalization with overlap
     ethr =  1.13E-04,  avg # of iterations =  4.1

     negative rho (up, down):  8.914E-02 0.000E+00

     total cpu time spent up to now is      168.6 secs

     total energy              =   -1868.67318725 Ry
     Harris-Foulkes estimate   =   -1868.67948694 Ry
     estimated scf accuracy    <       0.52506197 Ry

     iteration # 10     ecut=    60.00 Ry     beta= 0.20
     Davidson diagonalization with overlap
     ethr =  1.13E-04,  avg # of iterations =  2.4

     negative rho (up, down):  8.917E-02 0.000E+00

     total cpu time spent up to now is      185.6 secs

     total energy              =   -1868.67156683 Ry
     Harris-Foulkes estimate   =   -1868.68077655 Ry
     estimated scf accuracy    <       0.36912118 Ry

     iteration # 11     ecut=    60.00 Ry     beta= 0.20
     Davidson diagonalization with overlap
     ethr =  1.13E-04,  avg # of iterations =  1.0

     negative rho (up, down):  8.956E-02 0.000E+00

     total cpu time spent up to now is      200.9 secs

     total energy              =   -1868.66690642 Ry
     Harris-Foulkes estimate   =   -1868.67403408 Ry
     estimated scf accuracy    <       0.13561547 Ry

     iteration # 12     ecut=    60.00 Ry     beta= 0.20
     Davidson diagonalization with overlap
     ethr =  5.92E-05,  avg # of iterations =  2.3

     negative rho (up, down):  8.967E-02 0.000E+00

     total cpu time spent up to now is      217.7 secs

     total energy              =   -1868.66757809 Ry
     Harris-Foulkes estimate   =   -1868.66945498 Ry
     estimated scf accuracy    <       0.10613156 Ry

     iteration # 13     ecut=    60.00 Ry     beta= 0.20
     Davidson diagonalization with overlap
     ethr =  4.63E-05,  avg # of iterations =  1.3

     negative rho (up, down):  8.966E-02 0.000E+00

     total cpu time spent up to now is      233.4 secs

     total energy              =   -1868.66524094 Ry
     Harris-Foulkes estimate   =   -1868.66812227 Ry
     estimated scf accuracy    <       0.04966981 Ry

     iteration # 14     ecut=    60.00 Ry     beta= 0.20
     Davidson diagonalization with overlap
     ethr =  2.17E-05,  avg # of iterations =  6.6

     negative rho (up, down):  8.938E-02 0.000E+00

     total cpu time spent up to now is      256.5 secs

     total energy              =   -1868.66398044 Ry
     Harris-Foulkes estimate   =   -1868.66595544 Ry
     estimated scf accuracy    <       0.02595622 Ry

     iteration # 15     ecut=    60.00 Ry     beta= 0.20
     Davidson diagonalization with overlap
     ethr =  1.13E-05,  avg # of iterations =  2.9

     negative rho (up, down):  8.931E-02 0.000E+00

     total cpu time spent up to now is      274.3 secs

     total energy              =   -1868.66422927 Ry
     Harris-Foulkes estimate   =   -1868.66451277 Ry
     estimated scf accuracy    <       0.02143211 Ry

     iteration # 16     ecut=    60.00 Ry     beta= 0.20
     Davidson diagonalization with overlap
     ethr =  9.36E-06,  avg # of iterations =  1.0

     negative rho (up, down):  8.924E-02 0.000E+00

     total cpu time spent up to now is      289.9 secs

     total energy              =   -1868.66419874 Ry
     Harris-Foulkes estimate   =   -1868.66437225 Ry
     estimated scf accuracy    <       0.01886714 Ry

     iteration # 17     ecut=    60.00 Ry     beta= 0.20
     Davidson diagonalization with overlap
     ethr =  8.24E-06,  avg # of iterations =  1.0

     negative rho (up, down):  8.917E-02 0.000E+00

     total cpu time spent up to now is      305.3 secs

     total energy              =   -1868.66319945 Ry
     Harris-Foulkes estimate   =   -1868.66423843 Ry
     estimated scf accuracy    <       0.01837838 Ry

     iteration # 18     ecut=    60.00 Ry     beta= 0.20
     Davidson diagonalization with overlap
     ethr =  8.03E-06,  avg # of iterations =  1.7

     negative rho (up, down):  9.396E-02 0.000E+00

     total cpu time spent up to now is      321.6 secs

     total energy              =   -1868.66155384 Ry
     Harris-Foulkes estimate   =   -1868.66326353 Ry
     estimated scf accuracy    <       0.01498595 Ry

     iteration # 19     ecut=    60.00 Ry     beta= 0.20
     Davidson diagonalization with overlap
     c_bands:  1 eigenvalues not converged
     ethr =  6.54E-06,  avg # of iterations =  8.4

     negative rho (up, down):  9.423E-02 0.000E+00

     total cpu time spent up to now is      347.2 secs

     total energy              =   -1868.66114630 Ry
     Harris-Foulkes estimate   =   -1868.66190824 Ry
     estimated scf accuracy    <       0.00878085 Ry

     iteration # 20     ecut=    60.00 Ry     beta= 0.20
     Davidson diagonalization with overlap
     ethr =  3.83E-06,  avg # of iterations =  4.6

     negative rho (up, down):  1.015E-01 0.000E+00

     total cpu time spent up to now is      367.3 secs

     total energy              =   -1868.66069768 Ry
     Harris-Foulkes estimate   =   -1868.66133537 Ry
     estimated scf accuracy    <       0.00709045 Ry

     iteration # 21     ecut=    60.00 Ry     beta= 0.20
     Davidson diagonalization with overlap
     ethr =  3.10E-06,  avg # of iterations =  6.5

     negative rho (up, down):  1.031E-01 0.000E+00

     total cpu time spent up to now is      390.6 secs

     total energy              =   -1868.65980394 Ry
     Harris-Foulkes estimate   =   -1868.66075494 Ry
     estimated scf accuracy    <       0.00473568 Ry

     iteration # 22     ecut=    60.00 Ry     beta= 0.20
     Davidson diagonalization with overlap
     ethr =  2.07E-06,  avg # of iterations =  9.0

     negative rho (up, down):  1.048E-01 0.000E+00

     total cpu time spent up to now is      417.5 secs

     total energy              =   -1868.65977098 Ry
     Harris-Foulkes estimate   =   -1868.65996001 Ry
     estimated scf accuracy    <       0.00289891 Ry

     iteration # 23     ecut=    60.00 Ry     beta= 0.20
     Davidson diagonalization with overlap
     ethr =  1.27E-06,  avg # of iterations =  6.9

     negative rho (up, down):  9.484E-02 0.000E+00

     total cpu time spent up to now is      441.3 secs

     total energy              =   -1868.65957684 Ry
     Harris-Foulkes estimate   =   -1868.65982275 Ry
     estimated scf accuracy    <       0.00105828 Ry

     iteration # 24     ecut=    60.00 Ry     beta= 0.20
     Davidson diagonalization with overlap
     c_bands:  1 eigenvalues not converged
     ethr =  4.62E-07,  avg # of iterations =  7.6

     negative rho (up, down):  9.497E-02 0.000E+00

     total cpu time spent up to now is      466.1 secs

     total energy              =   -1868.65963933 Ry
     Harris-Foulkes estimate   =   -1868.65962895 Ry
     estimated scf accuracy    <       0.00136760 Ry

     iteration # 25     ecut=    60.00 Ry     beta= 0.20
     Davidson diagonalization with overlap
     ethr =  4.62E-07,  avg # of iterations =  4.2

     negative rho (up, down):  9.261E-02 0.000E+00

     total cpu time spent up to now is      486.1 secs

     total energy              =   -1868.65961809 Ry
     Harris-Foulkes estimate   =   -1868.65965272 Ry
     estimated scf accuracy    <       0.00057562 Ry

     iteration # 26     ecut=    60.00 Ry     beta= 0.20
     Davidson diagonalization with overlap
     ethr =  2.51E-07,  avg # of iterations =  3.6

     negative rho (up, down):  9.014E-02 0.000E+00

     total cpu time spent up to now is      505.0 secs

     total energy              =   -1868.65960194 Ry
     Harris-Foulkes estimate   =   -1868.65962323 Ry
     estimated scf accuracy    <       0.00027188 Ry

     iteration # 27     ecut=    60.00 Ry     beta= 0.20
     Davidson diagonalization with overlap
     c_bands:  1 eigenvalues not converged
     c_bands:  1 eigenvalues not converged
     c_bands:  1 eigenvalues not converged
     ethr =  1.19E-07,  avg # of iterations =  6.7

     negative rho (up, down):  9.051E-02 0.000E+00

     total cpu time spent up to now is      528.2 secs

     total energy              =   -1868.65956124 Ry
     Harris-Foulkes estimate   =   -1868.65961076 Ry
     estimated scf accuracy    <       0.00011263 Ry

     iteration # 28     ecut=    60.00 Ry     beta= 0.20
     Davidson diagonalization with overlap
     ethr =  4.92E-08,  avg # of iterations =  4.9

     negative rho (up, down):  9.041E-02 0.000E+00

     total cpu time spent up to now is      550.9 secs

     total energy              =   -1868.65958238 Ry
     Harris-Foulkes estimate   =   -1868.65957340 Ry
     estimated scf accuracy    <       0.00009053 Ry

     iteration # 29     ecut=    60.00 Ry     beta= 0.20
     Davidson diagonalization with overlap
     ethr =  3.95E-08,  avg # of iterations =  1.3

     negative rho (up, down):  9.043E-02 0.000E+00

     total cpu time spent up to now is      566.6 secs

     total energy              =   -1868.65959599 Ry
     Harris-Foulkes estimate   =   -1868.65958457 Ry
     estimated scf accuracy    <       0.00002527 Ry

     iteration # 30     ecut=    60.00 Ry     beta= 0.20
     Davidson diagonalization with overlap
     ethr =  1.10E-08,  avg # of iterations =  2.5

     negative rho (up, down):  9.017E-02 0.000E+00

     total cpu time spent up to now is      582.6 secs

     total energy              =   -1868.65960854 Ry
     Harris-Foulkes estimate   =   -1868.65959673 Ry
     estimated scf accuracy    <       0.00001796 Ry

     iteration # 31     ecut=    60.00 Ry     beta= 0.20
     Davidson diagonalization with overlap
     ethr =  7.84E-09,  avg # of iterations =  3.8

     negative rho (up, down):  9.017E-02 0.000E+00

     total cpu time spent up to now is      601.1 secs

     total energy              =   -1868.65960944 Ry
     Harris-Foulkes estimate   =   -1868.65960944 Ry
     estimated scf accuracy    <       0.00000442 Ry

     iteration # 32     ecut=    60.00 Ry     beta= 0.20
     Davidson diagonalization with overlap
     ethr =  1.93E-09,  avg # of iterations =  2.2

     negative rho (up, down):  9.023E-02 0.000E+00

     total cpu time spent up to now is      619.2 secs

     total energy              =   -1868.65960941 Ry
     Harris-Foulkes estimate   =   -1868.65960986 Ry
     estimated scf accuracy    <       0.00000188 Ry

     iteration # 33     ecut=    60.00 Ry     beta= 0.20
     Davidson diagonalization with overlap
     ethr =  8.22E-10,  avg # of iterations =  1.0

     negative rho (up, down):  9.024E-02 0.000E+00

     total cpu time spent up to now is      634.6 secs

     total energy              =   -1868.65960941 Ry
     Harris-Foulkes estimate   =   -1868.65960947 Ry
     estimated scf accuracy    <       0.00000135 Ry

     iteration # 34     ecut=    60.00 Ry     beta= 0.20
     Davidson diagonalization with overlap
     ethr =  5.89E-10,  avg # of iterations =  1.4

     negative rho (up, down):  9.017E-02 0.000E+00

     total cpu time spent up to now is      650.1 secs

     End of self-consistent calculation

          k = 0.0000 0.0000 0.0000 ( 34859 PWs)   bands (ev):

   -40.2619 -37.9207 -22.7766 -22.5766 -22.4243 -22.3779 -20.2946 -20.1764
   -20.1696 -18.4557 -17.9255 -17.9154 -15.7569 -15.2519 -14.8578 -14.4774
   -14.3753 -14.2907 -14.0622 -14.0407 -14.0374 -13.7757 -13.5605 -13.5428
   -13.4063 -13.2498 -13.1920  -8.0845  -7.7976  -7.7134  -7.7028  -7.6967
    -7.5691  -7.5422  -7.5242  -7.3936  -7.3775  -7.3633  -7.3595  -2.5589
    -2.5370  -2.0963  -1.8805  -1.8476  -1.7927  -1.6976  -1.6607  -1.6465
    -1.5935  -1.5152  -1.1340  -1.0130  -0.9103  -0.6838  -0.6209  -0.5980
    -0.4302  -0.3338  -0.2611  -0.2604  -0.1594  -0.0186   0.0940   0.1288
     0.1584   0.1653   0.1837   0.1966   0.3223   0.3300   0.3446   0.3630
     0.3686   0.4251   0.4825   0.4897   0.5528   0.5947   0.6013   0.6121
     0.7170   0.7325   0.7348   0.7429   0.7457   0.8043   0.8092   0.8596
     0.8614   0.8767   1.1310   1.2018   1.3014   1.3047   1.4314   1.4893
     1.5232   1.5630   1.5954   1.6446   1.6505   1.6900   1.7021   1.9397
     2.0427   2.0825   2.1356   2.1633   2.1842   2.3414   2.3829   2.4255
     2.5025   2.5338   2.5881   2.6108   2.6117   2.8539   2.8697   4.1046
     5.4715   5.5366   5.8621   6.0868   6.2755   6.5295   6.5853   6.8813
     7.0748   7.2521   7.4054   7.7899   7.8151   7.8410   8.3492   8.3775
     8.4329   8.5323

          k = 0.0000 0.1281 0.0000 ( 34895 PWs)   bands (ev):

   -40.2601 -37.9184 -22.7559 -22.5550 -22.4035 -22.3561 -20.3032 -20.1998
   -20.1672 -18.4198 -18.0197 -17.9223 -15.7076 -15.1434 -14.8738 -14.4283
   -14.3330 -14.2967 -14.0711 -14.0448 -14.0068 -13.8222 -13.5658 -13.5489
   -13.4649 -13.3144 -13.2248  -8.0732  -7.7805  -7.7269  -7.6807  -7.6753
    -7.5617  -7.5278  -7.5066  -7.3837  -7.3794  -7.3516  -7.3386  -2.6748
    -2.5116  -2.0178  -1.9847  -1.9564  -1.8312  -1.7723  -1.6993  -1.6623
    -1.5204  -1.4997  -1.3218  -1.1722  -1.1081  -0.8840  -0.7801  -0.7762
    -0.6873  -0.6219  -0.5247  -0.4516  -0.2783  -0.2335  -0.1954  -0.1115
     0.0055   0.0200   0.0699   0.0772   0.0960   0.1039   0.1850   0.2512
     0.3537   0.4505   0.4917   0.4924   0.5954   0.6394   0.6440   0.7244
     0.7424   0.7432   0.7666   0.7815   0.7913   0.8082   0.8295   0.9283
     1.0463   1.0569   1.1172   1.1481   1.2445   1.3583   1.3798   1.4523
     1.6521   1.6818   1.7180   1.7525   1.7941   1.8390   1.8965   1.9119
     1.9248   2.0309   2.0863   2.0944   2.1602   2.2811   2.3190   2.4143
     2.4621   2.5381   2.6297   2.7519   3.1267   3.2055   3.2154   4.3160
     5.8474   5.8882   6.1179   6.2274   6.4044   6.4512   6.6926   7.1990
     7.3343   7.4850   7.6516   7.8442   7.8820   8.0661   8.3171   8.5130
     8.6828   8.7566

          k = 0.0000 0.2563 0.0000 ( 34926 PWs)   bands (ev):

   -40.2559 -37.9128 -22.7050 -22.5019 -22.3523 -22.3024 -20.3689 -20.2084
   -20.1615 -18.3287 -18.2447 -17.9146 -15.5756 -14.9326 -14.8959 -14.3753
   -14.3250 -14.2138 -14.1271 -14.0538 -13.9402 -13.8892 -13.6060 -13.5431
   -13.5279 -13.4693 -13.3216  -8.0444  -7.7680  -7.7394  -7.6524  -7.6028
    -7.5804  -7.4635  -7.4270  -7.4246  -7.4228  -7.2465  -7.2414  -2.9498
    -2.4143  -2.3684  -2.2901  -2.1488  -2.0070  -1.8282  -1.8117  -1.7408
    -1.7231  -1.6900  -1.5412  -1.5323  -1.4491  -1.4469  -1.1429  -1.0016
    -0.8757  -0.7994  -0.7399  -0.6888  -0.5892  -0.5391  -0.4093  -0.3846
    -0.3567  -0.2864  -0.1982  -0.1511  -0.1224  -0.0987  -0.0751   0.0149
     0.1487   0.1573   0.2786   0.3062   0.3601   0.5206   0.5264   0.5840
     0.7415   0.7482   0.7803   0.7963   0.8427   0.8537   0.9718   1.2034
     1.2186   1.3760   1.3907   1.3989   1.4684   1.5591   1.5696   1.6000
     1.6864   1.7096   1.7441   1.7685   1.8183   1.8233   1.9546   1.9691
     2.0017   2.0380   2.1141   2.2080   2.2375   2.3627   2.4612   2.4733
     2.5753   2.5934   2.6980   2.8856   3.4842   3.5311   4.0032   4.7716
     6.1830   6.3389   6.7433   6.7567   6.7883   6.9937   7.0187   7.7364
     7.9538   8.0512   8.1871   8.2181   8.2595   8.3984   8.6043   8.8852
     8.9784   9.0869

          k = 0.0000 0.3844 0.0000 ( 34832 PWs)   bands (ev):

   -40.2516 -37.9072 -22.6528 -22.4474 -22.2998 -22.2472 -20.4573 -20.1904
   -20.1558 -18.4426 -18.2305 -17.9068 -15.3989 -15.0455 -14.6473 -14.5173
   -14.3263 -14.2335 -14.0682 -13.9274 -13.9065 -13.8899 -13.7538 -13.6185
   -13.4841 -13.4832 -13.4676  -8.0110  -7.8056  -7.6994  -7.6360  -7.6193
    -7.4808  -7.4631  -7.4630  -7.4190  -7.3155  -7.1392  -7.1352  -3.2061
    -2.8598  -2.7653  -2.5439  -2.4537  -2.3681  -2.2831  -2.1269  -1.8464
    -1.8011  -1.7197  -1.6961  -1.5123  -1.4840  -1.3526  -1.3446  -1.2657
    -1.1138  -1.0744  -0.8399  -0.6788  -0.6551  -0.6455  -0.6401  -0.6035
    -0.5636  -0.5113  -0.5113  -0.3923  -0.3619  -0.3094  -0.2359  -0.2217
    -0.0950  -0.0830   0.0923   0.1105   0.1610   0.2917   0.3417   0.6343
     0.7390   0.7733   0.8203   0.8407   0.8661   0.9137   1.1960   1.3026
     1.3597   1.3834   1.4603   1.4603   1.5009   1.5568   1.5897   1.6507
     1.6629   1.7826   1.7911   1.8278   1.8582   2.0095   2.0675   2.1132
     2.1827   2.2558   2.3206   2.3332   2.4223   2.4306   2.6255   2.6393
     2.6798   2.8402   2.8687   2.8806   3.4552   3.4979   4.5689   5.3322
     5.9633   6.3887   6.9721   7.4724   7.6373   7.7609   7.8421   8.0094
     8.0587   8.0746   8.5823   8.8487   9.0214   9.0561   9.1393   9.2593
     9.4067   9.4828

          k = 0.0000-0.5125 0.0000 ( 34942 PWs)   bands (ev):

   -40.2498 -37.9049 -22.6308 -22.4244 -22.2776 -22.2239 -20.4949 -20.1810
   -20.1534 -18.5185 -18.1874 -17.9036 -15.2460 -15.1747 -14.5985 -14.5159
   -14.3602 -14.2992 -13.9805 -13.8992 -13.8912 -13.8361 -13.7054 -13.6913
   -13.6734 -13.4529 -13.4361  -7.9945  -7.8221  -7.6832  -7.6475  -7.6026
    -7.4808  -7.4760  -7.4380  -7.4001  -7.2685  -7.0952  -7.0871  -3.3149
    -3.0903  -2.9164  -2.6790  -2.6665  -2.6000  -2.4711  -1.8605  -1.8588
    -1.8189  -1.7544  -1.7470  -1.7317  -1.5635  -1.3482  -1.3378  -1.2820
    -1.2213  -1.0465  -0.8994  -0.8286  -0.7911  -0.7622  -0.6761  -0.6030
    -0.5856  -0.4965  -0.4909  -0.4656  -0.4301  -0.4006  -0.3956  -0.3154
    -0.1820  -0.1723  -0.1155   0.0437   0.1076   0.1820   0.3517   0.7057
     0.7423   0.7454   0.8260   0.8331   0.8724   0.8970   1.2773   1.3142
     1.3899   1.3957   1.4386   1.4439   1.5217   1.5820   1.5986   1.6872
     1.7307   1.7352   1.7782   1.8038   2.0256   2.0542   2.1163   2.1907
     2.2320   2.2525   2.3362   2.4900   2.4938   2.6494   2.6734   2.7327
     2.7416   2.7688   3.0311   3.0417   3.3186   3.3630   4.7445   5.8119
     5.8818   6.1686   6.9137   7.7459   7.9591   8.0305   8.0320   8.1247
     8.2196   8.5276   8.5512   9.0508   9.1880   9.3963   9.4070   9.4245
     9.4474   9.5947

          k = 0.1250 0.0000 0.0000 ( 34894 PWs)   bands (ev):

   -40.2606 -37.9189 -22.7591 -22.5582 -22.4066 -22.3592 -20.3016 -20.1923
   -20.1746 -18.4232 -18.0257 -17.9129 -15.7075 -15.1363 -14.8729 -14.4356
   -14.4014 -14.3190 -14.1100 -14.0852 -14.0155 -13.8047 -13.5610 -13.5429
   -13.4615 -13.2777 -13.2259  -8.1074  -7.8080  -7.7452  -7.6714  -7.6467
    -7.5379  -7.5340  -7.5080  -7.3548  -7.3399  -7.3283  -7.3273  -2.6683
    -2.4942  -2.0233  -1.9700  -1.8897  -1.7982  -1.7480  -1.6928  -1.6439
    -1.5828  -1.5383  -1.2104  -1.1266  -0.9860  -0.6873  -0.6506  -0.6286
    -0.4809  -0.3894  -0.3447  -0.2556  -0.2549  -0.2360  -0.0932   0.0440
     0.0555   0.0652   0.0783   0.1418   0.1483   0.1585   0.2515   0.3352
     0.3486   0.3847   0.6020   0.6046   0.6101   0.6276   0.6304   0.6751
     0.7097   0.7266   0.7430   0.7530   0.7718   0.7772   0.8543   0.8638
     0.8756   0.9001   1.1371   1.1734   1.2012   1.2815   1.3657   1.4442
     1.4502   1.4511   1.6439   1.6638   1.6653   1.7375   1.8557   1.9199
     1.9800   2.0347   2.1587   2.1980   2.2688   2.3234   2.3296   2.4891
     2.5101   2.5527   2.5933   2.6144   2.6615   2.9123   2.9532   4.2805
     5.6673   5.7102   6.0066   6.2508   6.4220   6.4986   6.6193   7.1196
     7.2800   7.4231   7.5120   7.7813   7.8427   8.1163   8.3580   8.5056
     8.6759   8.7927

          k = 0.1250 0.1281 0.0000 ( 34902 PWs)   bands (ev):

   -40.2588 -37.9166 -22.7390 -22.5373 -22.3865 -22.3382 -20.3068 -20.2157
   -20.1753 -18.3878 -18.0293 -18.0081 -15.6597 -15.0287 -14.8850 -14.3909
   -14.3547 -14.3163 -14.1064 -14.0775 -13.9877 -13.8584 -13.5604 -13.5428
   -13.5037 -13.3310 -13.2551  -8.0926  -7.8481  -7.7943  -7.6977  -7.6813
    -7.5445  -7.5406  -7.4926  -7.4815  -7.3841  -7.2063  -7.2047  -2.7936
    -2.4710  -2.0829  -2.0323  -1.9339  -1.8307  -1.7569  -1.7396  -1.6790
    -1.6301  -1.4592  -1.3042  -1.1978  -1.1629  -1.0734  -0.8188  -0.7742
    -0.7713  -0.7287  -0.5844  -0.5593  -0.4399  -0.4090  -0.2463  -0.2240
    -0.1307  -0.0832  -0.0077   0.0830   0.1041   0.1436   0.1622   0.2778
     0.3637   0.4023   0.4676   0.4772   0.5466   0.5970   0.6509   0.6912
     0.6936   0.7075   0.7696   0.7949   0.7967   0.8391   0.9225   0.9889
     1.0454   1.0590   1.1167   1.1910   1.3292   1.3504   1.4114   1.4502
     1.5036   1.6636   1.6704   1.7282   1.7467   1.7665   1.9568   1.9703
     2.0039   2.0428   2.0996   2.1031   2.1396   2.2632   2.3112   2.4915
     2.5851   2.6971   2.9003   3.0604   3.1491   3.2172   3.2273   4.4287
     5.9936   6.0262   6.2013   6.3518   6.3653   6.5431   6.7768   7.4265
     7.5020   7.6199   7.6719   7.9003   8.0202   8.2215   8.3231   8.6666
     8.8360   8.9548

          k = 0.1250 0.2563 0.0000 ( 34954 PWs)   bands (ev):

   -40.2545 -37.9110 -22.6898 -22.4862 -22.3370 -22.2864 -20.3661 -20.2370
   -20.1628 -18.2979 -18.2402 -18.0100 -15.5321 -14.9333 -14.7838 -14.3603
   -14.3023 -14.2297 -14.1287 -14.0451 -13.9459 -13.9229 -13.6087 -13.5344
   -13.5197 -13.4641 -13.3411  -8.0579  -7.9555  -7.8056  -7.7396  -7.6686
    -7.6248  -7.6076  -7.4961  -7.4683  -7.3401  -7.1672  -7.1625  -3.0703
    -2.5145  -2.3933  -2.3124  -2.1409  -2.0262  -1.8315  -1.7889  -1.7411
    -1.7221  -1.7083  -1.6416  -1.5366  -1.5352  -1.3887  -1.3160  -1.1278
    -1.0301  -1.0226  -0.8023  -0.7573  -0.6126  -0.5977  -0.5657  -0.5090
    -0.3837  -0.3350  -0.2181  -0.1724  -0.0883  -0.0557  -0.0303   0.0080
     0.1412   0.1543   0.3194   0.3713   0.4084   0.4809   0.5863   0.6601
     0.6772   0.7075   0.7822   0.8103   0.8245   0.8304   1.1713   1.1834
     1.2036   1.3776   1.4058   1.4814   1.4929   1.5503   1.6183   1.6384
     1.6475   1.7539   1.8006   1.8137   1.8649   1.9138   1.9464   1.9495
     1.9679   2.0732   2.0736   2.3104   2.3637   2.4328   2.4494   2.5446
     2.7616   2.9271   3.1674   3.2455   3.4889   3.5429   4.0036   4.7952
     6.0589   6.4296   6.7833   6.7970   6.8408   7.0891   7.0995   7.6823
     7.8506   8.0371   8.2529   8.4045   8.4640   8.5551   8.7017   8.9258
     8.9915   9.1714

          k = 0.1250 0.3844 0.0000 ( 34953 PWs)   bands (ev):

   -40.2503 -37.9055 -22.6393 -22.4336 -22.2862 -22.2333 -20.4540 -20.2291
   -20.1471 -18.4366 -18.2011 -18.0002 -15.3625 -15.0329 -14.5455 -14.4721
   -14.2959 -14.2047 -14.0649 -13.9522 -13.8998 -13.8848 -13.7330 -13.5992
   -13.4896 -13.4802 -13.4618  -8.0251  -7.9709  -7.8102  -7.7094  -7.6611
    -7.6361  -7.6232  -7.5241  -7.4299  -7.3881  -7.2122  -7.2100  -3.3377
    -2.9095  -2.8172  -2.5945  -2.4641  -2.3579  -2.2918  -2.2583  -1.8515
    -1.7531  -1.7493  -1.6983  -1.6572  -1.5772  -1.5685  -1.4117  -1.2152
    -1.0678  -1.0279  -1.0181  -0.9698  -0.9553  -0.7888  -0.6277  -0.5755
    -0.5400  -0.4500  -0.4391  -0.3452  -0.3135  -0.2704  -0.2485  -0.2311
    -0.0983  -0.0933   0.2281   0.2687   0.3689   0.4162   0.4578   0.6784
     0.6823   0.7540   0.7989   0.8108   0.8597   1.0242   1.1801   1.2967
     1.4129   1.4614   1.4888   1.5115   1.5737   1.6306   1.6644   1.6999
     1.7179   1.7737   1.8165   1.8884   1.9587   1.9924   2.0825   2.0969
     2.2421   2.3270   2.4485   2.4619   2.5361   2.6584   2.7770   2.8428
     2.8570   2.9497   3.1824   3.1976   3.4794   3.5206   4.5381   5.2364
     5.9336   6.4731   7.0416   7.2529   7.5122   7.6387   7.7264   7.8830
     7.9719   8.1015   8.6056   8.8040   8.9948   9.1913   9.2201   9.3909
     9.4385   9.6158

          k = 0.1250-0.5125 0.0000 ( 34944 PWs)   bands (ev):

   -40.2485 -37.9031 -22.6180 -22.4114 -22.2649 -22.2109 -20.4915 -20.2244
   -20.1398 -18.5121 -18.1586 -17.9960 -15.2167 -15.1524 -14.5576 -14.3984
   -14.3175 -14.2648 -13.9477 -13.9423 -13.8697 -13.8462 -13.6987 -13.6685
   -13.6467 -13.4517 -13.4362  -8.0103  -7.9521  -7.7850  -7.6967  -7.6714
    -7.6136  -7.6113  -7.5413  -7.4361  -7.4133  -7.2572  -7.2527  -3.4503
    -3.0963  -3.0198  -2.7368  -2.6672  -2.5942  -2.4927  -2.0836  -2.0392
    -1.8293  -1.7692  -1.7303  -1.6866  -1.5291  -1.4464  -1.4396  -1.2779
    -1.2248  -1.1550  -1.0760  -0.9645  -0.8712  -0.8410  -0.7557  -0.6987
    -0.6090  -0.4525  -0.4166  -0.4145  -0.3898  -0.3396  -0.3350  -0.2889
    -0.1866  -0.1842   0.1966   0.2317   0.3250   0.3425   0.4198   0.6806
     0.6915   0.7664   0.8108   0.8130   0.9053   1.0603   1.1995   1.3713
     1.4488   1.4994   1.5078   1.5352   1.5669   1.5798   1.6064   1.6508
     1.7492   1.7673   1.8558   1.9106   1.9723   2.1197   2.1673   2.1887
     2.3210   2.4812   2.6766   2.7205   2.7258   2.7403   2.7444   2.9132
     3.0101   3.0231   3.0798   3.0987   3.3743   3.3938   4.6924   5.4418
     6.1735   6.2185   7.0170   7.2628   7.6979   7.7986   7.8881   7.9490
     8.0639   8.5695   8.6501   9.1594   9.3153   9.4379   9.4796   9.5110
     9.6446   9.6964

          k = 0.2500 0.0000 0.0000 ( 34996 PWs)   bands (ev):

   -40.2573 -37.9146 -22.7162 -22.5130 -22.3632 -22.3133 -20.3540 -20.2090
   -20.1703 -18.3414 -18.2407 -17.9068 -15.5756 -14.9283 -14.8719 -14.4823
   -14.4245 -14.3748 -14.2206 -14.1396 -13.9781 -13.8387 -13.5949 -13.5553
   -13.5372 -13.3280 -13.3235  -8.1496  -7.8179  -7.7406  -7.5995  -7.5935
    -7.5470  -7.4640  -7.4227  -7.2860  -7.2753  -7.2474  -7.2411  -2.8912
    -2.3658  -2.2808  -2.1893  -1.9081  -1.8753  -1.7383  -1.6924  -1.6537
    -1.5594  -1.5479  -1.4529  -1.2061  -0.9532  -0.8309  -0.8174  -0.7244
    -0.6897  -0.6729  -0.4814  -0.4734  -0.3823  -0.3409  -0.2422  -0.2415
    -0.2265  -0.2169  -0.1563  -0.1267   0.0038   0.0218   0.0687   0.3012
     0.3148   0.3788   0.4105   0.4607   0.4776   0.6425   0.6511   0.6769
     0.7121   0.7191   0.8202   0.8273   0.8413   0.8696   0.8904   0.9424
     0.9941   1.0434   1.2219   1.2268   1.2783   1.2911   1.3373   1.4088
     1.4512   1.5051   1.6027   1.6557   1.7584   1.7830   1.7926   1.8253
     1.8707   2.0629   2.1204   2.1416   2.2214   2.2768   2.3486   2.4088
     2.5667   2.5794   2.6824   2.7162   2.8295   3.0503   3.1195   4.6862
     6.1199   6.1259   6.2211   6.3186   6.5898   6.8594   6.9156   7.5628
     7.7514   7.8918   7.9232   8.0037   8.2490   8.3123   8.5576   8.9639
     9.1188   9.3461

          k = 0.2500 0.1281 0.0000 ( 34972 PWs)   bands (ev):

   -40.2556 -37.9123 -22.6977 -22.4940 -22.3447 -22.2942 -20.3511 -20.2428
   -20.1682 -18.3073 -18.2350 -18.0069 -15.5322 -14.9298 -14.7671 -14.4307
   -14.3936 -14.3429 -14.1958 -14.1002 -13.9491 -13.9039 -13.6013 -13.5450
   -13.5267 -13.3578 -13.3427  -8.1441  -7.8778  -7.8250  -7.7219  -7.7084
    -7.5979  -7.5415  -7.4845  -7.4618  -7.3100  -7.1411  -7.1323  -3.0299
    -2.4185  -2.3944  -2.2347  -1.9175  -1.8570  -1.7752  -1.7378  -1.7011
    -1.6665  -1.5514  -1.3715  -1.3581  -1.2536  -1.1907  -1.0950  -0.8419
    -0.7992  -0.7710  -0.7703  -0.6679  -0.6305  -0.5980  -0.5751  -0.4397
    -0.2677  -0.2179  -0.1579  -0.1115  -0.0808  -0.0030   0.1236   0.2094
     0.3649   0.3764   0.4252   0.4472   0.5131   0.5434   0.5829   0.6458
     0.6520   0.6918   0.8107   0.8704   0.9140   0.9195   1.0388   1.0497
     1.0776   1.1505   1.2434   1.2618   1.4356   1.4371   1.5167   1.5214
     1.5579   1.5954   1.6438   1.7352   1.7487   1.7626   1.7744   1.9438
     1.9606   1.9789   2.0403   2.1704   2.1919   2.3229   2.3585   2.6053
     2.7752   2.9771   3.1991   3.2051   3.2102   3.3126   3.3968   4.7366
     6.0767   6.3633   6.3665   6.4217   6.5981   6.9943   7.0561   7.6128
     7.7991   8.0064   8.0960   8.1839   8.2994   8.4815   8.6942   8.9934
     9.1463   9.3148

          k = 0.2500 0.2563 0.0000 ( 34971 PWs)   bands (ev):

   -40.2514 -37.9067 -22.6525 -22.4475 -22.2994 -22.2473 -20.3654 -20.3139
   -20.1497 -18.2409 -18.2214 -18.2045 -15.4176 -14.9496 -14.5358 -14.3515
   -14.2738 -14.2684 -14.1459 -14.0492 -13.9888 -13.8816 -13.6217 -13.5126
   -13.4994 -13.4454 -13.3982  -8.1821  -8.0750  -8.0118  -7.8343  -7.8101
    -7.7581  -7.6894  -7.5507  -7.4827  -7.4072  -7.2361  -7.2315  -3.3697
    -2.8386  -2.4606  -2.4070  -2.1455  -2.1112  -1.9162  -1.9158  -1.8455
    -1.7643  -1.7566  -1.7017  -1.5869  -1.5595  -1.5438  -1.4967  -1.2791
    -1.1798  -1.1705  -1.0178  -0.9613  -0.7811  -0.6396  -0.5978  -0.5531
    -0.5064  -0.3930  -0.2947  -0.2406  -0.1203  -0.0572   0.0319   0.0558
     0.1133   0.1314   0.1816   0.2184   0.4642   0.5492   0.6585   0.7174
     0.7759   0.8982   0.9302   0.9640   0.9793   1.0025   1.1117   1.2871
     1.4452   1.4939   1.5088   1.5577   1.5895   1.5968   1.6019   1.6663
     1.6920   1.7265   1.8393   1.9193   1.9377   1.9709   1.9960   2.0395
     2.0464   2.1900   2.2281   2.3305   2.3535   2.3943   2.4896   2.6212
     3.3002   3.4570   3.4968   3.5859   3.7751   3.9090   4.0011   4.8760
     5.8661   6.5385   6.6853   6.8779   6.9400   7.3465   7.3625   7.6105
     7.7481   7.8339   8.5313   8.6395   8.7509   8.9883   9.0277   9.1042
     9.2435   9.3945

          k = 0.2500 0.3844 0.0000 ( 35015 PWs)   bands (ev):

   -40.2471 -37.9012 -22.6063 -22.3999 -22.2531 -22.1993 -20.4459 -20.3179
   -20.1284 -18.4221 -18.2052 -18.1259 -15.2691 -15.0113 -14.4114 -14.2818
   -14.2223 -14.1253 -14.1026 -14.0611 -13.8340 -13.8267 -13.6767 -13.5521
   -13.5089 -13.4690 -13.4481  -8.2698  -8.1185  -8.0781  -7.9443  -7.9244
    -7.8138  -7.7366  -7.6441  -7.6300  -7.4778  -7.4508  -7.4494  -3.7037
    -3.2528  -2.8395  -2.7349  -2.5523  -2.4033  -2.3315  -2.2984  -2.2366
    -1.9418  -1.8587  -1.7691  -1.7240  -1.6498  -1.6415  -1.4734  -1.4549
    -1.4133  -1.1748  -1.0724  -1.0109  -0.9700  -0.7621  -0.7010  -0.6135
    -0.5431  -0.5110  -0.4456  -0.3364  -0.2587  -0.1836  -0.1367  -0.1275
    -0.1063   0.1002   0.1247   0.1877   0.5140   0.5725   0.7010   0.8028
     0.8689   0.9548   0.9933   1.0645   1.1918   1.2150   1.2634   1.4494
     1.5059   1.5235   1.5751   1.6941   1.7475   1.8098   1.8203   1.8644
     1.9040   1.9572   1.9701   1.9840   2.0193   2.0433   2.0614   2.1889
     2.2936   2.3812   2.4699   2.4792   2.6706   2.6794   2.7766   2.7971
     3.3856   3.4231   3.5538   3.8639   4.0427   4.1350   4.4448   5.0807
     5.9345   6.4678   6.6035   7.0448   7.1371   7.3442   7.4247   7.7047
     8.0667   8.2072   8.7833   8.9042   9.0720   9.2085   9.4345   9.6596
     9.7112   9.8930

          k = 0.2500-0.5125 0.0000 ( 35022 PWs)   bands (ev):

   -40.2454 -37.8989 -22.5869 -22.3799 -22.2336 -22.1791 -20.4833 -20.3148
   -20.1192 -18.4966 -18.1994 -18.0852 -15.1440 -15.1026 -14.4540 -14.2078
   -14.1794 -14.1369 -14.0868 -13.8652 -13.8515 -13.7974 -13.6841 -13.6148
   -13.5795 -13.4482 -13.4351  -8.2577  -8.1031  -8.0662  -7.9682  -7.9311
    -7.9162  -7.8034  -7.7226  -7.6350  -7.6274  -7.5717  -7.4430  -3.8410
    -3.4161  -3.0538  -2.9228  -2.7331  -2.5704  -2.5311  -2.4094  -2.3327
    -1.9354  -1.8520  -1.8047  -1.7445  -1.7416  -1.6373  -1.5323  -1.4431
    -1.4274  -1.1731  -1.1179  -1.0963  -1.0229  -0.7577  -0.7379  -0.6653
    -0.5780  -0.5296  -0.4917  -0.3883  -0.2663  -0.2165  -0.2108  -0.2051
    -0.1529   0.1081   0.1409   0.1591   0.5283   0.6087   0.7193   0.8292
     0.8852   0.9488   1.0061   1.1016   1.2905   1.3337   1.3941   1.5235
     1.5728   1.6111   1.6708   1.7075   1.7117   1.7783   1.8136   1.8680
     1.8739   1.8923   2.0100   2.0810   2.0838   2.1251   2.1841   2.2696
     2.2965   2.4580   2.6951   2.7153   2.7206   2.8590   2.9552   2.9726
     3.2277   3.2694   3.6070   3.9216   4.0966   4.1447   4.5467   5.1819
     6.2290   6.3325   6.4063   6.9953   7.1664   7.2781   7.2956   7.7201
     8.2671   8.5748   8.9458   9.3677   9.4661   9.5260   9.5284   9.7023
     9.8505   9.9089

          k = 0.3750 0.0000 0.0000 ( 34996 PWs)   bands (ev):

   -40.2541 -37.9102 -22.6722 -22.4667 -22.3188 -22.2662 -20.4306 -20.1983
   -20.1659 -18.4300 -18.2527 -17.9008 -15.4025 -15.0335 -14.6336 -14.5925
   -14.5238 -14.4495 -14.3346 -14.0095 -13.9824 -13.8309 -13.7193 -13.5437
   -13.5283 -13.4702 -13.3586  -8.1766  -7.8191  -7.7117  -7.5697  -7.5417
    -7.5123  -7.4048  -7.3333  -7.2367  -7.2326  -7.1639  -7.1496  -3.1052
    -2.6034  -2.4514  -2.1872  -2.1570  -1.8574  -1.7614  -1.7253  -1.7073
    -1.4938  -1.4258  -1.4243  -1.3505  -1.2367  -0.9150  -0.8633  -0.7986
    -0.7608  -0.7469  -0.7273  -0.7258  -0.6950  -0.5926  -0.5144  -0.3800
    -0.3452  -0.3363  -0.2303  -0.2262  -0.2116  -0.0859   0.0030   0.0354
     0.1133   0.1768   0.2996   0.4101   0.5931   0.6560   0.6766   0.6792
     0.6985   0.7057   0.8327   0.8710   0.9288   0.9506   0.9871   0.9880
     1.0125   1.0800   1.1102   1.1871   1.3004   1.3778   1.4108   1.4208
     1.5334   1.5904   1.6817   1.6920   1.7656   1.8360   1.8820   1.8891
     1.9767   2.0384   2.0722   2.1190   2.1336   2.2145   2.3694   2.4762
     2.5485   2.5935   2.6714   2.7662   2.8714   3.1571   3.1711   5.1892
     6.1460   6.1656   6.7526   6.7670   6.8020   7.0422   7.4724   7.9283
     8.0577   8.2593   8.2682   8.3408   8.7112   8.7360   9.0513   9.2067
     9.2776   9.4852

          k = 0.3750 0.1281 0.0000 ( 34944 PWs)   bands (ev):

   -40.2524 -37.9079 -22.6555 -22.4497 -22.3021 -22.2491 -20.4265 -20.2409
   -20.1558 -18.4227 -18.2198 -17.9991 -15.3656 -15.0225 -14.5742 -14.5184
   -14.4442 -14.4035 -14.2916 -13.9681 -13.9488 -13.8981 -13.6954 -13.5274
   -13.5106 -13.4757 -13.3702  -8.1730  -7.8200  -7.8156  -7.7087  -7.6514
    -7.5613  -7.5540  -7.4571  -7.4558  -7.3660  -7.2026  -7.1895  -3.2586
    -2.7506  -2.5069  -2.2904  -2.2197  -1.8486  -1.7934  -1.7534  -1.7041
    -1.6938  -1.6442  -1.5713  -1.3223  -1.2145  -1.1671  -1.1317  -1.0834
    -1.0169  -0.9018  -0.8027  -0.7745  -0.7318  -0.6605  -0.5846  -0.5158
    -0.4944  -0.3849  -0.3312  -0.3075  -0.2517  -0.0406   0.0940   0.1241
     0.2193   0.2816   0.3769   0.3787   0.4640   0.5467   0.6256   0.6284
     0.6477   0.7979   0.8162   0.9116   0.9915   0.9966   1.1090   1.1105
     1.1824   1.2072   1.3284   1.3438   1.3984   1.4382   1.5025   1.5902
     1.6035   1.6110   1.6773   1.7031   1.8279   1.8372   1.9262   1.9294
     1.9488   2.0018   2.0465   2.1537   2.2298   2.2369   2.5105   2.5781
     2.9246   3.0891   3.1939   3.2307   3.2444   3.4531   3.4654   5.1514
     5.8784   6.3922   6.7247   6.8826   6.9363   7.0732   7.5598   7.8798
     7.9216   8.0870   8.3342   8.3970   8.9551   9.0043   9.0711   9.1571
     9.3221   9.5764

          k = 0.3750 0.2563 0.0000 ( 34989 PWs)   bands (ev):

   -40.2482 -37.9024 -22.6145 -22.4081 -22.2612 -22.2074 -20.4170 -20.3391
   -20.1329 -18.4052 -18.2143 -18.1365 -15.2708 -15.0056 -14.4525 -14.3350
   -14.2845 -14.2594 -14.1534 -14.0646 -13.8669 -13.8611 -13.6390 -13.4971
   -13.4898 -13.4703 -13.4190  -8.2378  -8.1117  -8.0608  -7.8837  -7.8788
    -7.7942  -7.7764  -7.6550  -7.6347  -7.4986  -7.4623  -7.4537  -3.6720
    -3.1902  -2.7380  -2.4148  -2.3943  -2.2697  -2.0666  -1.9797  -1.8769
    -1.7832  -1.7674  -1.7440  -1.6666  -1.6471  -1.5501  -1.5382  -1.4478
    -1.3900  -1.1373  -1.0374  -0.9526  -0.9382  -0.6340  -0.6074  -0.5418
    -0.4535  -0.4004  -0.3315  -0.2999  -0.2233  -0.1627  -0.0211   0.0343
     0.0386   0.1277   0.1862   0.2261   0.5324   0.6750   0.7418   0.7774
     0.9113   0.9867   1.0968   1.1157   1.1556   1.2549   1.2870   1.3932
     1.4759   1.5004   1.5485   1.5743   1.6346   1.6567   1.7005   1.8020
     1.8449   1.8599   1.8881   1.9092   1.9285   2.0120   2.0190   2.0427
     2.1243   2.2485   2.2659   2.2698   2.3395   2.4713   2.5362   2.6488
     3.4575   3.4893   3.6708   3.9608   3.9948   4.1310   4.2142   5.0236
     5.8032   6.3375   6.5943   6.8580   6.9274   7.3099   7.3323   7.7132
     8.0253   8.1778   8.5754   8.6668   9.0907   9.3453   9.3906   9.4834
     9.5743   9.6707

          k = 0.3750 0.3844 0.0000 ( 35061 PWs)   bands (ev):

   -40.2439 -37.8969 -22.5728 -22.3657 -22.2194 -22.1648 -20.4380 -20.4032
   -20.1098 -18.4089 -18.3847 -18.0472 -15.1568 -15.0132 -14.3398 -14.2288
   -14.1497 -14.1464 -14.0653 -13.9628 -13.7926 -13.7373 -13.6148 -13.5352
   -13.5018 -13.4562 -13.4394  -8.4772  -8.3273  -8.1744  -8.1526  -8.1327
    -8.0683  -7.9636  -7.7932  -7.7650  -7.7432  -7.6568  -7.4838  -4.0845
    -3.6425  -3.1005  -2.7728  -2.7313  -2.5642  -2.4244  -2.3038  -2.2885
    -2.0772  -2.0445  -1.9640  -1.8461  -1.7892  -1.6593  -1.6248  -1.5412
    -1.3213  -1.2497  -1.1725  -1.0311  -0.8944  -0.6957  -0.6351  -0.5579
    -0.5301  -0.5175  -0.4864  -0.3578  -0.3410  -0.2846  -0.1926  -0.1769
    -0.1689   0.2372   0.2621   0.4703   0.6102   0.7804   0.8154   0.9584
     1.1221   1.2163   1.2512   1.3146   1.3794   1.4254   1.5299   1.6408
     1.6576   1.7085   1.7414   1.7633   1.8534   1.8930   1.9000   1.9404
     1.9562   2.0056   2.0655   2.0973   2.1730   2.1770   2.2195   2.2660
     2.3361   2.4542   2.5010   2.5125   2.6951   2.6981   2.7114   2.9729
     3.3774   3.4033   4.1424   4.3278   4.5275   4.6258   4.7792   4.9996
     5.8101   6.0410   6.4911   6.4926   6.7369   7.0412   7.3211   7.7789
     8.3398   8.4833   9.0406   9.1529   9.1927   9.2827   9.3868   9.5314
     9.6729   9.7960

          k = 0.3750-0.5125 0.0000 ( 35078 PWs)   bands (ev):

   -40.2422 -37.8946 -22.5552 -22.3479 -22.2019 -22.1469 -20.4751 -20.4005
   -20.1002 -18.4810 -18.3795 -18.0081 -15.0687 -15.0586 -14.3416 -14.2449
   -14.0910 -14.0864 -13.8929 -13.8524 -13.7766 -13.7253 -13.6722 -13.5655
   -13.5068 -13.4445 -13.4315  -8.5549  -8.4063  -8.2858  -8.2326  -8.2106
    -8.1235  -8.1188  -7.9486  -7.8647  -7.7599  -7.6530  -7.4774  -4.2501
    -3.8236  -3.2679  -2.9795  -2.9480  -2.6586  -2.5420  -2.5274  -2.4243
    -2.1843  -2.0939  -1.9771  -1.8700  -1.7878  -1.6548  -1.6192  -1.5903
    -1.3833  -1.2839  -1.1769  -1.0656  -0.9036  -0.7126  -0.6566  -0.6095
    -0.5843  -0.5431  -0.5342  -0.3939  -0.3751  -0.3615  -0.2717  -0.2584
    -0.1391   0.2709   0.2903   0.5991   0.6310   0.8118   0.8549   1.0097
     1.1607   1.3108   1.3322   1.4338   1.4521   1.5166   1.5870   1.6949
     1.6963   1.8415   1.8654   1.8655   1.9139   1.9513   1.9616   2.0123
     2.0356   2.0733   2.1133   2.1532   2.1979   2.2088   2.2410   2.4343
     2.4513   2.5553   2.7204   2.7394   2.7421   2.8943   2.9051   3.1370
     3.2064   3.2314   4.2453   4.3989   4.6895   4.7904   4.9177   5.0847
     5.6111   6.1803   6.2948   6.3662   6.6826   6.9519   7.2048   7.8725
     8.4803   8.5347   9.0537   9.2464   9.3609   9.5375   9.5972   9.6226
     9.6730   9.7240

          k =-0.5000 0.0000 0.0000 ( 34974 PWs)   bands (ev):

   -40.2528 -37.9084 -22.6537 -22.4471 -22.3001 -22.2464 -20.4638 -20.1914
   -20.1641 -18.5021 -18.2143 -17.8982 -15.2750 -15.1353 -14.6811 -14.5990
   -14.5009 -14.4416 -14.3953 -14.0112 -13.8834 -13.8192 -13.7645 -13.5892
   -13.5379 -13.5172 -13.3668  -8.1843  -7.8183  -7.6961  -7.5600  -7.5368
    -7.4777  -7.3820  -7.2950  -7.2262  -7.2134  -7.1282  -7.1103  -3.1951
    -2.7269  -2.5658  -2.3196  -1.9704  -1.8229  -1.7881  -1.7598  -1.7452
    -1.6232  -1.4603  -1.4523  -1.2412  -1.2052  -1.0035  -0.9715  -0.8758
    -0.8563  -0.8452  -0.8153  -0.6723  -0.6427  -0.6407  -0.6340  -0.4759
    -0.4383  -0.3856  -0.3450  -0.2222  -0.2218  -0.2203  -0.1183   0.0210
     0.0635   0.0881   0.2952   0.3753   0.6475   0.6629   0.6896   0.6927
     0.6930   0.7001   0.8177   0.8659   0.9438   0.9682   1.0020   1.0053
     1.0282   1.0286   1.0307   1.2502   1.3699   1.3988   1.4465   1.5134
     1.5161   1.6348   1.6485   1.6699   1.7839   1.8365   1.8561   1.9469
     2.0774   2.0975   2.1103   2.1306   2.1400   2.2471   2.3804   2.4607
     2.5097   2.6043   2.6360   2.7654   2.8703   3.1614   3.1707   5.6895
     5.8067   6.1078   6.7220   7.1362   7.5039   7.6128   7.6137   7.6317
     7.7882   7.9417   8.2504   8.4280   8.8892   9.1467   9.2503   9.4121
     9.4411   9.4554

          k =-0.5000 0.1281 0.0000 ( 34968 PWs)   bands (ev):

   -40.2510 -37.9061 -22.6377 -22.4310 -22.2841 -22.2302 -20.4596 -20.2379
   -20.1499 -18.4944 -18.1820 -17.9958 -15.2422 -15.1177 -14.6288 -14.5323
   -14.4450 -14.3541 -14.3256 -13.9778 -13.8858 -13.8478 -13.7299 -13.5831
   -13.5196 -13.5006 -13.3720  -8.1788  -7.8142  -7.6966  -7.6884  -7.6794
    -7.5354  -7.5172  -7.5063  -7.3491  -7.3489  -7.3323  -7.3216  -3.3554
    -2.8795  -2.6296  -2.3600  -2.1933  -1.9733  -1.8117  -1.8028  -1.7412
    -1.6807  -1.6361  -1.3840  -1.3318  -1.3110  -1.2290  -1.1768  -1.1458
    -1.0996  -0.9037  -0.7786  -0.7758  -0.7696  -0.6713  -0.6575  -0.5321
    -0.5035  -0.4321  -0.3943  -0.3780  -0.3284  -0.0525   0.0725   0.0996
     0.1322   0.2633   0.3042   0.3535   0.3931   0.5589   0.6231   0.6475
     0.6792   0.7857   0.8607   0.9100   0.9904   1.0055   1.1895   1.1925
     1.2308   1.2373   1.2858   1.3245   1.4410   1.4521   1.5574   1.5894
     1.5986   1.6473   1.6657   1.6715   1.7922   1.7951   1.8960   1.9499
     2.0791   2.0867   2.0997   2.1611   2.2177   2.2337   2.5512   2.6320
     2.9547   3.1093   3.1701   3.2250   3.2448   3.4265   3.4861   5.4638
     5.7208   6.3469   6.7342   6.9784   7.3317   7.4220   7.7399   7.8885
     7.9253   7.9323   7.9611   8.5319   9.2542   9.2970   9.3087   9.4296
     9.5009   9.6458

          k =-0.5000 0.2563 0.0000 ( 34990 PWs)   bands (ev):

   -40.2468 -37.9006 -22.5986 -22.3915 -22.2451 -22.1906 -20.4495 -20.3378
   -20.1255 -18.4756 -18.2098 -18.1003 -15.1612 -15.0797 -14.4996 -14.3439
   -14.2971 -14.2451 -14.0700 -14.0466 -13.8971 -13.7631 -13.6446 -13.5684
   -13.4800 -13.4653 -13.4060  -8.1959  -8.0957  -7.9914  -7.9830  -7.8284
    -7.8037  -7.8014  -7.7825  -7.6609  -7.6568  -7.6288  -7.5048  -3.7974
    -3.3318  -2.8735  -2.5450  -2.3960  -2.3848  -2.0476  -1.9948  -1.8701
    -1.8012  -1.7854  -1.7764  -1.7577  -1.6535  -1.5516  -1.5392  -1.4791
    -1.4177  -1.1681  -1.0713  -1.0098  -0.9278  -0.5841  -0.5532  -0.5047
    -0.4146  -0.3879  -0.3766  -0.3613  -0.2331  -0.1896  -0.0269  -0.0040
     0.0070   0.1454   0.1802   0.2390   0.5669   0.6829   0.7856   0.8676
     0.9378   1.0441   1.1267   1.1729   1.1939   1.3301   1.4248   1.4460
     1.5147   1.5405   1.6086   1.6142   1.7250   1.7290   1.7459   1.7609
     1.7909   1.7951   1.8322   1.9012   1.9833   1.9917   2.0736   2.1815
     2.2102   2.2239   2.2400   2.2728   2.3288   2.3362   2.4881   2.8007
     3.4539   3.4814   3.7781   3.9658   4.0905   4.2235   4.2699   5.1046
     5.8247   6.2539   6.4949   6.8158   6.8660   7.2287   7.2487   7.7353
     8.1881   8.6719   8.6878   8.7657   9.3165   9.3462   9.4046   9.5842
     9.7133   9.7371

          k =-0.5000 0.3844 0.0000 ( 35110 PWs)   bands (ev):

   -40.2426 -37.8951 -22.5587 -22.3514 -22.2053 -22.1503 -20.4393 -20.4332
   -20.1021 -18.4568 -18.4007 -18.0128 -15.0776 -15.0480 -14.3663 -14.2199
   -14.1237 -14.1205 -14.0677 -13.8296 -13.8204 -13.6884 -13.5876 -13.5535
   -13.4786 -13.4505 -13.4383  -8.5287  -8.3766  -8.2879  -8.2007  -8.1858
    -8.1355  -8.1222  -7.9541  -7.8873  -7.7781  -7.6613  -7.4962  -4.2396
    -3.8029  -3.2409  -2.8984  -2.7178  -2.6581  -2.4368  -2.2921  -2.2813
    -2.1860  -2.1111  -1.9926  -1.8969  -1.7852  -1.6584  -1.6337  -1.5759
    -1.3775  -1.2793  -1.2350  -0.9860  -0.8072  -0.7512  -0.6401  -0.5325
    -0.4902  -0.4713  -0.4633  -0.4309  -0.4154  -0.2958  -0.2244  -0.2064
    -0.1437   0.2910   0.3083   0.6157   0.6374   0.8168   0.9022   1.0455
     1.2043   1.3321   1.3782   1.4139   1.4886   1.5606   1.5902   1.6793
     1.7014   1.7260   1.8091   1.8561   1.9016   1.9103   1.9549   2.0003
     2.0233   2.0701   2.1053   2.1500   2.1851   2.1902   2.2064   2.2653
     2.4344   2.5075   2.5287   2.5721   2.6280   2.6600   2.6732   3.1158
     3.3738   3.3932   4.2437   4.3928   4.7513   4.8293   4.9583   5.0226
     5.5561   6.0968   6.2539   6.4408   6.4887   6.9341   7.2538   7.8560
     8.4736   8.7866   8.8825   9.0467   9.3094   9.4912   9.5089   9.5522
     9.6702   9.7927

          k =-0.5000-0.5125 0.0000 ( 35092 PWs)   bands (ev):

   -40.2409 -37.8929 -22.5420 -22.3345 -22.1887 -22.1334 -20.4717 -20.4351
   -20.0924 -18.4746 -18.4491 -17.9745 -15.0421 -15.0367 -14.3105 -14.2918
   -14.0538 -14.0315 -13.8591 -13.7924 -13.7368 -13.6970 -13.6682 -13.5474
   -13.4746 -13.4427 -13.4290  -8.6765  -8.5287  -8.4099  -8.3539  -8.3305
    -8.2397  -8.1364  -8.0711  -7.9881  -7.7757  -7.6587  -7.4921  -4.4156
    -3.9924  -3.4092  -3.0742  -2.9680  -2.7438  -2.5298  -2.5196  -2.4421
    -2.3166  -2.1389  -2.0159  -1.9332  -1.7815  -1.6466  -1.6243  -1.6102
    -1.4753  -1.2787  -1.2483  -1.0018  -0.8242  -0.7253  -0.7232  -0.6306
    -0.5440  -0.5066  -0.4646  -0.4620  -0.4483  -0.3852  -0.3077  -0.2955
    -0.1015   0.3340   0.3452   0.6597   0.7916   0.8634   0.9314   1.1287
     1.2902   1.3861   1.4466   1.5618   1.6083   1.6200   1.6957   1.7147
     1.7634   1.7964   1.8181   1.9168   1.9609   1.9868   2.0421   2.0475
     2.0728   2.2304   2.2320   2.2570   2.2693   2.2753   2.3115   2.4275
     2.4821   2.6970   2.7593   2.7675   2.7958   2.8670   2.8773   3.1974
     3.2171   3.2730   4.2577   4.5894   4.9570   5.0267   5.0594   5.2426
     5.3161   5.9477   6.0041   6.4560   6.5902   6.8369   7.0229   8.1893
     8.5193   8.6104   8.7630   9.0298   9.1297   9.4032   9.4649   9.5652
     9.7209   9.8962

     the Fermi energy is     3.1650 ev

!    total energy              =   -1868.65960884 Ry
     Harris-Foulkes estimate   =   -1868.65960945 Ry
     estimated scf accuracy    <       0.00000087 Ry

     The total energy is the sum of the following terms:

     one-electron contribution =  -31545.32524349 Ry
     hartree contribution      =   15927.29542682 Ry
     xc contribution           =    -642.03110872 Ry
     ewald contribution        =   14391.40992096 Ry
     smearing contrib. (-TS)   =      -0.00860441 Ry

     convergence has been achieved in  34 iterations

     negative rho (up, down):  9.017E-02 0.000E+00

     Forces acting on atoms (cartesian axes, Ry/au):

     atom    1 type  3   force =     0.00000000    0.00000000    0.00007789
     atom    2 type  2   force =     0.00000000    0.00000000    0.00159884
     atom    3 type  3   force =     0.00000000    0.00000000   -0.00015558
     atom    4 type  1   force =     0.00000000    0.00000000   -0.00008379
     atom    5 type  2   force =     0.00000000    0.00000000   -0.00110056
     atom    6 type  3   force =     0.00000000    0.00000000    0.00015064
     atom    7 type  3   force =     0.00000000    0.00000000    0.00002221
     atom    8 type  4   force =     0.00000000    0.00000000   -0.00018179
     atom    9 type  3   force =     0.00000000    0.00000000    0.00045821
     atom   10 type  3   force =     0.00000000    0.00000000    0.00065399
     atom   11 type  2   force =     0.00000000    0.00000000   -0.00246375
     atom   12 type  1   force =     0.00000000    0.00000000   -0.00127683
     atom   13 type  3   force =     0.00000000    0.00000000    0.00194131
     atom   14 type  3   force =     0.00000000    0.00000000    0.00476088
     atom   15 type  2   force =     0.00000000    0.00000000   -0.00831425
     atom   16 type  3   force =     0.00000000    0.00000000    0.01380634
     atom   17 type  1   force =     0.00000000    0.00000000   -0.01893131
     atom   18 type  2   force =     0.00000000    0.00000000    0.00150268
     atom   19 type  3   force =     0.00000000    0.00000000    0.06593533
     atom   20 type  3   force =     0.00000000    0.00000000    0.06388306
     atom   21 type  4   force =     0.00000000    0.00000000    0.00498008
     atom   22 type  3   force =     0.00000000    0.00000000   -0.04070127
     atom   23 type  3   force =     0.00000000    0.00000000   -0.03808655
     atom   24 type  2   force =     0.00000000    0.00000000   -0.02269409
     atom   25 type  1   force =     0.00000000    0.00000000   -0.02624137
     atom   26 type  3   force =     0.00000000    0.00000000    0.00102420
     atom   27 type  2   force =     0.00000000    0.00000000   -0.00285872
     atom   28 type  3   force =     0.00000000    0.00000000    0.00229422

     Total force =     0.115921     Total SCF correction =     0.005059


     Computing stress (Cartesian axis) and pressure


     negative rho (up, down):  9.017E-02 0.000E+00
          total   stress  (Ry/bohr**3)                   (kbar)     P=      -11.30
  -0.00001562   0.00000000   0.00000000           -2.30        0.00        0.00
   0.00000000   0.00000243   0.00000000            0.00        0.36        0.00
   0.00000000   0.00000000  -0.00021726            0.00        0.00      -31.96

 
     init_run     :      9.74s CPU     10.23s WALL (       1 calls)
     electrons    :    601.81s CPU    639.06s WALL (       1 calls)
     forces       :      3.96s CPU      4.29s WALL (       1 calls)
     stress       :     44.57s CPU     45.47s WALL (       1 calls)

     Called by init_run:
     wfcinit      :      6.85s CPU      6.99s WALL (       1 calls)
     potinit      :      0.63s CPU      0.65s WALL (       1 calls)
     hinit0       :      1.14s CPU      1.16s WALL (       1 calls)

     Called by electrons:
     c_bands      :    469.99s CPU    485.73s WALL (      34 calls)
     sum_band     :     89.82s CPU    101.67s WALL (      34 calls)
     v_of_rho     :      3.31s CPU      3.36s WALL (      35 calls)
     newd         :     18.55s CPU     28.19s WALL (      35 calls)
     mix_rho      :     20.39s CPU     20.60s WALL (      34 calls)

     Called by c_bands:
     init_us_2    :      4.53s CPU      4.56s WALL (    1775 calls)
     cegterg      :    443.48s CPU    458.68s WALL (     850 calls)

     Called by sum_band:
     sum_band:bec :      0.25s CPU      0.25s WALL (     850 calls)
     addusdens    :     20.58s CPU     31.54s WALL (      34 calls)

     Called by *egterg:
     h_psi        :    211.42s CPU    220.66s WALL (    3745 calls)
     s_psi        :     23.56s CPU     23.87s WALL (    3745 calls)
     g_psi        :      0.73s CPU      0.74s WALL (    2870 calls)
     cdiaghg      :    107.82s CPU    108.31s WALL (    3720 calls)

     Called by h_psi:
     h_psi:calbec :     27.04s CPU     28.17s WALL (    3745 calls)
     vloc_psi     :    158.45s CPU    161.29s WALL (    3745 calls)
     add_vuspsi   :     24.61s CPU     27.62s WALL (    3745 calls)

     General routines
     calbec       :     65.95s CPU     67.24s WALL (    4720 calls)
     fft          :      3.02s CPU      3.06s WALL (     478 calls)
     ffts         :      9.43s CPU      9.54s WALL (   14910 calls)
     fftw         :    178.34s CPU    181.43s WALL (  610218 calls)
     interpolate  :      0.22s CPU      0.22s WALL (      35 calls)
 
     Parallel routines
     fft_scatt_xy :     22.74s CPU     23.13s WALL (  625606 calls)
     fft_scatt_yz :    110.46s CPU    112.39s WALL (  625606 calls)
 
     PWSCF        :  11m 0.94s CPU  11m39.95s WALL

 
   This run was terminated on:  17:35:27   5May2021            

=------------------------------------------------------------------------------=
   JOB DONE.
=------------------------------------------------------------------------------=
[1620250527.392729] [holy7c06306:41451:0]          mpool.c:43   UCX  WARN  object 0x40fbc00 was not returned to mpool ucp_requests
[1620250527.392058] [holy7c06211:127138:0]          mpool.c:43   UCX  WARN  object 0x2bdf940 was not returned to mpool ucp_requests
[1620250527.394805] [holy7c06201:79813:0]          mpool.c:43   UCX  WARN  object 0x3bc2800 was not returned to mpool ucp_requests
[1620250527.397093] [holy7c06209:15346:0]          mpool.c:43   UCX  WARN  object 0x3b74a40 was not returned to mpool ucp_requests
[1620250527.397108] [holy7c06209:15346:0]          mpool.c:43   UCX  WARN  object 0x3b74dc0 was not returned to mpool ucp_requests
[1620250527.398087] [holy7c06202:65564:0]          mpool.c:43   UCX  WARN  object 0x3826d80 was not returned to mpool ucp_requests
[1620250527.398050] [holy7c06304:13723:0]          mpool.c:43   UCX  WARN  object 0x2ad7700 was not returned to mpool ucp_requests
[1620250527.398073] [holy7c06304:13723:0]          mpool.c:43   UCX  WARN  object 0x2ad7fc0 was not returned to mpool ucp_requests
[1620250527.400607] [holy7c06305:5132 :0]          mpool.c:43   UCX  WARN  object 0x2cdb080 was not returned to mpool ucp_requests
