
     Program PWSCF v.6.5 starts on  5May2021 at 17:10:42 

     This program is part of the open-source Quantum ESPRESSO suite
     for quantum simulation of materials; please cite
         "P. Giannozzi et al., J. Phys.:Condens. Matter 21 395502 (2009);
         "P. Giannozzi et al., J. Phys.:Condens. Matter 29 465901 (2017);
          URL http://www.quantum-espresso.org", 
     in publications or presentations arising from this work. More details at
     http://www.quantum-espresso.org/quote

     Parallel version (MPI), running on    20 processors

     MPI processes distributed on    16 nodes
     R & G space division:  proc/nbgrp/npool/nimage =      20
     Reading input from YBCO_BaO_cleave_2.0_sep_scf.pwi
Warning: card &IONS ignored
Warning: card     ION_DYNAMICS = 'BFGS' ignored
Warning: card / ignored
Warning: card &CELL ignored
Warning: card     CELL_DYNAMICS = 'BFGS' ignored
Warning: card / ignored

     Current dimensions of program PWSCF are:
     Max number of different atomic species (ntypx) = 10
     Max number of k-points (npk) =  40000
     Max angular momentum in pseudopotentials (lmaxx) =  3

     Subspace diagonalization in iterative solution of the eigenvalue problem:
     one sub-group per band group will be used
     scalapack distributed-memory algorithm (size of sub-group:  4*  4 procs)

     Message from routine setup:
     using ibrav=0 with symmetry is DISCOURAGED, use correct ibrav instead
 
     Parallelization info
     --------------------
     sticks:   dense  smooth     PW     G-vecs:    dense   smooth      PW
     Min         150      50     14                74300    14295    2230
     Max         151      52     15                74341    14319    2275
     Sum        3015    1011    293              1486401   286073   45083
 


     bravais-lattice index     =            0
     lattice parameter (alat)  =       7.3477  a.u.
     unit-cell volume          =    4555.8304 (a.u.)^3
     number of atoms/cell      =           28
     number of atomic types    =            4
     number of electrons       =       229.00
     number of Kohn-Sham states=          138
     kinetic-energy cutoff     =      60.0000  Ry
     charge density cutoff     =     720.0000  Ry
     convergence threshold     =      1.0E-06
     mixing beta               =       0.2000
     number of iterations used =           10  local-TF  mixing
     Exchange-correlation= SLA PW PBE PBE
                           (   1   4   3   4   0   0   0)

     celldm(1)=   7.347715  celldm(2)=   0.000000  celldm(3)=   0.000000
     celldm(4)=   0.000000  celldm(5)=   0.000000  celldm(6)=   0.000000

     crystal axes: (cart. coord. in units of alat)
               a(1) = (   1.000000   0.000000   0.000000 )  
               a(2) = (   0.000000   0.975577   0.000000 )  
               a(3) = (   0.000000   0.000000  11.771964 )  

     reciprocal axes: (cart. coord. in units 2 pi/alat)
               b(1) = (  1.000000  0.000000  0.000000 )  
               b(2) = (  0.000000  1.025034  0.000000 )  
               b(3) = (  0.000000  0.000000  0.084948 )  


     PseudoPot. # 1 for Ba read from file:
     /n/holyscratch01/hoffman_lab/ruizhe/YBCO_Project/pseudo/Ba.pbe-nsp-van.UPF
     MD5 check sum: 2b9c31dd849566dd297d80989662b7a0
     Pseudo is Ultrasoft + core correction, Zval = 10.0
     Generated by new atomic code, or converted to UPF format
     Using radial grid of  907 points,  6 beta functions with: 
                l(1) =   0
                l(2) =   0
                l(3) =   1
                l(4) =   1
                l(5) =   2
                l(6) =   2
     Q(r) pseudized with  6 coefficients,  rinner =    1.200   1.200   1.200
                                                       1.200   1.200

     PseudoPot. # 2 for Cu read from file:
     /n/holyscratch01/hoffman_lab/ruizhe/YBCO_Project/pseudo/Cu.pbe-n-van_ak.UPF
     MD5 check sum: 34e3282627ffb533726feb647e090d62
     Pseudo is Ultrasoft + core correction, Zval = 11.0
     Generated by new atomic code, or converted to UPF format
     Using radial grid of  867 points,  6 beta functions with: 
                l(1) =   0
                l(2) =   0
                l(3) =   1
                l(4) =   1
                l(5) =   2
                l(6) =   2
     Q(r) pseudized with  8 coefficients,  rinner =    1.400   1.400   1.400
                                                       1.400   1.400

     PseudoPot. # 3 for O  read from file:
     /n/holyscratch01/hoffman_lab/ruizhe/YBCO_Project/pseudo/O.pbe-van_ak.UPF
     MD5 check sum: 783ce7fe4c79b6a4916957118fed0856
     Pseudo is Ultrasoft, Zval =  6.0
     Generated by new atomic code, or converted to UPF format
     Using radial grid of  737 points,  4 beta functions with: 
                l(1) =   0
                l(2) =   0
                l(3) =   1
                l(4) =   1
     Q(r) pseudized with  8 coefficients,  rinner =    0.800   0.800   0.800


     PseudoPot. # 4 for Y  read from file:
     /n/holyscratch01/hoffman_lab/ruizhe/YBCO_Project/pseudo/Y.pbe-nsp-van.UPF
     MD5 check sum: 4412fed3ab108fed87a1b7d6a69a4a38
     Pseudo is Ultrasoft + core correction, Zval = 11.0
     Generated by new atomic code, or converted to UPF format
     Using radial grid of  885 points,  6 beta functions with: 
                l(1) =   0
                l(2) =   0
                l(3) =   1
                l(4) =   1
                l(5) =   2
                l(6) =   2
     Q(r) pseudized with  6 coefficients,  rinner =    1.200   1.200   1.200
                                                       1.200   1.200

     atomic species   valence    mass     pseudopotential
        Ba            10.00   137.32700     Ba( 1.00)
        Cu            11.00    63.54600     Cu( 1.00)
        O              6.00    15.99900     O ( 1.00)
        Y             11.00    88.90584     Y ( 1.00)

      4 Sym. Ops. (no inversion) found



   Cartesian axes

     site n.     atom                  positions (alat units)
         1           O   tau(   1) = (   0.0000000   0.4877884  -0.0257983  )
         2           Cu  tau(   2) = (   0.0000000   0.0000000   0.0215779  )
         3           O   tau(   3) = (   0.0000000   0.0000000   0.5073114  )
         4           Ba  tau(   4) = (   0.4999996   0.4877884   0.5319677  )
         5           Cu  tau(   5) = (   0.0000000   0.0000000   1.0495845  )
         6           O   tau(   6) = (   0.4999996   0.0000000   1.1181579  )
         7           O   tau(   7) = (   0.0000000   0.4877884   1.1273137  )
         8           Y   tau(   8) = (   0.4999996   0.4877884   1.4938777  )
         9           O   tau(   9) = (   0.0000000   0.4877884   1.8497402  )
        10           O   tau(  10) = (   0.4999996   0.0000000   1.8692709  )
        11           Cu  tau(  11) = (   0.0000000   0.0000000   1.9417560  )
        12           Ba  tau(  12) = (   0.4999996   0.4877884   2.4526063  )
        13           O   tau(  13) = (   0.0000000   0.0000000   2.5103470  )
        14           O   tau(  14) = (   0.0000000   0.4877884   2.9968469  )
        15           Cu  tau(  15) = (   0.0000000   0.0000000   2.9968521  )
        16           O   tau(  16) = (   0.0000000   0.0000000   3.4833288  )
        17           Ba  tau(  17) = (   0.4999996   0.4877884   3.5410618  )
        18           Cu  tau(  18) = (   0.0000000   0.0000000   4.5663063  )
        19           O   tau(  19) = (   0.4999996   0.0000000   4.6387786  )
        20           O   tau(  20) = (   0.0000000   0.4877884   4.6582913  )
        21           Y   tau(  21) = (   0.4999996   0.4877884   5.0141564  )
        22           O   tau(  22) = (   0.0000000   0.4877884   5.3807203  )
        23           O   tau(  23) = (   0.4999996   0.0000000   5.3898890  )
        24           Cu  tau(  24) = (   0.0000000   0.0000000   5.4584675  )
        25           Ba  tau(  25) = (   0.4999996   0.4877884   5.9760689  )
        26           O   tau(  26) = (   0.0000000   0.0000000   6.0007253  )
        27           Cu  tau(  27) = (   0.0000000   0.0000000   6.4864305  )
        28           O   tau(  28) = (   0.0000000   0.4877884   6.5338118  )

     number of k points=    25  Gaussian smearing, width (Ry)=  0.0100
                       cart. coord. in units 2pi/alat
        k(    1) = (   0.0000000   0.0000000   0.0000000), wk =   0.0312500
        k(    2) = (   0.0000000   0.1281293   0.0000000), wk =   0.0625000
        k(    3) = (   0.0000000   0.2562585   0.0000000), wk =   0.0625000
        k(    4) = (   0.0000000   0.3843878   0.0000000), wk =   0.0625000
        k(    5) = (   0.0000000  -0.5125170   0.0000000), wk =   0.0312500
        k(    6) = (   0.1250000   0.0000000   0.0000000), wk =   0.0625000
        k(    7) = (   0.1250000   0.1281293   0.0000000), wk =   0.1250000
        k(    8) = (   0.1250000   0.2562585   0.0000000), wk =   0.1250000
        k(    9) = (   0.1250000   0.3843878   0.0000000), wk =   0.1250000
        k(   10) = (   0.1250000  -0.5125170   0.0000000), wk =   0.0625000
        k(   11) = (   0.2500000   0.0000000   0.0000000), wk =   0.0625000
        k(   12) = (   0.2500000   0.1281293   0.0000000), wk =   0.1250000
        k(   13) = (   0.2500000   0.2562585   0.0000000), wk =   0.1250000
        k(   14) = (   0.2500000   0.3843878   0.0000000), wk =   0.1250000
        k(   15) = (   0.2500000  -0.5125170   0.0000000), wk =   0.0625000
        k(   16) = (   0.3750000   0.0000000   0.0000000), wk =   0.0625000
        k(   17) = (   0.3750000   0.1281293   0.0000000), wk =   0.1250000
        k(   18) = (   0.3750000   0.2562585   0.0000000), wk =   0.1250000
        k(   19) = (   0.3750000   0.3843878   0.0000000), wk =   0.1250000
        k(   20) = (   0.3750000  -0.5125170   0.0000000), wk =   0.0625000
        k(   21) = (  -0.5000000   0.0000000   0.0000000), wk =   0.0312500
        k(   22) = (  -0.5000000   0.1281293   0.0000000), wk =   0.0625000
        k(   23) = (  -0.5000000   0.2562585   0.0000000), wk =   0.0625000
        k(   24) = (  -0.5000000   0.3843878   0.0000000), wk =   0.0625000
        k(   25) = (  -0.5000000  -0.5125170   0.0000000), wk =   0.0312500

     Dense  grid:  1486401 G-vectors     FFT dimensions: (  64,  64, 750)

     Smooth grid:   286073 G-vectors     FFT dimensions: (  40,  36, 432)

     Estimated max dynamical RAM per process >     474.62 MB

     Estimated total dynamical RAM >       9.27 GB

     Initial potential from superposition of free atoms

     starting charge  228.84827, renormalised to  229.00000

     negative rho (up, down):  8.965E-02 0.000E+00
     Starting wfcs are  201 randomized atomic wfcs

     total cpu time spent up to now is       10.7 secs

     Self-consistent Calculation

     iteration #  1     ecut=    60.00 Ry     beta= 0.20
     Davidson diagonalization with overlap
     ethr =  1.00E-02,  avg # of iterations =  2.0

     negative rho (up, down):  8.750E-02 0.000E+00

     total cpu time spent up to now is       26.4 secs

     total energy              =   -1869.56422463 Ry
     Harris-Foulkes estimate   =   -1871.16599310 Ry
     estimated scf accuracy    <      14.29999296 Ry

     iteration #  2     ecut=    60.00 Ry     beta= 0.20
     Davidson diagonalization with overlap
     ethr =  6.24E-03,  avg # of iterations =  1.0

     negative rho (up, down):  8.630E-02 0.000E+00

     total cpu time spent up to now is       41.0 secs

     total energy              =   -1869.03669206 Ry
     Harris-Foulkes estimate   =   -1869.92410190 Ry
     estimated scf accuracy    <       5.73737478 Ry

     iteration #  3     ecut=    60.00 Ry     beta= 0.20
     Davidson diagonalization with overlap
     ethr =  2.51E-03,  avg # of iterations =  1.0

     negative rho (up, down):  8.589E-02 0.000E+00

     total cpu time spent up to now is       55.3 secs

     total energy              =   -1868.74878921 Ry
     Harris-Foulkes estimate   =   -1869.26014923 Ry
     estimated scf accuracy    <       3.78924188 Ry

     iteration #  4     ecut=    60.00 Ry     beta= 0.20
     Davidson diagonalization with overlap
     ethr =  1.65E-03,  avg # of iterations =  1.6

     negative rho (up, down):  8.623E-02 0.000E+00

     total cpu time spent up to now is       70.3 secs

     total energy              =   -1868.88778432 Ry
     Harris-Foulkes estimate   =   -1868.96842877 Ry
     estimated scf accuracy    <       2.37958173 Ry

     iteration #  5     ecut=    60.00 Ry     beta= 0.20
     Davidson diagonalization with overlap
     ethr =  1.04E-03,  avg # of iterations =  1.0

     negative rho (up, down):  8.676E-02 0.000E+00

     total cpu time spent up to now is       84.6 secs

     total energy              =   -1868.85014181 Ry
     Harris-Foulkes estimate   =   -1868.93970266 Ry
     estimated scf accuracy    <       1.15789451 Ry

     iteration #  6     ecut=    60.00 Ry     beta= 0.20
     Davidson diagonalization with overlap
     ethr =  5.06E-04,  avg # of iterations =  1.5

     negative rho (up, down):  8.796E-02 0.000E+00

     total cpu time spent up to now is       99.3 secs

     total energy              =   -1868.81077143 Ry
     Harris-Foulkes estimate   =   -1868.87049199 Ry
     estimated scf accuracy    <       0.65343086 Ry

     iteration #  7     ecut=    60.00 Ry     beta= 0.20
     Davidson diagonalization with overlap
     ethr =  2.85E-04,  avg # of iterations =  4.7

     negative rho (up, down):  8.953E-02 0.000E+00

     total cpu time spent up to now is      117.8 secs

     total energy              =   -1868.79083010 Ry
     Harris-Foulkes estimate   =   -1868.82677014 Ry
     estimated scf accuracy    <       0.29884814 Ry

     iteration #  8     ecut=    60.00 Ry     beta= 0.20
     Davidson diagonalization with overlap
     ethr =  1.31E-04,  avg # of iterations =  5.3

     negative rho (up, down):  9.017E-02 0.000E+00

     total cpu time spent up to now is      138.8 secs

     total energy              =   -1868.79816921 Ry
     Harris-Foulkes estimate   =   -1868.82011569 Ry
     estimated scf accuracy    <       0.25364767 Ry

     iteration #  9     ecut=    60.00 Ry     beta= 0.20
     Davidson diagonalization with overlap
     ethr =  1.11E-04,  avg # of iterations =  1.0

     negative rho (up, down):  9.052E-02 0.000E+00

     total cpu time spent up to now is      152.9 secs

     total energy              =   -1868.80560455 Ry
     Harris-Foulkes estimate   =   -1868.80890505 Ry
     estimated scf accuracy    <       0.46149807 Ry

     iteration # 10     ecut=    60.00 Ry     beta= 0.20
     Davidson diagonalization with overlap
     ethr =  1.11E-04,  avg # of iterations =  1.0

     negative rho (up, down):  9.074E-02 0.000E+00

     total cpu time spent up to now is      167.3 secs

     total energy              =   -1868.79669065 Ry
     Harris-Foulkes estimate   =   -1868.80837618 Ry
     estimated scf accuracy    <       0.35285844 Ry

     iteration # 11     ecut=    60.00 Ry     beta= 0.20
     Davidson diagonalization with overlap
     ethr =  1.11E-04,  avg # of iterations =  1.0

     negative rho (up, down):  9.037E-02 0.000E+00

     total cpu time spent up to now is      181.5 secs

     total energy              =   -1868.79762549 Ry
     Harris-Foulkes estimate   =   -1868.80125846 Ry
     estimated scf accuracy    <       0.04858672 Ry

     iteration # 12     ecut=    60.00 Ry     beta= 0.20
     Davidson diagonalization with overlap
     ethr =  2.12E-05,  avg # of iterations =  8.9

     negative rho (up, down):  9.005E-02 0.000E+00

     total cpu time spent up to now is      206.5 secs

     total energy              =   -1868.79631319 Ry
     Harris-Foulkes estimate   =   -1868.80027241 Ry
     estimated scf accuracy    <       0.03177806 Ry

     iteration # 13     ecut=    60.00 Ry     beta= 0.20
     Davidson diagonalization with overlap
     ethr =  1.39E-05,  avg # of iterations =  5.0

     negative rho (up, down):  8.961E-02 0.000E+00

     total cpu time spent up to now is      225.2 secs

     total energy              =   -1868.79425053 Ry
     Harris-Foulkes estimate   =   -1868.79706047 Ry
     estimated scf accuracy    <       0.02114336 Ry

     iteration # 14     ecut=    60.00 Ry     beta= 0.20
     Davidson diagonalization with overlap
     ethr =  9.23E-06,  avg # of iterations =  5.9

     negative rho (up, down):  8.950E-02 0.000E+00

     total cpu time spent up to now is      245.8 secs

     total energy              =   -1868.79507359 Ry
     Harris-Foulkes estimate   =   -1868.79594930 Ry
     estimated scf accuracy    <       0.01330941 Ry

     iteration # 15     ecut=    60.00 Ry     beta= 0.20
     Davidson diagonalization with overlap
     ethr =  5.81E-06,  avg # of iterations =  1.7

     negative rho (up, down):  8.920E-02 0.000E+00

     total cpu time spent up to now is      260.6 secs

     total energy              =   -1868.79505698 Ry
     Harris-Foulkes estimate   =   -1868.79567600 Ry
     estimated scf accuracy    <       0.01545450 Ry

     iteration # 16     ecut=    60.00 Ry     beta= 0.20
     Davidson diagonalization with overlap
     ethr =  5.81E-06,  avg # of iterations =  1.2

     negative rho (up, down):  9.317E-02 0.000E+00

     total cpu time spent up to now is      274.9 secs

     total energy              =   -1868.79350073 Ry
     Harris-Foulkes estimate   =   -1868.79517651 Ry
     estimated scf accuracy    <       0.01946452 Ry

     iteration # 17     ecut=    60.00 Ry     beta= 0.20
     Davidson diagonalization with overlap
     c_bands:  1 eigenvalues not converged
     ethr =  5.81E-06,  avg # of iterations =  6.5

     negative rho (up, down):  9.555E-02 0.000E+00

     total cpu time spent up to now is      295.8 secs

     total energy              =   -1868.79336992 Ry
     Harris-Foulkes estimate   =   -1868.79389144 Ry
     estimated scf accuracy    <       0.01816820 Ry

     iteration # 18     ecut=    60.00 Ry     beta= 0.20
     Davidson diagonalization with overlap
     ethr =  5.81E-06,  avg # of iterations =  2.6

     negative rho (up, down):  9.664E-02 0.000E+00

     total cpu time spent up to now is      311.8 secs

     total energy              =   -1868.79258394 Ry
     Harris-Foulkes estimate   =   -1868.79341985 Ry
     estimated scf accuracy    <       0.01380412 Ry

     iteration # 19     ecut=    60.00 Ry     beta= 0.20
     Davidson diagonalization with overlap
     ethr =  5.81E-06,  avg # of iterations =  3.5

     negative rho (up, down):  9.359E-02 0.000E+00

     total cpu time spent up to now is      329.0 secs

     total energy              =   -1868.79222309 Ry
     Harris-Foulkes estimate   =   -1868.79267558 Ry
     estimated scf accuracy    <       0.01238617 Ry

     iteration # 20     ecut=    60.00 Ry     beta= 0.20
     Davidson diagonalization with overlap
     ethr =  5.41E-06,  avg # of iterations =  2.1

     negative rho (up, down):  9.050E-02 0.000E+00

     total cpu time spent up to now is      344.4 secs

     total energy              =   -1868.79186859 Ry
     Harris-Foulkes estimate   =   -1868.79226394 Ry
     estimated scf accuracy    <       0.00894927 Ry

     iteration # 21     ecut=    60.00 Ry     beta= 0.20
     Davidson diagonalization with overlap
     ethr =  3.91E-06,  avg # of iterations =  3.4

     negative rho (up, down):  9.735E-02 0.000E+00

     total cpu time spent up to now is      361.4 secs

     total energy              =   -1868.79071045 Ry
     Harris-Foulkes estimate   =   -1868.79190029 Ry
     estimated scf accuracy    <       0.00613134 Ry

     iteration # 22     ecut=    60.00 Ry     beta= 0.20
     Davidson diagonalization with overlap
     ethr =  2.68E-06,  avg # of iterations =  7.7

     negative rho (up, down):  1.024E-01 0.000E+00

     total cpu time spent up to now is      384.8 secs

     total energy              =   -1868.79072569 Ry
     Harris-Foulkes estimate   =   -1868.79081641 Ry
     estimated scf accuracy    <       0.00189638 Ry

     iteration # 23     ecut=    60.00 Ry     beta= 0.20
     Davidson diagonalization with overlap
     c_bands:  1 eigenvalues not converged
     ethr =  8.28E-07,  avg # of iterations =  8.0

     negative rho (up, down):  9.829E-02 0.000E+00

     total cpu time spent up to now is      408.1 secs

     total energy              =   -1868.79068832 Ry
     Harris-Foulkes estimate   =   -1868.79076627 Ry
     estimated scf accuracy    <       0.00110210 Ry

     iteration # 24     ecut=    60.00 Ry     beta= 0.20
     Davidson diagonalization with overlap
     ethr =  4.81E-07,  avg # of iterations =  2.8

     negative rho (up, down):  9.287E-02 0.000E+00

     total cpu time spent up to now is      424.5 secs

     total energy              =   -1868.79070170 Ry
     Harris-Foulkes estimate   =   -1868.79070943 Ry
     estimated scf accuracy    <       0.00075178 Ry

     iteration # 25     ecut=    60.00 Ry     beta= 0.20
     Davidson diagonalization with overlap
     c_bands:  1 eigenvalues not converged
     ethr =  3.28E-07,  avg # of iterations =  6.6

     negative rho (up, down):  9.112E-02 0.000E+00

     total cpu time spent up to now is      445.8 secs

     total energy              =   -1868.79068695 Ry
     Harris-Foulkes estimate   =   -1868.79072107 Ry
     estimated scf accuracy    <       0.00041561 Ry

     iteration # 26     ecut=    60.00 Ry     beta= 0.20
     Davidson diagonalization with overlap
     c_bands:  1 eigenvalues not converged
     ethr =  1.81E-07,  avg # of iterations =  6.5

     negative rho (up, down):  9.200E-02 0.000E+00

     total cpu time spent up to now is      467.0 secs

     total energy              =   -1868.79070804 Ry
     Harris-Foulkes estimate   =   -1868.79070775 Ry
     estimated scf accuracy    <       0.00018170 Ry

     iteration # 27     ecut=    60.00 Ry     beta= 0.20
     Davidson diagonalization with overlap
     ethr =  7.93E-08,  avg # of iterations =  4.2

     negative rho (up, down):  9.138E-02 0.000E+00

     total cpu time spent up to now is      485.0 secs

     total energy              =   -1868.79071665 Ry
     Harris-Foulkes estimate   =   -1868.79071322 Ry
     estimated scf accuracy    <       0.00014236 Ry

     iteration # 28     ecut=    60.00 Ry     beta= 0.20
     Davidson diagonalization with overlap
     ethr =  6.22E-08,  avg # of iterations =  2.5

     negative rho (up, down):  9.116E-02 0.000E+00

     total cpu time spent up to now is      501.0 secs

     total energy              =   -1868.79070771 Ry
     Harris-Foulkes estimate   =   -1868.79072013 Ry
     estimated scf accuracy    <       0.00009664 Ry

     iteration # 29     ecut=    60.00 Ry     beta= 0.20
     Davidson diagonalization with overlap
     c_bands:  1 eigenvalues not converged
     ethr =  4.22E-08,  avg # of iterations =  5.3

     negative rho (up, down):  9.123E-02 0.000E+00

     total cpu time spent up to now is      521.0 secs

     total energy              =   -1868.79071557 Ry
     Harris-Foulkes estimate   =   -1868.79071480 Ry
     estimated scf accuracy    <       0.00002560 Ry

     iteration # 30     ecut=    60.00 Ry     beta= 0.20
     Davidson diagonalization with overlap
     ethr =  1.12E-08,  avg # of iterations =  1.1

     negative rho (up, down):  9.127E-02 0.000E+00

     total cpu time spent up to now is      535.1 secs

     total energy              =   -1868.79071632 Ry
     Harris-Foulkes estimate   =   -1868.79071620 Ry
     estimated scf accuracy    <       0.00002178 Ry

     iteration # 31     ecut=    60.00 Ry     beta= 0.20
     Davidson diagonalization with overlap
     ethr =  9.51E-09,  avg # of iterations =  1.0

     negative rho (up, down):  9.108E-02 0.000E+00

     total cpu time spent up to now is      549.4 secs

     total energy              =   -1868.79071361 Ry
     Harris-Foulkes estimate   =   -1868.79071665 Ry
     estimated scf accuracy    <       0.00001358 Ry

     iteration # 32     ecut=    60.00 Ry     beta= 0.20
     Davidson diagonalization with overlap
     ethr =  5.93E-09,  avg # of iterations =  1.1

     negative rho (up, down):  9.092E-02 0.000E+00

     total cpu time spent up to now is      563.6 secs

     total energy              =   -1868.79071392 Ry
     Harris-Foulkes estimate   =   -1868.79071398 Ry
     estimated scf accuracy    <       0.00000619 Ry

     iteration # 33     ecut=    60.00 Ry     beta= 0.20
     Davidson diagonalization with overlap
     ethr =  2.70E-09,  avg # of iterations =  1.1

     negative rho (up, down):  9.063E-02 0.000E+00

     total cpu time spent up to now is      577.9 secs

     total energy              =   -1868.79071401 Ry
     Harris-Foulkes estimate   =   -1868.79071404 Ry
     estimated scf accuracy    <       0.00000424 Ry

     iteration # 34     ecut=    60.00 Ry     beta= 0.20
     Davidson diagonalization with overlap
     ethr =  1.85E-09,  avg # of iterations =  3.0

     negative rho (up, down):  9.064E-02 0.000E+00

     total cpu time spent up to now is      594.7 secs

     total energy              =   -1868.79071416 Ry
     Harris-Foulkes estimate   =   -1868.79071424 Ry
     estimated scf accuracy    <       0.00000172 Ry

     iteration # 35     ecut=    60.00 Ry     beta= 0.20
     Davidson diagonalization with overlap
     ethr =  7.53E-10,  avg # of iterations =  1.3

     negative rho (up, down):  9.070E-02 0.000E+00

     total cpu time spent up to now is      609.2 secs

     total energy              =   -1868.79071393 Ry
     Harris-Foulkes estimate   =   -1868.79071420 Ry
     estimated scf accuracy    <       0.00000115 Ry

     iteration # 36     ecut=    60.00 Ry     beta= 0.20
     Davidson diagonalization with overlap
     ethr =  5.03E-10,  avg # of iterations =  1.5

     negative rho (up, down):  9.059E-02 0.000E+00

     total cpu time spent up to now is      623.4 secs

     End of self-consistent calculation

          k = 0.0000 0.0000 0.0000 ( 35655 PWs)   bands (ev):

   -38.1420 -37.8715 -23.6369 -22.7971 -22.7750 -22.6691 -18.6770 -18.3758
   -18.1466 -18.1367 -17.8926 -17.8770 -15.4728 -15.2406 -14.6726 -14.5127
   -14.3014 -14.2825 -14.2581 -14.1711 -14.1094 -13.9966 -13.7807 -13.7785
   -13.6259 -13.5207 -13.4325  -8.9165  -8.4775  -8.4611  -8.0191  -7.9912
    -7.9452  -7.7896  -7.7691  -7.7628  -7.7414  -7.6227  -7.6013  -2.1013
    -2.0678  -1.9305  -1.9221  -1.9071  -1.8841  -1.8814  -1.8130  -1.7845
    -1.7705  -1.7361  -1.5681  -1.4422  -0.9029  -0.8933  -0.6647  -0.5494
    -0.4881  -0.4805  -0.3819  -0.3725  -0.1220  -0.0912  -0.0896  -0.0546
    -0.0523   0.0021   0.0747   0.1104   0.1148   0.1240   0.2077   0.2522
     0.2629   0.2694   0.3374   0.3578   0.3748   0.3779   0.4128   0.4251
     0.4378   0.5132   0.5155   0.5232   0.5549   0.6352   0.6401   0.7258
     0.7682   0.8809   0.9959   1.0741   1.1984   1.2104   1.2609   1.3161
     1.3355   1.3616   1.3633   1.4141   1.4659   1.4818   1.5278   1.6203
     1.8249   1.8416   1.9529   1.9572   1.9639   1.9909   2.0020   2.1623
     2.1791   2.2321   2.2545   2.3554   2.3795   2.6413   2.6485   4.8987
     5.2529   5.3039   5.6755   5.8544   6.3116   6.6044   6.6728   6.7252
     7.2227   7.6321   7.8805   8.0543   8.1342   8.1566   8.3411   8.3858
     8.6250   8.6865

          k = 0.0000 0.1281 0.0000 ( 35657 PWs)   bands (ev):

   -38.1397 -37.8692 -23.6187 -22.7756 -22.7534 -22.6484 -18.6411 -18.3397
   -18.2410 -18.1434 -17.9815 -17.8894 -15.3641 -15.1392 -14.6254 -14.5206
   -14.3184 -14.2916 -14.2275 -14.1644 -14.0881 -14.0429 -13.7860 -13.7846
   -13.6557 -13.5782 -13.5083  -8.9028  -8.4909  -8.4279  -8.0017  -7.9748
    -7.9339  -7.7823  -7.7610  -7.7484  -7.7278  -7.6213  -7.5839  -2.2050
    -2.1731  -2.1482  -2.0520  -1.8828  -1.8797  -1.8703  -1.8611  -1.7887
    -1.7406  -1.7206  -1.5727  -1.4328  -1.4269  -1.0055  -1.0001  -0.8526
    -0.8448  -0.6006  -0.4540  -0.4326  -0.4166  -0.2809  -0.2644  -0.1996
    -0.1428  -0.1398  -0.1237  -0.0981  -0.0911  -0.0335   0.0809   0.1013
     0.2297   0.2662   0.2727   0.3880   0.4200   0.4984   0.5046   0.5183
     0.5215   0.5233   0.5899   0.6039   0.6374   0.8144   0.8179   0.8187
     0.8266   0.8988   1.0030   1.0220   1.0433   1.1479   1.1738   1.2927
     1.3965   1.4502   1.4834   1.5300   1.5464   1.5983   1.6202   1.6590
     1.7284   1.7505   1.8708   1.9045   1.9400   1.9747   2.0182   2.1247
     2.1613   2.2031   2.4580   2.4995   2.8885   2.9635   2.9853   5.1576
     5.6282   5.6482   5.9483   6.1255   6.5325   6.8464   6.9816   7.0224
     7.4579   7.8210   8.0837   8.0962   8.2623   8.3017   8.3239   8.4916
     8.8091   8.8341

          k = 0.0000 0.2563 0.0000 ( 35678 PWs)   bands (ev):

   -38.1341 -37.8635 -23.5742 -22.7225 -22.7003 -22.5973 -18.5500 -18.4661
   -18.2523 -18.2027 -18.1356 -17.8816 -15.1164 -14.9163 -14.5967 -14.4986
   -14.4118 -14.3483 -14.2030 -14.1614 -14.1093 -13.9990 -13.7688 -13.7632
   -13.7133 -13.6983 -13.6923  -8.8639  -8.5221  -8.3456  -7.9604  -7.9348
    -7.9045  -7.8234  -7.8022  -7.6646  -7.6451  -7.6244  -7.4872  -2.6321
    -2.5635  -2.5001  -2.3635  -2.1981  -2.0320  -2.0256  -1.9106  -1.7806
    -1.7646  -1.7612  -1.7587  -1.6756  -1.6677  -1.5056  -1.3762  -1.2839
    -0.8961  -0.8329  -0.7955  -0.6616  -0.5831  -0.5708  -0.5064  -0.4637
    -0.4166  -0.3711  -0.3664  -0.3157  -0.2558  -0.2350  -0.1888  -0.0764
    -0.0712   0.0789   0.1234   0.2116   0.3030   0.3719   0.4186   0.4751
     0.5447   0.5588   0.5768   0.5859   0.6120   0.7493   0.9355   1.0000
     1.0043   1.0684   1.1587   1.1922   1.2146   1.3231   1.3493   1.4140
     1.4839   1.4875   1.5129   1.5942   1.6253   1.6346   1.6852   1.7169
     1.7619   1.8110   1.8330   1.9797   2.0346   2.0956   2.2062   2.2370
     2.2412   2.2886   2.6142   2.6579   3.2628   3.2691   3.7642   5.7185
     6.5229   6.5232   6.6287   6.7770   7.1687   7.2302   7.8321   7.8584
     7.9661   8.1038   8.1255   8.1910   8.5137   8.5928   8.7096   8.7705
     8.8755   8.9941

          k = 0.0000 0.3844 0.0000 ( 35608 PWs)   bands (ev):

   -38.1285 -37.8579 -23.5287 -22.6680 -22.6457 -22.5448 -18.6639 -18.4517
   -18.4068 -18.1475 -18.1279 -17.8738 -14.8673 -14.7388 -14.7284 -14.5324
   -14.4553 -14.3314 -14.2884 -14.1316 -14.1086 -13.9160 -13.8830 -13.8355
   -13.7312 -13.7043 -13.6953  -8.8128  -8.5574  -8.2599  -7.9205  -7.8946
    -7.8706  -7.8563  -7.8354  -7.7045  -7.5361  -7.5152  -7.3855  -3.1006
    -2.9877  -2.9369  -2.7641  -2.5936  -2.5882  -2.5221  -1.9399  -1.9356
    -1.8259  -1.7929  -1.7044  -1.5968  -1.5770  -1.5751  -1.5730  -1.3070
    -1.0697  -0.9947  -0.9217  -0.8616  -0.7952  -0.7745  -0.7619  -0.7059
    -0.6124  -0.6063  -0.5601  -0.5551  -0.4487  -0.3282  -0.3199  -0.3149
    -0.2723  -0.1007  -0.0618   0.0282   0.1013   0.2275   0.2422   0.4119
     0.5313   0.5533   0.6008   0.6087   0.7873   0.7917   0.9679   0.9915
     1.0075   1.0480   1.1556   1.2505   1.3157   1.3678   1.4014   1.4400
     1.4977   1.5612   1.5702   1.6274   1.7117   1.7833   1.8867   1.9612
     2.0337   2.0454   2.0990   2.1348   2.1492   2.2096   2.2343   2.3780
     2.5874   2.6122   2.6436   2.6487   3.2343   3.2377   4.3331   6.3155
     6.9050   7.3883   7.4605   7.6077   7.7910   7.8537   7.9119   8.0762
     8.1857   8.5992   8.6649   8.7391   8.8359   8.8929   9.0464   9.0946
     9.2030   9.5312

          k = 0.0000-0.5125 0.0000 ( 35730 PWs)   bands (ev):

   -38.1261 -37.8556 -23.5096 -22.6449 -22.6226 -22.5227 -18.7399 -18.4827
   -18.4086 -18.1246 -18.1043 -17.8705 -14.8198 -14.7357 -14.7015 -14.5396
   -14.5207 -14.3343 -14.1865 -14.1763 -14.0913 -14.0477 -13.8767 -13.8067
   -13.7508 -13.6770 -13.6730  -8.7854  -8.5764  -8.2234  -7.9046  -7.8779
    -7.8681  -7.8533  -7.8470  -7.7218  -7.4890  -7.4680  -7.3417  -3.3431
    -3.1369  -3.0871  -2.8983  -2.8294  -2.8199  -2.6550  -1.9746  -1.9699
    -1.8874  -1.8441  -1.6779  -1.6723  -1.5582  -1.5026  -1.3885  -1.3631
    -1.1338  -1.0494  -1.0410  -1.0361  -0.9353  -0.8379  -0.7873  -0.7631
    -0.7167  -0.7080  -0.6265  -0.5424  -0.4726  -0.4167  -0.4071  -0.4019
    -0.3377  -0.2777  -0.0949  -0.0589   0.1102   0.1308   0.1515   0.4832
     0.5223   0.5258   0.6067   0.6143   0.6765   0.8642   0.9477   1.0290
     1.0400   1.0870   1.1040   1.3348   1.3579   1.3975   1.4474   1.5118
     1.5154   1.5225   1.5413   1.6096   1.7388   1.7499   2.0124   2.0333
     2.0837   2.1174   2.1914   2.1979   2.2918   2.4490   2.4674   2.4811
     2.5065   2.5127   2.8058   2.8111   3.0980   3.1003   4.5195   6.5624
     7.0449   7.6532   7.8026   7.8111   7.9044   7.9113   8.0328   8.2284
     8.4024   8.7778   8.9131   8.9990   9.1656   9.1845   9.2215   9.2834
     9.3619   9.5952

          k = 0.1250 0.0000 0.0000 ( 35698 PWs)   bands (ev):

   -38.1402 -37.8697 -23.6217 -22.7787 -22.7565 -22.6514 -18.6445 -18.3427
   -18.2467 -18.1342 -17.9941 -17.8745 -15.3573 -15.1296 -14.6948 -14.5398
   -14.3573 -14.3303 -14.2362 -14.1933 -14.0895 -14.0258 -13.7812 -13.7811
   -13.6365 -13.5810 -13.4646  -8.9390  -8.4504  -8.4224  -8.0289  -8.0017
    -7.9625  -7.7546  -7.7340  -7.7285  -7.7071  -7.5851  -7.5692  -2.1913
    -2.1060  -2.0997  -2.0183  -1.8674  -1.8658  -1.8562  -1.8023  -1.7792
    -1.7666  -1.7518  -1.5635  -1.5560  -0.9166  -0.8908  -0.6492  -0.5856
    -0.4874  -0.4825  -0.4750  -0.4120  -0.3025  -0.2248  -0.1759  -0.1704
    -0.1642  -0.1293  -0.0706  -0.0686  -0.0011   0.0687   0.0934   0.1053
     0.1622   0.3387   0.3790   0.3846   0.4245   0.4538   0.4808   0.4901
     0.4997   0.5234   0.5319   0.5319   0.6054   0.6346   0.6371   0.6575
     0.8797   0.9502   0.9892   1.0146   1.0527   1.0830   1.2236   1.2271
     1.2284   1.3547   1.3647   1.4235   1.4546   1.4762   1.5127   1.7005
     1.7274   1.8965   1.9048   1.9668   1.9686   2.0597   2.1091   2.1237
     2.1314   2.2766   2.3204   2.4293   2.5187   2.6859   2.6917   5.1143
     5.4479   5.4728   5.8852   6.0752   6.4955   6.7838   6.9076   6.9445
     7.4223   7.8345   8.0620   8.1372   8.2862   8.3644   8.3714   8.4988
     8.8308   8.9178

          k = 0.1250 0.1281 0.0000 ( 35686 PWs)   bands (ev):

   -38.1379 -37.8674 -23.6040 -22.7579 -22.7357 -22.6313 -18.6091 -18.3071
   -18.2504 -18.2293 -17.9955 -17.9719 -15.2495 -15.0311 -14.6450 -14.5374
   -14.3572 -14.3268 -14.2084 -14.1657 -14.0938 -14.0793 -13.7806 -13.7805
   -13.6654 -13.6221 -13.5260  -8.9181  -8.6033  -8.3043  -8.0155  -7.9899
    -7.9486  -7.9022  -7.8811  -7.7388  -7.6047  -7.5838  -7.4482  -2.2980
    -2.2376  -2.2358  -2.0508  -1.9434  -1.9005  -1.8726  -1.8553  -1.8467
    -1.7751  -1.6793  -1.6196  -1.4999  -1.4454  -1.0009  -0.9943  -0.9002
    -0.8012  -0.6479  -0.5956  -0.5317  -0.4899  -0.4665  -0.4294  -0.3522
    -0.2840  -0.2793  -0.2022  -0.1369  -0.1197   0.0572   0.1401   0.1598
     0.1697   0.2581   0.2681   0.3452   0.4302   0.4644   0.4879   0.4993
     0.5133   0.5739   0.5743   0.5990   0.6138   0.6732   0.7954   0.8212
     0.8262   0.9696   1.1147   1.1412   1.1567   1.1694   1.1886   1.2238
     1.2266   1.3882   1.4422   1.4620   1.5198   1.5367   1.5922   1.6456
     1.7175   1.8224   1.8349   1.8446   1.8841   1.8970   2.1515   2.2092
     2.4653   2.4878   2.6745   2.8131   2.9069   2.9782   2.9969   5.3213
     5.7738   5.7830   6.1219   6.3010   6.7026   6.9575   7.2088   7.2411
     7.6392   7.9509   8.0607   8.2029   8.2926   8.3725   8.4585   8.6320
     8.8113   8.9256

          k = 0.1250 0.2563 0.0000 ( 35740 PWs)   bands (ev):

   -38.1323 -37.8618 -23.5608 -22.7067 -22.6845 -22.5819 -18.5192 -18.4616
   -18.2310 -18.2256 -18.1934 -17.9783 -15.0043 -14.8194 -14.5816 -14.5114
   -14.3963 -14.3497 -14.1857 -14.1660 -14.1441 -14.0380 -13.7591 -13.7546
   -13.7215 -13.6960 -13.6867  -8.8692  -8.7108  -8.2716  -8.0261  -8.0048
    -7.9604  -7.9356  -7.9116  -7.8492  -7.5607  -7.5398  -7.4113  -2.7330
    -2.6423  -2.5258  -2.3623  -2.2223  -2.0515  -2.0335  -1.9563  -1.8785
    -1.8677  -1.7652  -1.7555  -1.7527  -1.6132  -1.5833  -1.4409  -1.2902
    -0.9740  -0.9072  -0.8345  -0.8186  -0.7798  -0.7424  -0.6635  -0.5891
    -0.5515  -0.5202  -0.3089  -0.2940  -0.2511  -0.2071  -0.1332  -0.0638
     0.0222   0.1540   0.1838   0.3507   0.3656   0.3812   0.4175   0.4478
     0.5187   0.5292   0.5986   0.6091   0.6275   0.7029   0.8638   0.9663
     1.1714   1.1807   1.1849   1.2741   1.2818   1.3681   1.3703   1.4121
     1.4166   1.4834   1.5798   1.6133   1.6423   1.6511   1.6770   1.6975
     1.7046   1.8417   1.8579   1.8665   2.1000   2.2085   2.2126   2.3022
     2.7025   2.7464   2.9444   3.0524   3.2678   3.2808   3.7669   5.8275
     6.5766   6.5782   6.6265   6.8768   7.2308   7.2907   7.8156   7.9975
     8.0334   8.0524   8.1944   8.2849   8.5858   8.6511   8.7171   8.7728
     8.9017   9.0284

          k = 0.1250 0.3844 0.0000 ( 35733 PWs)   bands (ev):

   -38.1267 -37.8561 -23.5166 -22.6542 -22.6319 -22.5313 -18.6579 -18.4224
   -18.4007 -18.2211 -18.1175 -17.9684 -14.7656 -14.6937 -14.6649 -14.4536
   -14.4266 -14.3308 -14.2710 -14.1718 -14.1091 -13.9206 -13.8856 -13.8138
   -13.7211 -13.7003 -13.6921  -8.8198  -8.7216  -8.3265  -8.0308  -8.0097
    -7.9301  -7.9048  -7.8773  -7.8671  -7.6086  -7.5878  -7.4578  -3.1335
    -3.0559  -3.0296  -2.8158  -2.5945  -2.5780  -2.5563  -1.9718  -1.9574
    -1.8752  -1.7919  -1.7566  -1.7368  -1.6701  -1.5205  -1.5035  -1.4648
    -1.2847  -1.1879  -1.1874  -1.0289  -0.9393  -0.9183  -0.9022  -0.6716
    -0.6585  -0.5409  -0.4936  -0.4531  -0.4371  -0.3650  -0.3142  -0.2492
    -0.2360   0.0492   0.1673   0.2356   0.3046   0.3086   0.3648   0.4693
     0.5232   0.5731   0.5991   0.6325   0.6354   0.8140   0.9536   1.0555
     1.1575   1.1704   1.2131   1.2482   1.3574   1.4319   1.4775   1.4955
     1.5473   1.5563   1.6050   1.6217   1.7197   1.8416   1.8717   1.9554
     2.0428   2.0669   2.0893   2.2238   2.2268   2.3888   2.6183   2.6228
     2.7291   2.7841   2.9627   3.0374   3.2593   3.2781   4.3274   6.3656
     6.6905   7.2854   7.3243   7.4996   7.6313   7.7396   7.8181   7.9914
     8.2305   8.5829   8.6107   8.8423   8.9563   9.1003   9.1362   9.1680
     9.3537   9.5355

          k = 0.1250-0.5125 0.0000 ( 35736 PWs)   bands (ev):

   -38.1244 -37.8538 -23.4981 -22.6320 -22.6097 -22.5099 -18.7335 -18.4762
   -18.3799 -18.2170 -18.0749 -17.9642 -14.7790 -14.6567 -14.6183 -14.4862
   -14.4360 -14.3132 -14.1901 -14.1481 -14.1454 -14.0115 -13.8512 -13.8451
   -13.7249 -13.6768 -13.6718  -8.7935  -8.7046  -8.3739  -8.0055  -7.9845
    -7.9165  -7.8905  -7.8615  -7.8521  -7.6567  -7.6359  -7.4999  -3.3393
    -3.2461  -3.1833  -2.9568  -2.8259  -2.8142  -2.7050  -1.9896  -1.9798
    -1.8687  -1.7605  -1.7297  -1.6666  -1.6345  -1.5760  -1.5288  -1.4663
    -1.4316  -1.3998  -1.2330  -1.1279  -1.0917  -0.9749  -0.9688  -0.7121
    -0.6351  -0.5980  -0.5655  -0.5102  -0.4705  -0.4045  -0.3725  -0.3608
    -0.2371   0.0124   0.1036   0.1680   0.2987   0.3022   0.3121   0.4868
     0.5204   0.5884   0.5911   0.6361   0.6831   0.8689   0.8738   1.0571
     1.1800   1.1846   1.2093   1.3173   1.3659   1.4185   1.4955   1.5110
     1.5481   1.5673   1.6448   1.6511   1.7122   1.8658   1.9693   2.0995
     2.1644   2.1804   2.2791   2.4421   2.4993   2.5058   2.6936   2.7496
     2.7851   2.7901   2.8789   2.9322   3.1557   3.1853   4.5118   6.4054
     7.1830   7.2314   7.4768   7.5562   7.5781   7.7572   7.8751   8.2806
     8.3329   8.7973   9.0922   9.1211   9.2479   9.3879   9.4155   9.4766
     9.5234   9.5713

          k = 0.2500 0.0000 0.0000 ( 35766 PWs)   bands (ev):

   -38.1358 -37.8653 -23.5846 -22.7335 -22.7113 -22.6080 -18.5627 -18.4616
   -18.2594 -18.2112 -18.1282 -17.8684 -15.0930 -14.8916 -14.7628 -14.6470
   -14.4949 -14.4410 -14.2862 -14.1986 -14.0602 -14.0187 -13.7809 -13.7756
   -13.7272 -13.6465 -13.5249  -8.9696  -8.3836  -8.3513  -8.0389  -8.0130
    -7.9817  -7.6846  -7.6642  -7.6432  -7.6216  -7.5219  -7.4893  -2.4999
    -2.4413  -2.4059  -2.0514  -1.9131  -1.9017  -1.8738  -1.7939  -1.7672
    -1.7521  -1.6717  -1.5106  -1.5050  -0.9841  -0.9793  -0.7911  -0.7129
    -0.6832  -0.6014  -0.5604  -0.5014  -0.4651  -0.4616  -0.4484  -0.4367
    -0.4019  -0.3776  -0.3765  -0.2336  -0.1648  -0.0591   0.0635   0.0845
     0.1394   0.2370   0.2432   0.2582   0.3125   0.4016   0.4305   0.4334
     0.4920   0.4994   0.5178   0.6497   0.6633   0.6700   0.6723   0.7710
     0.8179   0.9753   0.9984   1.0526   1.0701   1.0802   1.1077   1.1835
     1.2822   1.3807   1.4347   1.5131   1.5295   1.5705   1.5714   1.6270
     1.6982   1.7135   1.7957   1.9675   2.0006   2.0258   2.0841   2.1153
     2.1980   2.2454   2.4693   2.6057   2.7003   2.8294   2.8380   5.5983
     5.9010   5.9044   6.4077   6.6401   6.9989   7.1924   7.5355   7.5594
     7.9472   8.0915   8.2586   8.3147   8.3965   8.5812   8.7527   8.9239
     9.1473   9.1593

          k = 0.2500 0.1281 0.0000 ( 35748 PWs)   bands (ev):

   -38.1335 -37.8630 -23.5682 -22.7146 -22.6923 -22.5896 -18.5287 -18.4559
   -18.2282 -18.2261 -18.2045 -17.9685 -14.9881 -14.8071 -14.7060 -14.6189
   -14.4551 -14.4162 -14.2493 -14.1694 -14.1256 -14.0312 -13.7699 -13.7652
   -13.7313 -13.6725 -13.5577  -8.9509  -8.6396  -8.2439  -8.0456  -8.0218
    -7.9791  -7.9296  -7.9078  -7.7693  -7.5306  -7.5096  -7.3844  -2.6376
    -2.5442  -2.4521  -2.1044  -1.9954  -1.9569  -1.9459  -1.8869  -1.8635
    -1.7819  -1.6971  -1.5954  -1.4709  -1.4156  -1.0344  -0.9968  -0.9928
    -0.9701  -0.9010  -0.8435  -0.8190  -0.7146  -0.6770  -0.6104  -0.5940
    -0.5173  -0.3575  -0.3179  -0.2486  -0.1935  -0.0133   0.0710   0.1566
     0.2049   0.2274   0.2735   0.3330   0.3436   0.3804   0.4103   0.4637
     0.4889   0.5031   0.6445   0.6975   0.6996   0.7256   0.7472   0.8333
     0.8349   1.0244   1.0498   1.1732   1.2169   1.2251   1.3011   1.3044
     1.3267   1.3690   1.4147   1.5039   1.5116   1.5303   1.6493   1.7010
     1.7146   1.7249   1.7302   1.8760   1.9395   1.9694   2.1310   2.2391
     2.7556   2.8063   2.9495   2.9846   3.0196   3.0850   3.1674   5.7338
     6.1433   6.1441   6.5144   6.7735   7.1359   7.2260   7.7855   7.8204
     7.8730   8.0875   8.1864   8.2512   8.4476   8.6104   8.8099   8.9191
     9.0180   9.1003

          k = 0.2500 0.2563 0.0000 ( 35777 PWs)   bands (ev):

   -38.1280 -37.8574 -23.5281 -22.6681 -22.6458 -22.5443 -18.4621 -18.4427
   -18.4256 -18.2088 -18.1748 -18.1329 -14.7563 -14.6453 -14.5768 -14.5391
   -14.3664 -14.3657 -14.2701 -14.1504 -14.1026 -14.1025 -13.7446 -13.7361
   -13.7326 -13.6870 -13.6573  -8.9358  -8.8639  -8.3358  -8.2323  -8.2113
    -8.0621  -7.9787  -7.9540  -7.9142  -7.6278  -7.6069  -7.4805  -3.0583
    -2.9253  -2.6784  -2.3569  -2.3458  -2.1358  -2.0963  -2.0641  -1.9844
    -1.9756  -1.8352  -1.7789  -1.7660  -1.7637  -1.4997  -1.4006  -1.3906
    -1.3594  -1.3056  -1.2073  -1.0252  -0.8629  -0.7810  -0.7474  -0.6876
    -0.5807  -0.5456  -0.3426  -0.2649  -0.2382  -0.1873  -0.1667  -0.0884
    -0.0256   0.0588   0.1124   0.3215   0.3531   0.3922   0.5523   0.6037
     0.6333   0.6628   0.6968   0.7514   0.7698   0.8683   0.9862   1.2206
     1.2250   1.2908   1.3555   1.3684   1.3731   1.3773   1.4112   1.4489
     1.4718   1.5299   1.5368   1.6167   1.7002   1.7193   1.7518   1.8062
     1.8285   1.8585   1.9526   1.9907   2.1307   2.1343   2.2145   2.3530
     3.2363   3.2382   3.3665   3.4269   3.5558   3.6810   3.7763   6.0978
     6.3881   6.6566   6.6643   7.1283   7.3252   7.4435   7.6137   7.9425
     8.3103   8.3318   8.4088   8.6607   8.7663   8.8135   8.8990   9.0050
     9.0443   9.1332

          k = 0.2500 0.3844 0.0000 ( 35801 PWs)   bands (ev):

   -38.1224 -37.8518 -23.4872 -22.6205 -22.5982 -22.4981 -18.6434 -18.4261
   -18.3861 -18.3472 -18.1747 -18.0417 -14.6324 -14.5488 -14.5031 -14.3470
   -14.3328 -14.3222 -14.2973 -14.2285 -14.0566 -13.9812 -13.8134 -13.7565
   -13.6985 -13.6891 -13.6620  -9.0212  -8.8398  -8.5549  -8.3390  -8.3179
    -8.1614  -7.9574  -7.9324  -7.9026  -7.8646  -7.8439  -7.7016  -3.4727
    -3.3391  -3.0694  -2.9736  -2.7344  -2.5536  -2.5516  -2.1615  -2.1183
    -2.0595  -1.8706  -1.8698  -1.8637  -1.8091  -1.7902  -1.7223  -1.6375
    -1.4165  -1.3596  -1.3184  -1.1964  -0.9697  -0.8679  -0.8560  -0.7357
    -0.6111  -0.5646  -0.4997  -0.4262  -0.3616  -0.3277  -0.3131  -0.2115
    -0.1645  -0.0750   0.0427   0.3339   0.3739   0.4354   0.6450   0.6948
     0.7012   0.7806   0.7924   0.8536   0.9823   1.0527   1.2861   1.2953
     1.3030   1.3058   1.4613   1.5047   1.5274   1.5858   1.5962   1.6313
     1.6690   1.7087   1.7462   1.7793   1.7988   1.8045   1.9357   1.9953
     2.0194   2.0573   2.1201   2.2461   2.2538   2.3975   2.5523   2.5566
     3.1638   3.1662   3.6445   3.7176   3.8236   3.9318   4.3103   5.9597
     6.5571   6.8234   6.8409   7.1197   7.2738   7.6829   7.9339   8.1238
     8.3412   8.6805   8.7078   8.9015   9.2126   9.2644   9.4179   9.4995
     9.6451   9.7107

          k = 0.2500-0.5125 0.0000 ( 35798 PWs)   bands (ev):

   -38.1201 -37.8495 -23.4701 -22.6005 -22.5781 -22.4786 -18.7179 -18.4605
   -18.4203 -18.3065 -18.1691 -18.0007 -14.6755 -14.5385 -14.4005 -14.3570
   -14.3064 -14.2701 -14.2671 -14.1797 -14.0696 -13.9250 -13.9003 -13.7598
   -13.6738 -13.6683 -13.6610  -9.0102  -8.8221  -8.6922  -8.3236  -8.3024
    -8.1568  -8.0240  -8.0033  -7.9437  -7.9182  -7.8975  -7.8349  -3.6362
    -3.5051  -3.2965  -3.1497  -2.8982  -2.7905  -2.7901  -2.1545  -2.1095
    -2.0270  -2.0258  -1.8791  -1.8751  -1.8663  -1.7834  -1.7614  -1.7571
    -1.4592  -1.4375  -1.3421  -1.2096  -1.0352  -0.8950  -0.8886  -0.7124
    -0.6112  -0.6084  -0.5543  -0.5020  -0.4308  -0.3837  -0.3755  -0.1968
    -0.1921  -0.0879   0.0228   0.3357   0.3802   0.4732   0.6645   0.7079
     0.7224   0.8391   0.8396   0.8577   1.1131   1.1683   1.3065   1.3888
     1.4051   1.4066   1.4128   1.5299   1.5400   1.5845   1.6430   1.6542
     1.6648   1.7259   1.7438   1.8425   1.8639   1.9332   2.0155   2.0740
     2.1035   2.1500   2.2344   2.3969   2.4946   2.5006   2.7304   2.7352
     3.0049   3.0085   3.7022   3.7791   3.8778   3.9801   4.4844   5.7800
     6.7221   6.7747   6.8154   7.0562   7.4740   7.4777   7.9321   8.2430
     8.5191   8.6446   9.2992   9.3000   9.3308   9.4925   9.5591   9.6694
     9.7345   9.8327

          k = 0.3750 0.0000 0.0000 ( 35770 PWs)   bands (ev):

   -38.1314 -37.8609 -23.5468 -22.6872 -22.6649 -22.5636 -18.6508 -18.4741
   -18.4022 -18.1685 -18.1221 -17.8622 -14.8627 -14.8464 -14.7754 -14.7570
   -14.5554 -14.5318 -14.4014 -14.2014 -14.0526 -13.9459 -13.8655 -13.7696
   -13.7639 -13.6539 -13.5663  -8.9784  -8.3146  -8.3022  -8.0402  -8.0146
    -7.9805  -7.6253  -7.6052  -7.5538  -7.5320  -7.4826  -7.4059  -2.8233
    -2.7557  -2.6714  -2.3617  -1.9815  -1.9731  -1.8081  -1.7127  -1.6461
    -1.6440  -1.6146  -1.4783  -1.4006  -1.0682  -1.0032  -0.9470  -0.9423
    -0.8474  -0.8218  -0.7944  -0.7340  -0.7294  -0.6137  -0.6002  -0.5984
    -0.5581  -0.5015  -0.4539  -0.4462  -0.2216  -0.2087  -0.1136  -0.0807
    -0.0258   0.0677   0.0821   0.1044   0.3662   0.4187   0.4498   0.4582
     0.4785   0.4860   0.6296   0.7090   0.7203   0.7280   0.7423   0.7466
     0.7754   0.8936   0.9003   1.0504   1.0939   1.1818   1.2566   1.2666
     1.3678   1.4607   1.4677   1.4948   1.5018   1.5398   1.5789   1.6164
     1.8012   1.8500   1.8961   1.9109   1.9835   2.0597   2.0852   2.1384
     2.2584   2.3043   2.4984   2.6433   2.6844   2.9257   2.9358   6.1420
     6.5381   6.5396   6.7696   7.2466   7.5625   7.6995   8.0393   8.0463
     8.0476   8.1979   8.2674   8.4902   8.6829   8.7858   8.9622   9.1486
     9.2431   9.4921

          k = 0.3750 0.1281 0.0000 ( 35738 PWs)   bands (ev):

   -38.1292 -37.8586 -23.5317 -22.6702 -22.6479 -22.5468 -18.6435 -18.4411
   -18.3948 -18.2204 -18.1358 -17.9605 -14.8038 -14.7732 -14.7235 -14.6742
   -14.5124 -14.4541 -14.3520 -14.1679 -14.1200 -13.9370 -13.8374 -13.7555
   -13.7475 -13.6838 -13.5772  -8.9615  -8.5796  -8.3023  -8.0407  -8.0162
    -7.9802  -7.8721  -7.8509  -7.7128  -7.5865  -7.5656  -7.4458  -2.9708
    -2.8700  -2.7269  -2.4186  -2.0136  -1.9897  -1.9250  -1.8304  -1.8195
    -1.7620  -1.5996  -1.5503  -1.4872  -1.3754  -1.3062  -1.2412  -1.2268
    -1.0579  -0.9952  -0.9924  -0.9040  -0.8645  -0.7759  -0.6998  -0.6545
    -0.6120  -0.5279  -0.3973  -0.3918  -0.3226  -0.1003  -0.0525   0.0637
     0.1291   0.1586   0.2461   0.2621   0.3687   0.3743   0.4076   0.4299
     0.4665   0.5879   0.6801   0.7605   0.7771   0.7782   0.8807   0.8892
     0.8941   0.9811   1.1118   1.1455   1.1846   1.2115   1.3113   1.3661
     1.3800   1.4333   1.4448   1.5037   1.5106   1.6078   1.6195   1.6722
     1.7769   1.8222   1.9162   1.9303   1.9910   2.0595   2.0982   2.2418
     2.8667   2.9062   2.9812   3.0122   3.0488   3.2371   3.2938   6.1973
     6.6503   6.6634   6.6729   7.3349   7.4212   7.6401   7.7011   7.9926
     8.1138   8.1364   8.3351   8.7494   8.8216   8.9258   8.9501   9.1505
     9.2710   9.4532

          k = 0.3750 0.2563 0.0000 ( 35769 PWs)   bands (ev):

   -38.1237 -37.8531 -23.4949 -22.6287 -22.6063 -22.5060 -18.6261 -18.4356
   -18.3771 -18.3579 -18.1784 -18.0499 -14.6744 -14.5965 -14.5957 -14.4882
   -14.3745 -14.3404 -14.2863 -14.2227 -14.0870 -13.9426 -13.7686 -13.7153
   -13.7099 -13.6911 -13.6254  -8.9866  -8.8826  -8.5420  -8.2814  -8.2603
    -8.1148  -7.9971  -7.9722  -7.9284  -7.8553  -7.8346  -7.7009  -3.4104
    -3.2643  -2.9578  -2.6449  -2.3203  -2.1995  -2.1544  -2.0950  -1.9890
    -1.9865  -1.9096  -1.8683  -1.7874  -1.7755  -1.7700  -1.7212  -1.6151
    -1.3321  -1.2848  -1.2252  -1.1126  -0.8298  -0.7714  -0.6943  -0.6782
    -0.6576  -0.5607  -0.4493  -0.3530  -0.2492  -0.2220  -0.2053  -0.1778
    -0.0497  -0.0306   0.0283   0.3793   0.4099   0.5233   0.6756   0.7207
     0.7278   0.8287   0.8653   0.9176   0.9428   1.0645   1.2634   1.2742
     1.3041   1.3334   1.3842   1.3916   1.4344   1.4701   1.4820   1.4949
     1.5757   1.6070   1.6586   1.6660   1.7019   1.7167   1.8075   1.8886
     1.9926   1.9982   2.0105   2.0373   2.0495   2.1145   2.2300   2.2698
     3.2359   3.2386   3.7479   3.7882   3.8161   3.9137   4.0196   5.9087
     6.5097   6.6365   6.6475   7.1020   7.2539   7.5313   7.8081   8.2109
     8.3541   8.3757   8.6237   8.9256   9.0926   9.1817   9.2567   9.2894
     9.3708   9.5198

          k = 0.3750 0.3844 0.0000 ( 35857 PWs)   bands (ev):

   -38.1182 -37.8475 -23.4574 -22.5863 -22.5639 -22.4643 -18.6302 -18.6056
   -18.3737 -18.3554 -18.2685 -17.9608 -14.5605 -14.4551 -14.4499 -14.3723
   -14.3359 -14.2807 -14.2366 -14.1850 -14.0137 -13.8459 -13.7467 -13.6853
   -13.6827 -13.6763 -13.6293  -9.2338  -8.8782  -8.8265  -8.5478  -8.5265
    -8.3673  -8.1841  -8.1637  -8.0050  -7.9855  -7.9599  -7.9247  -3.8626
    -3.7090  -3.3203  -3.0105  -2.9851  -2.5284  -2.5239  -2.2972  -2.2664
    -2.2596  -2.1824  -2.0932  -2.0028  -1.8795  -1.8747  -1.7894  -1.7626
    -1.5111  -1.3386  -1.1280  -0.9921  -0.9370  -0.9127  -0.8340  -0.7499
    -0.7266  -0.5859  -0.5084  -0.4376  -0.4203  -0.4047  -0.3438  -0.2637
    -0.1765   0.0189   0.0197   0.3526   0.5249   0.5710   0.8052   0.8986
     0.9989   1.1050   1.1098   1.1645   1.2788   1.4210   1.4377   1.4440
     1.5062   1.5168   1.6243   1.6413   1.6513   1.7045   1.7171   1.7227
     1.7754   1.8380   1.8891   1.9386   1.9545   1.9607   1.9751   2.0472
     2.0794   2.0900   2.1749   2.2708   2.2833   2.4570   2.4739   2.4779
     3.1527   3.1598   4.2670   4.3258   4.3761   4.4074   4.5161   5.3320
     6.2718   6.2786   6.5013   6.8186   7.2732   7.5497   8.1667   8.2866
     8.5306   8.7605   8.9348   8.9861   9.0303   9.3027   9.3958   9.5685
     9.5950   9.6974

          k = 0.3750-0.5125 0.0000 ( 35878 PWs)   bands (ev):

   -38.1159 -37.8452 -23.4417 -22.5685 -22.5461 -22.4468 -18.7024 -18.6003
   -18.4448 -18.3511 -18.2294 -17.9216 -14.5633 -14.4647 -14.3930 -14.3118
   -14.2992 -14.2401 -14.1827 -14.1100 -13.9917 -13.8421 -13.7808 -13.6700
   -13.6646 -13.6573 -13.5949  -9.3142  -8.9990  -8.8324  -8.6268  -8.6054
    -8.4514  -8.3393  -8.3192  -8.1418  -7.9816  -7.9543  -7.9195  -4.0437
    -3.8907  -3.4881  -3.2314  -3.1782  -2.7670  -2.7620  -2.4067  -2.3136
    -2.2787  -2.2296  -2.1947  -2.0134  -1.8750  -1.8700  -1.8123  -1.7876
    -1.5703  -1.3694  -1.1423  -1.0285  -1.0112  -0.8770  -0.8059  -0.8048
    -0.7826  -0.6152  -0.5924  -0.5118  -0.4916  -0.4081  -0.4079  -0.3028
    -0.1611   0.0493   0.0523   0.3598   0.5635   0.5860   0.8197   0.9418
     1.1128   1.1741   1.2589   1.2797   1.4121   1.4742   1.5298   1.5360
     1.5525   1.6422   1.6888   1.7320   1.7662   1.8131   1.8215   1.8474
     1.8586   1.8819   1.9152   1.9335   1.9491   2.0122   2.1231   2.1339
     2.1743   2.2137   2.3162   2.4601   2.5148   2.5195   2.6696   2.6744
     2.9799   2.9903   4.4089   4.4950   4.5478   4.5708   4.6747   5.0990
     6.0743   6.0816   6.4465   6.7314   7.4168   7.5049   8.1504   8.3905
     8.4866   8.7172   8.9932   9.1632   9.2849   9.3349   9.4459   9.5375
     9.5728   9.7038

          k =-0.5000 0.0000 0.0000 ( 35718 PWs)   bands (ev):

   -38.1296 -37.8590 -23.5309 -22.6677 -22.6454 -22.5448 -18.7230 -18.4749
   -18.4357 -18.1292 -18.1196 -17.8597 -14.9176 -14.8539 -14.8110 -14.6634
   -14.6169 -14.4769 -14.4388 -14.2285 -14.0412 -13.9203 -13.9170 -13.7580
   -13.7570 -13.6644 -13.5787  -8.9774  -8.2875  -8.2852  -8.0396  -8.0137
    -7.9751  -7.6026  -7.5826  -7.5155  -7.4936  -7.4713  -7.3703  -2.9470
    -2.8803  -2.7863  -2.4889  -2.0083  -2.0004  -1.8060  -1.6792  -1.6743
    -1.5533  -1.5168  -1.4260  -1.2445  -1.2223  -1.1065  -1.0836  -1.0684
    -0.9028  -0.8610  -0.8400  -0.7324  -0.7277  -0.7076  -0.6961  -0.6920
    -0.6506  -0.6163  -0.4511  -0.4482  -0.4403  -0.2299  -0.1926  -0.1487
    -0.1006   0.0145   0.0495   0.0623   0.4144   0.4348   0.4644   0.4695
     0.4729   0.4804   0.6514   0.6752   0.7238   0.7352   0.7620   0.8041
     0.8051   0.8112   0.8670   1.0724   1.2089   1.2289   1.2780   1.3309
     1.4152   1.4314   1.4455   1.4892   1.5179   1.5588   1.5641   1.5882
     1.8572   1.8628   1.9030   1.9102   2.0266   2.0990   2.1700   2.2421
     2.2486   2.2858   2.5018   2.6332   2.6447   2.9257   2.9489   6.5455
     6.7001   7.2741   7.3097   7.3892   7.3922   7.5105   7.6800   7.9845
     8.0298   8.2484   8.3714   8.6683   8.8046   9.1891   9.2186   9.2943
     9.3492   9.4790

          k =-0.5000 0.1281 0.0000 ( 35740 PWs)   bands (ev):

   -38.1274 -37.8568 -23.5164 -22.6516 -22.6292 -22.5289 -18.7152 -18.4670
   -18.4033 -18.2171 -18.0972 -17.9570 -14.8591 -14.7919 -14.7565 -14.5758
   -14.5475 -14.4432 -14.3437 -14.1955 -14.1078 -13.8886 -13.8777 -13.7397
   -13.7395 -13.7085 -13.5821  -8.9592  -8.4785  -8.4111  -8.0351  -8.0099
    -7.9721  -7.7377  -7.7269  -7.7178  -7.7050  -7.5962  -7.5742  -3.0998
    -3.0007  -2.8499  -2.5523  -2.0278  -2.0100  -1.9163  -1.8029  -1.8003
    -1.5843  -1.5527  -1.5331  -1.5009  -1.4542  -1.4427  -1.4005  -1.3703
    -1.0769  -1.0400  -1.0013  -0.9958  -0.8892  -0.7508  -0.6480  -0.6274
    -0.6144  -0.5807  -0.5467  -0.4457  -0.3473  -0.1511  -0.1053   0.0484
     0.0839   0.1058   0.1720   0.2244   0.3372   0.3911   0.4177   0.4457
     0.4577   0.6394   0.6871   0.7631   0.7708   0.7797   0.9662   0.9682
     0.9729   0.9835   1.1057   1.1272   1.1561   1.2131   1.3606   1.3820
     1.4286   1.4344   1.4494   1.4685   1.5341   1.5718   1.6002   1.6816
     1.8417   1.8661   1.9249   1.9313   2.0133   2.1320   2.2296   2.2392
     2.8889   2.9203   2.9842   3.0059   3.0411   3.2605   3.2990   6.3939
     6.7136   7.1105   7.1255   7.3407   7.5195   7.6357   7.6714   7.7406
     7.8312   8.1067   8.5256   9.0587   9.0709   9.2087   9.2860   9.3493
     9.4215   9.4310

          k =-0.5000 0.2563 0.0000 ( 35790 PWs)   bands (ev):

   -38.1219 -37.8513 -23.4809 -22.6121 -22.5898 -22.4899 -18.6964 -18.4481
   -18.4312 -18.3217 -18.1736 -18.0131 -14.7220 -14.6125 -14.6087 -14.4679
   -14.3619 -14.2906 -14.2697 -14.2054 -14.1159 -13.8115 -13.7771 -13.7477
   -13.7026 -13.7001 -13.6114  -8.9394  -8.8795  -8.7038  -8.2036  -8.1818
    -8.0536  -8.0490  -8.0290  -8.0031  -7.9783  -7.9253  -7.8837  -3.5521
    -3.4056  -3.0936  -2.7879  -2.3089  -2.2144  -2.1659  -2.0854  -2.0231
    -1.9888  -1.9827  -1.9034  -1.8648  -1.7858  -1.7759  -1.7710  -1.6984
    -1.4048  -1.2433  -1.2350  -1.0876  -0.7985  -0.7745  -0.6806  -0.6319
    -0.6105  -0.6085  -0.4648  -0.4285  -0.2664  -0.2282  -0.2239  -0.2017
    -0.0401  -0.0297  -0.0239   0.3792   0.4312   0.6185   0.7149   0.7481
     0.8242   0.8928   0.9013   0.9584   0.9741   1.2222   1.2760   1.3095
     1.3775   1.3842   1.4156   1.4633   1.5058   1.5263   1.5294   1.5331
     1.5584   1.5764   1.6040   1.6320   1.6648   1.7639   1.9481   1.9721
     1.9781   1.9886   2.0345   2.0466   2.0829   2.1008   2.2052   2.2272
     3.2319   3.2354   3.7798   3.8723   3.9253   4.0077   4.1084   5.7279
     6.5948   6.6035   6.6387   7.0275   7.3474   7.4071   7.9607   8.3920
     8.4517   8.4547   8.6837   8.8623   9.2144   9.2232   9.4144   9.4287
     9.5344   9.5484

          k =-0.5000 0.3844 0.0000 ( 35922 PWs)   bands (ev):

   -38.1164 -37.8457 -23.4449 -22.5719 -22.5496 -22.4502 -18.6777 -18.6221
   -18.4291 -18.3644 -18.2341 -17.9256 -14.5865 -14.4417 -14.4398 -14.3568
   -14.3335 -14.2865 -14.2427 -14.0515 -14.0407 -13.7337 -13.7196 -13.6756
   -13.6706 -13.6512 -13.6383  -9.2928  -8.9918  -8.8624  -8.5972  -8.5755
    -8.4233  -8.3428  -8.3228  -8.1531  -7.9995  -7.9729  -7.9337  -4.0230
    -3.8658  -3.4609  -3.1515  -2.9735  -2.5174  -2.5121  -2.4092  -2.3308
    -2.2966  -2.2291  -2.2113  -2.0436  -1.8786  -1.8745  -1.7999  -1.7847
    -1.5559  -1.3322  -1.0417  -0.9694  -0.9346  -0.9119  -0.8948  -0.7096
    -0.7030  -0.6543  -0.5150  -0.4524  -0.4443  -0.4027  -0.3791  -0.3023
    -0.1724   0.0696   0.0710   0.3510   0.5528   0.6878   0.8432   0.9912
     1.1509   1.2278   1.3441   1.3467   1.3653   1.4552   1.4824   1.5056
     1.5497   1.5880   1.6563   1.6721   1.6764   1.7747   1.8084   1.8451
     1.8689   1.8902   1.9205   1.9256   1.9440   1.9491   1.9783   2.1256
     2.1447   2.1978   2.2798   2.2885   2.3340   2.3899   2.4369   2.4400
     3.1489   3.1580   4.2756   4.5354   4.6006   4.6117   4.7160   5.0793
     6.0331   6.0419   6.4262   6.7131   7.4050   7.4434   8.2790   8.4011
     8.5524   8.7121   8.8079   8.9467   9.2265   9.3591   9.4253   9.5091
     9.6020   9.6437

          k =-0.5000-0.5125 0.0000 ( 35908 PWs)   bands (ev):

   -38.1141 -37.8434 -23.4298 -22.5550 -22.5327 -22.4335 -18.6959 -18.6699
   -18.4384 -18.4212 -18.1958 -17.8872 -14.5303 -14.5137 -14.3462 -14.2909
   -14.2742 -14.2681 -14.1842 -14.0144 -13.9587 -13.8091 -13.7055 -13.6656
   -13.6628 -13.6088 -13.5669  -9.4408  -9.1107  -8.8432  -8.7492  -8.7276
    -8.5714  -8.4603  -8.4402  -8.2596  -7.9980  -7.9694  -7.9295  -4.2125
    -4.0548  -3.6292  -3.3198  -3.2217  -2.7554  -2.7498  -2.5404  -2.3619
    -2.3587  -2.3260  -2.2345  -2.0657  -1.8668  -1.8625  -1.8350  -1.7801
    -1.6036  -1.3615  -1.0481  -1.0279  -0.9877  -0.9458  -0.8568  -0.7641
    -0.7486  -0.6834  -0.6048  -0.5323  -0.5277  -0.4098  -0.3999  -0.3408
    -0.1727   0.1112   0.1141   0.3596   0.5985   0.7067   0.8615   1.0630
     1.3474   1.3875   1.4156   1.4939   1.5400   1.5408   1.5441   1.5574
     1.5814   1.5993   1.6977   1.7619   1.8088   1.8237   1.9485   1.9788
     1.9860   2.0110   2.0140   2.0246   2.0367   2.0606   2.0611   2.1180
     2.1837   2.3683   2.4617   2.5340   2.5393   2.5572   2.6423   2.6470
     2.9721   2.9852   4.4078   4.7520   4.8236   4.8267   4.8381   4.9321
     5.7836   5.7923   6.3294   6.6174   7.4210   7.4466   8.3533   8.4154
     8.4799   8.7177   8.8609   8.9403   9.1741   9.2406   9.2566   9.2996
     9.4887   9.5841

     the Fermi energy is     2.9452 ev

!    total energy              =   -1868.79071372 Ry
     Harris-Foulkes estimate   =   -1868.79071400 Ry
     estimated scf accuracy    <       0.00000046 Ry

     The total energy is the sum of the following terms:

     one-electron contribution =  -28788.34321785 Ry
     hartree contribution      =   14548.05308017 Ry
     xc contribution           =    -642.20910907 Ry
     ewald contribution        =   13013.71708592 Ry
     smearing contrib. (-TS)   =      -0.00855289 Ry

     convergence has been achieved in  36 iterations

     negative rho (up, down):  9.059E-02 0.000E+00

     Forces acting on atoms (cartesian axes, Ry/au):

     atom    1 type  3   force =     0.00000000    0.00000000    0.00000345
     atom    2 type  2   force =     0.00000000    0.00000000    0.00052554
     atom    3 type  3   force =     0.00000000    0.00000000   -0.00008332
     atom    4 type  1   force =     0.00000000    0.00000000   -0.00013988
     atom    5 type  2   force =     0.00000000    0.00000000   -0.00069762
     atom    6 type  3   force =     0.00000000    0.00000000    0.00027158
     atom    7 type  3   force =     0.00000000    0.00000000    0.00002364
     atom    8 type  4   force =     0.00000000    0.00000000   -0.00048144
     atom    9 type  3   force =     0.00000000    0.00000000    0.00066457
     atom   10 type  3   force =     0.00000000    0.00000000    0.00098873
     atom   11 type  2   force =     0.00000000    0.00000000   -0.00108410
     atom   12 type  1   force =     0.00000000    0.00000000   -0.00349259
     atom   13 type  3   force =     0.00000000    0.00000000    0.00228805
     atom   14 type  3   force =     0.00000000    0.00000000    0.01196651
     atom   15 type  2   force =     0.00000000    0.00000000   -0.00818917
     atom   16 type  3   force =     0.00000000    0.00000000    0.01984089
     atom   17 type  1   force =     0.00000000    0.00000000   -0.01443379
     atom   18 type  2   force =     0.00000000    0.00000000    0.00674507
     atom   19 type  3   force =     0.00000000    0.00000000    0.00914218
     atom   20 type  3   force =     0.00000000    0.00000000    0.00315430
     atom   21 type  4   force =     0.00000000    0.00000000   -0.03603062
     atom   22 type  3   force =     0.00000000    0.00000000    0.00296739
     atom   23 type  3   force =     0.00000000    0.00000000    0.00464104
     atom   24 type  2   force =     0.00000000    0.00000000    0.00274096
     atom   25 type  1   force =     0.00000000    0.00000000   -0.00134967
     atom   26 type  3   force =     0.00000000    0.00000000    0.00136424
     atom   27 type  2   force =     0.00000000    0.00000000   -0.00181220
     atom   28 type  3   force =     0.00000000    0.00000000    0.00046628

     Total force =     0.048121     Total SCF correction =     0.003440


     Computing stress (Cartesian axis) and pressure


     negative rho (up, down):  9.059E-02 0.000E+00
          total   stress  (Ry/bohr**3)                   (kbar)     P=       -7.02
  -0.00007144   0.00000000   0.00000000          -10.51        0.00        0.00
   0.00000000  -0.00003880   0.00000000            0.00       -5.71        0.00
   0.00000000   0.00000000  -0.00003295            0.00        0.00       -4.85

 
     init_run     :      9.23s CPU      9.53s WALL (       1 calls)
     electrons    :    591.09s CPU    612.82s WALL (       1 calls)
     forces       :      3.79s CPU      3.96s WALL (       1 calls)
     stress       :     17.65s CPU     18.13s WALL (       1 calls)

     Called by init_run:
     wfcinit      :      6.32s CPU      6.43s WALL (       1 calls)
     potinit      :      0.64s CPU      0.64s WALL (       1 calls)
     hinit0       :      1.22s CPU      1.23s WALL (       1 calls)

     Called by electrons:
     c_bands      :    460.97s CPU    472.17s WALL (      36 calls)
     sum_band     :     87.17s CPU     92.84s WALL (      36 calls)
     v_of_rho     :      2.62s CPU      2.65s WALL (      37 calls)
     newd         :     24.49s CPU     29.23s WALL (      37 calls)
     mix_rho      :     16.36s CPU     16.55s WALL (      36 calls)

     Called by c_bands:
     init_us_2    :      3.73s CPU      3.75s WALL (    1875 calls)
     cegterg      :    433.54s CPU    444.24s WALL (     900 calls)

     Called by sum_band:
     sum_band:bec :      0.25s CPU      0.25s WALL (     900 calls)
     addusdens    :     24.12s CPU     29.08s WALL (      36 calls)

     Called by *egterg:
     h_psi        :    212.10s CPU    219.35s WALL (    3813 calls)
     s_psi        :     22.37s CPU     22.63s WALL (    3813 calls)
     g_psi        :      0.68s CPU      0.69s WALL (    2888 calls)
     cdiaghg      :    113.25s CPU    113.69s WALL (    3788 calls)

     Called by h_psi:
     h_psi:calbec :     25.69s CPU     26.88s WALL (    3813 calls)
     vloc_psi     :    162.48s CPU    165.02s WALL (    3813 calls)
     add_vuspsi   :     22.95s CPU     24.76s WALL (    3813 calls)

     General routines
     calbec       :     38.53s CPU     39.78s WALL (    4838 calls)
     fft          :      2.24s CPU      2.25s WALL (     504 calls)
     ffts         :      8.66s CPU      8.75s WALL (   15994 calls)
     fftw         :    186.11s CPU    188.95s WALL (  645044 calls)
     interpolate  :      0.16s CPU      0.16s WALL (      37 calls)
 
     Parallel routines
     fft_scatt_xy :     23.51s CPU     23.82s WALL (  661542 calls)
     fft_scatt_yz :    115.29s CPU    117.06s WALL (  661542 calls)
 
     PWSCF        :  10m22.81s CPU  10m45.58s WALL

 
   This run was terminated on:  17:21:28   5May2021            

=------------------------------------------------------------------------------=
   JOB DONE.
=------------------------------------------------------------------------------=
[1620249688.311861] [holy7c06610:9042 :0]          mpool.c:43   UCX  WARN  object 0x2b71440 was not returned to mpool ucp_requests
[1620249688.311876] [holy7c06610:9042 :0]          mpool.c:43   UCX  WARN  object 0x2b71980 was not returned to mpool ucp_requests
[1620249688.311982] [holy7c06504:26796:0]          mpool.c:43   UCX  WARN  object 0x28ada80 was not returned to mpool ucp_requests
[1620249688.311998] [holy7c06504:26796:0]          mpool.c:43   UCX  WARN  object 0x28adfc0 was not returned to mpool ucp_requests
[1620249688.312212] [holy7c08106:106700:0]          mpool.c:43   UCX  WARN  object 0x41dd740 was not returned to mpool ucp_requests
[1620249688.313113] [holy7c08103:169053:0]          mpool.c:43   UCX  WARN  object 0x403ef80 was not returned to mpool ucp_requests
[1620249688.317684] [holy7c06606:257461:0]          mpool.c:43   UCX  WARN  object 0x326c500 was not returned to mpool ucp_requests
[1620249688.314019] [holy7c08108:214571:0]          mpool.c:43   UCX  WARN  object 0x326df80 was not returned to mpool ucp_requests
[1620249688.318626] [holy7c08104:164510:0]          mpool.c:43   UCX  WARN  object 0x3f0e480 was not returned to mpool ucp_requests
[1620249688.318650] [holy7c08104:164510:0]          mpool.c:43   UCX  WARN  object 0x3f0e640 was not returned to mpool ucp_requests
