
     Program PWSCF v.6.5 starts on  5May2021 at 18:29:26 

     This program is part of the open-source Quantum ESPRESSO suite
     for quantum simulation of materials; please cite
         "P. Giannozzi et al., J. Phys.:Condens. Matter 21 395502 (2009);
         "P. Giannozzi et al., J. Phys.:Condens. Matter 29 465901 (2017);
          URL http://www.quantum-espresso.org", 
     in publications or presentations arising from this work. More details at
     http://www.quantum-espresso.org/quote

     Parallel version (MPI), running on    20 processors

     MPI processes distributed on     9 nodes
     R & G space division:  proc/nbgrp/npool/nimage =      20
     Reading input from YBCO_Y_cleave_6.5_sep_scf.pwi
Warning: card &IONS ignored
Warning: card     ION_DYNAMICS = 'BFGS' ignored
Warning: card / ignored
Warning: card &CELL ignored
Warning: card     CELL_DYNAMICS = 'BFGS' ignored
Warning: card / ignored

     Current dimensions of program PWSCF are:
     Max number of different atomic species (ntypx) = 10
     Max number of k-points (npk) =  40000
     Max angular momentum in pseudopotentials (lmaxx) =  3

     Subspace diagonalization in iterative solution of the eigenvalue problem:
     one sub-group per band group will be used
     scalapack distributed-memory algorithm (size of sub-group:  4*  4 procs)

     Message from routine setup:
     using ibrav=0 with symmetry is DISCOURAGED, use correct ibrav instead
 
     Parallelization info
     --------------------
     sticks:   dense  smooth     PW     G-vecs:    dense   smooth      PW
     Min         150      50     14                81608    15700    2446
     Max         151      51     15                81651    15725    2499
     Sum        3015    1011    293              1632577   314191   49477
 


     bravais-lattice index     =            0
     lattice parameter (alat)  =       7.3477  a.u.
     unit-cell volume          =    5003.7270 (a.u.)^3
     number of atoms/cell      =           28
     number of atomic types    =            4
     number of electrons       =       229.00
     number of Kohn-Sham states=          138
     kinetic-energy cutoff     =      60.0000  Ry
     charge density cutoff     =     720.0000  Ry
     convergence threshold     =      1.0E-06
     mixing beta               =       0.2000
     number of iterations used =           10  local-TF  mixing
     Exchange-correlation= SLA PW PBE PBE
                           (   1   4   3   4   0   0   0)

     celldm(1)=   7.347715  celldm(2)=   0.000000  celldm(3)=   0.000000
     celldm(4)=   0.000000  celldm(5)=   0.000000  celldm(6)=   0.000000

     crystal axes: (cart. coord. in units of alat)
               a(1) = (   1.000000   0.000000   0.000000 )  
               a(2) = (   0.000000   0.975577   0.000000 )  
               a(3) = (   0.000000   0.000000  12.929299 )  

     reciprocal axes: (cart. coord. in units 2 pi/alat)
               b(1) = (  1.000000  0.000000  0.000000 )  
               b(2) = (  0.000000  1.025034  0.000000 )  
               b(3) = (  0.000000  0.000000  0.077344 )  


     PseudoPot. # 1 for Ba read from file:
     /n/holyscratch01/hoffman_lab/ruizhe/YBCO_Project/pseudo/Ba.pbe-nsp-van.UPF
     MD5 check sum: 2b9c31dd849566dd297d80989662b7a0
     Pseudo is Ultrasoft + core correction, Zval = 10.0
     Generated by new atomic code, or converted to UPF format
     Using radial grid of  907 points,  6 beta functions with: 
                l(1) =   0
                l(2) =   0
                l(3) =   1
                l(4) =   1
                l(5) =   2
                l(6) =   2
     Q(r) pseudized with  6 coefficients,  rinner =    1.200   1.200   1.200
                                                       1.200   1.200

     PseudoPot. # 2 for Cu read from file:
     /n/holyscratch01/hoffman_lab/ruizhe/YBCO_Project/pseudo/Cu.pbe-n-van_ak.UPF
     MD5 check sum: 34e3282627ffb533726feb647e090d62
     Pseudo is Ultrasoft + core correction, Zval = 11.0
     Generated by new atomic code, or converted to UPF format
     Using radial grid of  867 points,  6 beta functions with: 
                l(1) =   0
                l(2) =   0
                l(3) =   1
                l(4) =   1
                l(5) =   2
                l(6) =   2
     Q(r) pseudized with  8 coefficients,  rinner =    1.400   1.400   1.400
                                                       1.400   1.400

     PseudoPot. # 3 for O  read from file:
     /n/holyscratch01/hoffman_lab/ruizhe/YBCO_Project/pseudo/O.pbe-van_ak.UPF
     MD5 check sum: 783ce7fe4c79b6a4916957118fed0856
     Pseudo is Ultrasoft, Zval =  6.0
     Generated by new atomic code, or converted to UPF format
     Using radial grid of  737 points,  4 beta functions with: 
                l(1) =   0
                l(2) =   0
                l(3) =   1
                l(4) =   1
     Q(r) pseudized with  8 coefficients,  rinner =    0.800   0.800   0.800


     PseudoPot. # 4 for Y  read from file:
     /n/holyscratch01/hoffman_lab/ruizhe/YBCO_Project/pseudo/Y.pbe-nsp-van.UPF
     MD5 check sum: 4412fed3ab108fed87a1b7d6a69a4a38
     Pseudo is Ultrasoft + core correction, Zval = 11.0
     Generated by new atomic code, or converted to UPF format
     Using radial grid of  885 points,  6 beta functions with: 
                l(1) =   0
                l(2) =   0
                l(3) =   1
                l(4) =   1
                l(5) =   2
                l(6) =   2
     Q(r) pseudized with  6 coefficients,  rinner =    1.200   1.200   1.200
                                                       1.200   1.200

     atomic species   valence    mass     pseudopotential
        Ba            10.00   137.32700     Ba( 1.00)
        Cu            11.00    63.54600     Cu( 1.00)
        O              6.00    15.99900     O ( 1.00)
        Y             11.00    88.90584     Y ( 1.00)

      4 Sym. Ops. (no inversion) found



   Cartesian axes

     site n.     atom                  positions (alat units)
         1           O   tau(   1) = (   0.0000000   0.4877884  -0.0257983  )
         2           Cu  tau(   2) = (   0.0000000   0.0000000   0.0215779  )
         3           O   tau(   3) = (   0.0000000   0.0000000   0.5073114  )
         4           Ba  tau(   4) = (   0.4999996   0.4877884   0.5319677  )
         5           Cu  tau(   5) = (   0.0000000   0.0000000   1.0495845  )
         6           O   tau(   6) = (   0.4999996   0.0000000   1.1181579  )
         7           O   tau(   7) = (   0.0000000   0.4877884   1.1273137  )
         8           Y   tau(   8) = (   0.4999996   0.4877884   1.4938777  )
         9           O   tau(   9) = (   0.0000000   0.4877884   1.8497402  )
        10           O   tau(  10) = (   0.4999996   0.0000000   1.8692709  )
        11           Cu  tau(  11) = (   0.0000000   0.0000000   1.9417560  )
        12           Ba  tau(  12) = (   0.4999996   0.4877884   2.4526063  )
        13           O   tau(  13) = (   0.0000000   0.0000000   2.5103470  )
        14           O   tau(  14) = (   0.0000000   0.4877884   2.9968469  )
        15           Cu  tau(  15) = (   0.0000000   0.0000000   2.9968521  )
        16           O   tau(  16) = (   0.0000000   0.0000000   3.4833288  )
        17           Ba  tau(  17) = (   0.4999996   0.4877884   3.5410618  )
        18           Cu  tau(  18) = (   0.0000000   0.0000000   4.0519352  )
        19           O   tau(  19) = (   0.4999996   0.0000000   4.1244075  )
        20           O   tau(  20) = (   0.0000000   0.4877884   4.1439202  )
        21           Y   tau(  21) = (   0.4999996   0.4877884   4.4997853  )
        22           O   tau(  22) = (   0.0000000   0.4877884   6.5380553  )
        23           O   tau(  23) = (   0.4999996   0.0000000   6.5472240  )
        24           Cu  tau(  24) = (   0.0000000   0.0000000   6.6158025  )
        25           Ba  tau(  25) = (   0.4999996   0.4877884   7.1334039  )
        26           O   tau(  26) = (   0.0000000   0.0000000   7.1580602  )
        27           Cu  tau(  27) = (   0.0000000   0.0000000   7.6437654  )
        28           O   tau(  28) = (   0.0000000   0.4877884   7.6911467  )

     number of k points=    25  Gaussian smearing, width (Ry)=  0.0100
                       cart. coord. in units 2pi/alat
        k(    1) = (   0.0000000   0.0000000   0.0000000), wk =   0.0312500
        k(    2) = (   0.0000000   0.1281293   0.0000000), wk =   0.0625000
        k(    3) = (   0.0000000   0.2562585   0.0000000), wk =   0.0625000
        k(    4) = (   0.0000000   0.3843878   0.0000000), wk =   0.0625000
        k(    5) = (   0.0000000  -0.5125170   0.0000000), wk =   0.0312500
        k(    6) = (   0.1250000   0.0000000   0.0000000), wk =   0.0625000
        k(    7) = (   0.1250000   0.1281293   0.0000000), wk =   0.1250000
        k(    8) = (   0.1250000   0.2562585   0.0000000), wk =   0.1250000
        k(    9) = (   0.1250000   0.3843878   0.0000000), wk =   0.1250000
        k(   10) = (   0.1250000  -0.5125170   0.0000000), wk =   0.0625000
        k(   11) = (   0.2500000   0.0000000   0.0000000), wk =   0.0625000
        k(   12) = (   0.2500000   0.1281293   0.0000000), wk =   0.1250000
        k(   13) = (   0.2500000   0.2562585   0.0000000), wk =   0.1250000
        k(   14) = (   0.2500000   0.3843878   0.0000000), wk =   0.1250000
        k(   15) = (   0.2500000  -0.5125170   0.0000000), wk =   0.0625000
        k(   16) = (   0.3750000   0.0000000   0.0000000), wk =   0.0625000
        k(   17) = (   0.3750000   0.1281293   0.0000000), wk =   0.1250000
        k(   18) = (   0.3750000   0.2562585   0.0000000), wk =   0.1250000
        k(   19) = (   0.3750000   0.3843878   0.0000000), wk =   0.1250000
        k(   20) = (   0.3750000  -0.5125170   0.0000000), wk =   0.0625000
        k(   21) = (  -0.5000000   0.0000000   0.0000000), wk =   0.0312500
        k(   22) = (  -0.5000000   0.1281293   0.0000000), wk =   0.0625000
        k(   23) = (  -0.5000000   0.2562585   0.0000000), wk =   0.0625000
        k(   24) = (  -0.5000000   0.3843878   0.0000000), wk =   0.0625000
        k(   25) = (  -0.5000000  -0.5125170   0.0000000), wk =   0.0312500

     Dense  grid:  1632577 G-vectors     FFT dimensions: (  64,  64, 864)

     Smooth grid:   314191 G-vectors     FFT dimensions: (  40,  36, 480)

     Estimated max dynamical RAM per process >     520.97 MB

     Estimated total dynamical RAM >      10.18 GB

     Initial potential from superposition of free atoms

     starting charge  228.84827, renormalised to  229.00000

     negative rho (up, down):  8.973E-02 0.000E+00
     Starting wfcs are  201 randomized atomic wfcs

     total cpu time spent up to now is       10.8 secs

     Self-consistent Calculation

     iteration #  1     ecut=    60.00 Ry     beta= 0.20
     Davidson diagonalization with overlap
     ethr =  1.00E-02,  avg # of iterations =  2.0

     negative rho (up, down):  8.740E-02 0.000E+00

     total cpu time spent up to now is       28.0 secs

     total energy              =   -1869.46128512 Ry
     Harris-Foulkes estimate   =   -1871.04178350 Ry
     estimated scf accuracy    <      14.80855490 Ry

     iteration #  2     ecut=    60.00 Ry     beta= 0.20
     Davidson diagonalization with overlap
     ethr =  6.47E-03,  avg # of iterations =  1.0

     negative rho (up, down):  8.615E-02 0.000E+00

     total cpu time spent up to now is       43.9 secs

     total energy              =   -1869.09391664 Ry
     Harris-Foulkes estimate   =   -1869.80047166 Ry
     estimated scf accuracy    <       9.84472566 Ry

     iteration #  3     ecut=    60.00 Ry     beta= 0.20
     Davidson diagonalization with overlap
     ethr =  4.30E-03,  avg # of iterations =  1.0

     negative rho (up, down):  8.510E-02 0.000E+00

     total cpu time spent up to now is       60.0 secs

     total energy              =   -1868.48717247 Ry
     Harris-Foulkes estimate   =   -1869.23484402 Ry
     estimated scf accuracy    <       5.40971884 Ry

     iteration #  4     ecut=    60.00 Ry     beta= 0.20
     Davidson diagonalization with overlap
     ethr =  2.36E-03,  avg # of iterations =  1.0

     negative rho (up, down):  8.492E-02 0.000E+00

     total cpu time spent up to now is       75.5 secs

     total energy              =   -1868.83919092 Ry
     Harris-Foulkes estimate   =   -1868.80397399 Ry
     estimated scf accuracy    <      11.34178541 Ry

     iteration #  5     ecut=    60.00 Ry     beta= 0.20
     Davidson diagonalization with overlap
     ethr =  2.36E-03,  avg # of iterations =  1.0

     negative rho (up, down):  8.537E-02 0.000E+00

     total cpu time spent up to now is       91.2 secs

     total energy              =   -1868.46741528 Ry
     Harris-Foulkes estimate   =   -1868.86805527 Ry
     estimated scf accuracy    <      17.37360900 Ry

     iteration #  6     ecut=    60.00 Ry     beta= 0.20
     Davidson diagonalization with overlap
     ethr =  2.36E-03,  avg # of iterations =  1.0

     negative rho (up, down):  8.576E-02 0.000E+00

     total cpu time spent up to now is      106.8 secs

     total energy              =   -1868.51460636 Ry
     Harris-Foulkes estimate   =   -1868.66334597 Ry
     estimated scf accuracy    <       2.74138793 Ry

     iteration #  7     ecut=    60.00 Ry     beta= 0.20
     Davidson diagonalization with overlap
     ethr =  1.20E-03,  avg # of iterations =  2.2

     negative rho (up, down):  8.637E-02 0.000E+00

     total cpu time spent up to now is      123.8 secs

     total energy              =   -1868.36448916 Ry
     Harris-Foulkes estimate   =   -1868.55129486 Ry
     estimated scf accuracy    <       2.07243096 Ry

     iteration #  8     ecut=    60.00 Ry     beta= 0.20
     Davidson diagonalization with overlap
     ethr =  9.05E-04,  avg # of iterations =  5.3

     negative rho (up, down):  8.819E-02 0.000E+00

     total cpu time spent up to now is      144.7 secs

     total energy              =   -1868.42445866 Ry
     Harris-Foulkes estimate   =   -1868.48949161 Ry
     estimated scf accuracy    <       4.24936462 Ry

     iteration #  9     ecut=    60.00 Ry     beta= 0.20
     Davidson diagonalization with overlap
     ethr =  9.05E-04,  avg # of iterations =  3.3

     negative rho (up, down):  8.756E-02 0.000E+00

     total cpu time spent up to now is      163.2 secs

     total energy              =   -1868.32684351 Ry
     Harris-Foulkes estimate   =   -1868.53753986 Ry
     estimated scf accuracy    <      19.34383960 Ry

     iteration # 10     ecut=    60.00 Ry     beta= 0.20
     Davidson diagonalization with overlap
     ethr =  9.05E-04,  avg # of iterations =  1.0

     negative rho (up, down):  8.904E-02 0.000E+00

     total cpu time spent up to now is      178.8 secs

     total energy              =   -1868.37524263 Ry
     Harris-Foulkes estimate   =   -1868.42529670 Ry
     estimated scf accuracy    <       2.14514060 Ry

     iteration # 11     ecut=    60.00 Ry     beta= 0.20
     Davidson diagonalization with overlap
     ethr =  9.05E-04,  avg # of iterations =  1.0

     negative rho (up, down):  8.867E-02 0.000E+00

     total cpu time spent up to now is      194.2 secs

     total energy              =   -1868.39454762 Ry
     Harris-Foulkes estimate   =   -1868.40331246 Ry
     estimated scf accuracy    <       0.24981440 Ry

     iteration # 12     ecut=    60.00 Ry     beta= 0.20
     Davidson diagonalization with overlap
     ethr =  1.09E-04,  avg # of iterations =  5.1

     negative rho (up, down):  8.913E-02 0.000E+00

     total cpu time spent up to now is      214.9 secs

     total energy              =   -1868.39851227 Ry
     Harris-Foulkes estimate   =   -1868.40411736 Ry
     estimated scf accuracy    <       0.36983797 Ry

     iteration # 13     ecut=    60.00 Ry     beta= 0.20
     Davidson diagonalization with overlap
     ethr =  1.09E-04,  avg # of iterations =  1.6

     negative rho (up, down):  8.932E-02 0.000E+00

     total cpu time spent up to now is      231.0 secs

     total energy              =   -1868.39123022 Ry
     Harris-Foulkes estimate   =   -1868.40156874 Ry
     estimated scf accuracy    <       0.26380102 Ry

     iteration # 14     ecut=    60.00 Ry     beta= 0.20
     Davidson diagonalization with overlap
     ethr =  1.09E-04,  avg # of iterations =  1.1

     negative rho (up, down):  8.967E-02 0.000E+00

     total cpu time spent up to now is      246.5 secs

     total energy              =   -1868.38869383 Ry
     Harris-Foulkes estimate   =   -1868.39357158 Ry
     estimated scf accuracy    <       0.16353951 Ry

     iteration # 15     ecut=    60.00 Ry     beta= 0.20
     Davidson diagonalization with overlap
     ethr =  7.14E-05,  avg # of iterations =  4.0

     negative rho (up, down):  8.939E-02 0.000E+00

     total cpu time spent up to now is      265.3 secs

     total energy              =   -1868.38973993 Ry
     Harris-Foulkes estimate   =   -1868.39036479 Ry
     estimated scf accuracy    <       0.15260588 Ry

     iteration # 16     ecut=    60.00 Ry     beta= 0.20
     Davidson diagonalization with overlap
     ethr =  6.66E-05,  avg # of iterations =  1.0

     negative rho (up, down):  8.963E-02 0.000E+00

     total cpu time spent up to now is      280.8 secs

     total energy              =   -1868.38281800 Ry
     Harris-Foulkes estimate   =   -1868.39045829 Ry
     estimated scf accuracy    <       0.07822586 Ry

     iteration # 17     ecut=    60.00 Ry     beta= 0.20
     Davidson diagonalization with overlap
     ethr =  3.42E-05,  avg # of iterations =  6.0

     negative rho (up, down):  8.944E-02 0.000E+00

     total cpu time spent up to now is      302.6 secs

     total energy              =   -1868.38638317 Ry
     Harris-Foulkes estimate   =   -1868.39125720 Ry
     estimated scf accuracy    <       0.43618073 Ry

     iteration # 18     ecut=    60.00 Ry     beta= 0.20
     Davidson diagonalization with overlap
     ethr =  3.42E-05,  avg # of iterations =  1.0

     negative rho (up, down):  8.910E-02 0.000E+00

     total cpu time spent up to now is      318.1 secs

     total energy              =   -1868.38707044 Ry
     Harris-Foulkes estimate   =   -1868.38814956 Ry
     estimated scf accuracy    <       0.10347635 Ry

     iteration # 19     ecut=    60.00 Ry     beta= 0.20
     Davidson diagonalization with overlap
     ethr =  3.42E-05,  avg # of iterations =  1.0

     negative rho (up, down):  8.885E-02 0.000E+00

     total cpu time spent up to now is      333.4 secs

     total energy              =   -1868.38676031 Ry
     Harris-Foulkes estimate   =   -1868.38730093 Ry
     estimated scf accuracy    <       0.09722925 Ry

     iteration # 20     ecut=    60.00 Ry     beta= 0.20
     Davidson diagonalization with overlap
     ethr =  3.42E-05,  avg # of iterations =  1.0

     negative rho (up, down):  9.419E-02 0.000E+00

     total cpu time spent up to now is      348.7 secs

     total energy              =   -1868.38614579 Ry
     Harris-Foulkes estimate   =   -1868.38684341 Ry
     estimated scf accuracy    <       0.06128984 Ry

     iteration # 21     ecut=    60.00 Ry     beta= 0.20
     Davidson diagonalization with overlap
     ethr =  2.68E-05,  avg # of iterations =  1.0

     negative rho (up, down):  1.004E-01 0.000E+00

     total cpu time spent up to now is      364.1 secs

     total energy              =   -1868.38565138 Ry
     Harris-Foulkes estimate   =   -1868.38628152 Ry
     estimated scf accuracy    <       0.03566722 Ry

     iteration # 22     ecut=    60.00 Ry     beta= 0.20
     Davidson diagonalization with overlap
     ethr =  1.56E-05,  avg # of iterations =  2.2

     negative rho (up, down):  1.086E-01 0.000E+00

     total cpu time spent up to now is      380.8 secs

     total energy              =   -1868.38534137 Ry
     Harris-Foulkes estimate   =   -1868.38581777 Ry
     estimated scf accuracy    <       0.01840126 Ry

     iteration # 23     ecut=    60.00 Ry     beta= 0.20
     Davidson diagonalization with overlap
     ethr =  8.04E-06,  avg # of iterations =  5.1

     negative rho (up, down):  1.077E-01 0.000E+00

     total cpu time spent up to now is      400.8 secs

     total energy              =   -1868.38480023 Ry
     Harris-Foulkes estimate   =   -1868.38548251 Ry
     estimated scf accuracy    <       0.00427153 Ry

     iteration # 24     ecut=    60.00 Ry     beta= 0.20
     Davidson diagonalization with overlap
     ethr =  1.87E-06,  avg # of iterations =  6.6

     negative rho (up, down):  1.098E-01 0.000E+00

     total cpu time spent up to now is      423.4 secs

     total energy              =   -1868.38438115 Ry
     Harris-Foulkes estimate   =   -1868.38485077 Ry
     estimated scf accuracy    <       0.00412837 Ry

     iteration # 25     ecut=    60.00 Ry     beta= 0.20
     Davidson diagonalization with overlap
     ethr =  1.80E-06,  avg # of iterations =  6.3

     negative rho (up, down):  1.025E-01 0.000E+00

     total cpu time spent up to now is      445.4 secs

     total energy              =   -1868.38384171 Ry
     Harris-Foulkes estimate   =   -1868.38441693 Ry
     estimated scf accuracy    <       0.00283177 Ry

     iteration # 26     ecut=    60.00 Ry     beta= 0.20
     Davidson diagonalization with overlap
     ethr =  1.24E-06,  avg # of iterations =  7.3

     negative rho (up, down):  9.288E-02 0.000E+00

     total cpu time spent up to now is      468.6 secs

     total energy              =   -1868.38335350 Ry
     Harris-Foulkes estimate   =   -1868.38387480 Ry
     estimated scf accuracy    <       0.00251428 Ry

     iteration # 27     ecut=    60.00 Ry     beta= 0.20
     Davidson diagonalization with overlap
     c_bands:  1 eigenvalues not converged
     ethr =  1.10E-06,  avg # of iterations =  7.9

     negative rho (up, down):  8.992E-02 0.000E+00

     total cpu time spent up to now is      492.8 secs

     total energy              =   -1868.38335690 Ry
     Harris-Foulkes estimate   =   -1868.38340640 Ry
     estimated scf accuracy    <       0.00137137 Ry

     iteration # 28     ecut=    60.00 Ry     beta= 0.20
     Davidson diagonalization with overlap
     c_bands:  1 eigenvalues not converged
     ethr =  5.99E-07,  avg # of iterations =  5.5

     negative rho (up, down):  8.981E-02 0.000E+00

     total cpu time spent up to now is      513.7 secs

     total energy              =   -1868.38329948 Ry
     Harris-Foulkes estimate   =   -1868.38337159 Ry
     estimated scf accuracy    <       0.00091349 Ry

     iteration # 29     ecut=    60.00 Ry     beta= 0.20
     Davidson diagonalization with overlap
     ethr =  3.99E-07,  avg # of iterations =  4.0

     negative rho (up, down):  8.934E-02 0.000E+00

     total cpu time spent up to now is      532.8 secs

     total energy              =   -1868.38334585 Ry
     Harris-Foulkes estimate   =   -1868.38331770 Ry
     estimated scf accuracy    <       0.00031783 Ry

     iteration # 30     ecut=    60.00 Ry     beta= 0.20
     Davidson diagonalization with overlap
     ethr =  1.39E-07,  avg # of iterations =  3.0

     negative rho (up, down):  8.941E-02 0.000E+00

     total cpu time spent up to now is      551.1 secs

     total energy              =   -1868.38336268 Ry
     Harris-Foulkes estimate   =   -1868.38335382 Ry
     estimated scf accuracy    <       0.00019816 Ry

     iteration # 31     ecut=    60.00 Ry     beta= 0.20
     Davidson diagonalization with overlap
     ethr =  8.65E-08,  avg # of iterations =  2.1

     negative rho (up, down):  8.947E-02 0.000E+00

     total cpu time spent up to now is      567.9 secs

     total energy              =   -1868.38337951 Ry
     Harris-Foulkes estimate   =   -1868.38336451 Ry
     estimated scf accuracy    <       0.00011476 Ry

     iteration # 32     ecut=    60.00 Ry     beta= 0.20
     Davidson diagonalization with overlap
     ethr =  5.01E-08,  avg # of iterations =  2.4

     negative rho (up, down):  8.959E-02 0.000E+00

     total cpu time spent up to now is      585.0 secs

     total energy              =   -1868.38337982 Ry
     Harris-Foulkes estimate   =   -1868.38338152 Ry
     estimated scf accuracy    <       0.00010418 Ry

     iteration # 33     ecut=    60.00 Ry     beta= 0.20
     Davidson diagonalization with overlap
     ethr =  4.55E-08,  avg # of iterations =  2.6

     negative rho (up, down):  8.963E-02 0.000E+00

     total cpu time spent up to now is      602.2 secs

     total energy              =   -1868.38338165 Ry
     Harris-Foulkes estimate   =   -1868.38338174 Ry
     estimated scf accuracy    <       0.00001990 Ry

     iteration # 34     ecut=    60.00 Ry     beta= 0.20
     Davidson diagonalization with overlap
     ethr =  8.69E-09,  avg # of iterations =  1.0

     negative rho (up, down):  8.979E-02 0.000E+00

     total cpu time spent up to now is      617.6 secs

     total energy              =   -1868.38338326 Ry
     Harris-Foulkes estimate   =   -1868.38338197 Ry
     estimated scf accuracy    <       0.00001061 Ry

     iteration # 35     ecut=    60.00 Ry     beta= 0.20
     Davidson diagonalization with overlap
     ethr =  4.63E-09,  avg # of iterations =  1.5

     negative rho (up, down):  8.987E-02 0.000E+00

     total cpu time spent up to now is      633.6 secs

     total energy              =   -1868.38338374 Ry
     Harris-Foulkes estimate   =   -1868.38338344 Ry
     estimated scf accuracy    <       0.00000557 Ry

     iteration # 36     ecut=    60.00 Ry     beta= 0.20
     Davidson diagonalization with overlap
     ethr =  2.43E-09,  avg # of iterations =  1.7

     negative rho (up, down):  9.000E-02 0.000E+00

     total cpu time spent up to now is      650.0 secs

     total energy              =   -1868.38338339 Ry
     Harris-Foulkes estimate   =   -1868.38338384 Ry
     estimated scf accuracy    <       0.00000287 Ry

     iteration # 37     ecut=    60.00 Ry     beta= 0.20
     Davidson diagonalization with overlap
     ethr =  1.25E-09,  avg # of iterations =  2.1

     negative rho (up, down):  9.001E-02 0.000E+00

     total cpu time spent up to now is      667.2 secs

     total energy              =   -1868.38338366 Ry
     Harris-Foulkes estimate   =   -1868.38338357 Ry
     estimated scf accuracy    <       0.00000110 Ry

     iteration # 38     ecut=    60.00 Ry     beta= 0.20
     Davidson diagonalization with overlap
     ethr =  4.80E-10,  avg # of iterations =  1.0

     negative rho (up, down):  9.006E-02 0.000E+00

     total cpu time spent up to now is      682.1 secs

     End of self-consistent calculation

          k = 0.0000 0.0000 0.0000 ( 39193 PWs)   bands (ev):

   -41.6587 -38.8549 -23.7725 -23.5082 -23.3657 -23.0992 -21.8011 -21.5326
   -21.5267 -19.3895 -18.8595 -18.8496 -16.8599 -16.1843 -15.9347 -15.3243
   -15.2238 -15.0162 -14.9929 -14.9697 -14.8724 -14.7082 -14.4910 -14.4102
   -14.3774 -14.1968 -13.7076  -9.0844  -8.7294  -8.7076  -8.6974  -8.6374
    -8.5006  -8.4738  -8.3193  -8.3008  -8.2250  -8.1278  -8.0926  -3.6400
    -3.6161  -3.1631  -2.8129  -2.7798  -2.7516  -2.6315  -2.5916  -2.5401
    -2.5253  -2.4478  -2.2185  -1.6183  -1.5833  -1.5431  -1.5061  -1.3650
    -1.2682  -1.1906  -1.1416  -1.1135  -1.1011  -0.9090  -0.8387  -0.8018
    -0.7652  -0.7075  -0.6815  -0.6711  -0.6118  -0.6004  -0.5885  -0.5833
    -0.5555  -0.5061  -0.4492  -0.4422  -0.3355  -0.3301  -0.2871  -0.2287
    -0.2003  -0.1875  -0.1870  -0.1541  -0.1392  -0.1063  -0.0708  -0.0701
    -0.0481   0.0707   0.0853   0.2148   0.3517   0.3701   0.4991   0.5563
     0.5975   0.6353   0.6526   0.7153   0.7558   0.7709   0.8641   0.9737
     1.1892   1.2077   1.2449   1.2533   1.3636   1.3835   1.4518   1.5155
     1.5517   1.6440   1.6671   1.6750   1.9388   1.9703   2.0180   2.0638
     3.3609   4.4863   4.5427   4.7241   4.9555   5.2397   5.2992   5.9349
     5.9481   5.9732   6.1629   6.2008   6.3230   6.5671   6.9099   7.4019
     7.4438   7.4821

          k = 0.0000 0.1281 0.0000 ( 39189 PWs)   bands (ev):

   -41.6569 -38.8525 -23.7518 -23.4866 -23.3449 -23.0771 -21.7938 -21.5659
   -21.5302 -19.3536 -18.9539 -18.8563 -16.8103 -16.0756 -15.9522 -15.2813
   -15.2310 -15.0176 -15.0020 -14.9391 -14.8282 -14.7545 -14.4963 -14.4363
   -14.4124 -14.2609 -13.7379  -9.0731  -8.7194  -8.7117  -8.6696  -8.6240
    -8.4933  -8.4594  -8.3209  -8.2804  -8.2085  -8.1131  -8.0851  -3.7480
    -3.5924  -3.0726  -2.9162  -2.9021  -2.7636  -2.7316  -2.5931  -2.5762
    -2.4530  -2.4323  -2.2279  -2.0788  -1.8714  -1.7105  -1.6551  -1.6405
    -1.5554  -1.4501  -1.3566  -1.3486  -1.1659  -1.1596  -1.1490  -1.0550
    -0.9306  -0.9118  -0.8534  -0.8347  -0.7674  -0.7469  -0.6638  -0.5824
    -0.4821  -0.4433  -0.4379  -0.3939  -0.3910  -0.2930  -0.2831  -0.2624
    -0.2073  -0.1872  -0.1753  -0.1222  -0.1091  -0.0921  -0.0765   0.1157
     0.1841   0.1921   0.2180   0.2808   0.3108   0.3596   0.4464   0.5102
     0.7154   0.7488   0.7898   0.8846   0.8922   0.9642   0.9649   1.0134
     1.0825   1.2070   1.2295   1.2341   1.3005   1.3498   1.4636   1.5127
     1.5442   1.6227   1.8003   1.9790   1.9925   2.1911   2.2766   2.4236
     3.4621   4.4924   4.9170   5.0634   5.0762   5.1471   5.4518   5.9707
     6.0096   6.2679   6.4215   6.5852   6.6293   6.8096   7.1297   7.3834
     7.6085   7.6646

          k = 0.0000 0.2563 0.0000 ( 39220 PWs)   bands (ev):

   -41.6527 -38.8470 -23.7009 -23.4336 -23.2937 -23.0228 -21.7825 -21.6521
   -21.5246 -19.2625 -19.1788 -18.8486 -16.6765 -16.0141 -15.8280 -15.3080
   -15.1656 -15.0732 -15.0586 -14.8727 -14.8212 -14.6806 -14.5774 -14.4736
   -14.4143 -14.3852 -13.8290  -9.0443  -8.7612  -8.6711  -8.5942  -8.5748
    -8.5343  -8.3645  -8.3561  -8.1833  -8.1690  -8.1557  -7.9781  -4.0124
    -3.4483  -3.3470  -3.2293  -3.0975  -2.8851  -2.7684  -2.7423  -2.6923
    -2.6222  -2.4774  -2.4716  -2.3962  -2.3829  -2.3795  -2.2035  -1.9489
    -1.8990  -1.6289  -1.5547  -1.5362  -1.4873  -1.4439  -1.3335  -1.3220
    -1.3029  -1.2173  -1.1312  -1.0817  -1.0248  -0.9916  -0.8130  -0.7817
    -0.7370  -0.7262  -0.6293  -0.5772  -0.4679  -0.4147  -0.3702  -0.2898
    -0.2331  -0.1516  -0.1342  -0.1140  -0.1113  -0.0315   0.0383   0.1457
     0.4090   0.4198   0.4548   0.5839   0.6223   0.6404   0.6531   0.7782
     0.7885   0.8282   0.8862   0.9224   0.9518   1.0198   1.0206   1.1043
     1.1264   1.1922   1.2892   1.2915   1.4164   1.4904   1.5307   1.5924
     1.6386   1.8951   1.9431   2.0087   2.0526   2.5534   2.7431   3.0591
     3.6149   4.4135   4.7814   5.7889   5.8144   5.9312   6.0620   6.1171
     6.1559   6.9873   7.1232   7.2534   7.2925   7.4348   7.4442   7.6458
     7.8775   8.0636

          k = 0.0000 0.3844 0.0000 ( 39126 PWs)   bands (ev):

   -41.6485 -38.8414 -23.6486 -23.3790 -23.2412 -22.9668 -21.8045 -21.7015
   -21.5189 -19.3766 -19.1643 -18.8408 -16.4948 -16.1320 -15.5790 -15.4502
   -15.1716 -15.1661 -15.0243 -14.8415 -14.8230 -14.7188 -14.5625 -14.4622
   -14.4146 -14.3188 -13.9824  -9.0113  -8.7990  -8.6311  -8.5677  -8.5604
    -8.4753  -8.4049  -8.2471  -8.1939  -8.1253  -8.0811  -7.8646  -4.2589
    -3.8039  -3.6973  -3.4755  -3.2985  -3.2864  -3.2047  -2.9925  -2.8727
    -2.7827  -2.6503  -2.5817  -2.4564  -2.4191  -2.4146  -2.2847  -2.2133
    -2.1352  -1.9076  -1.7752  -1.7515  -1.5887  -1.5741  -1.5727  -1.5022
    -1.4564  -1.4523  -1.3230  -1.3072  -1.2220  -1.1569  -1.0254  -0.9902
    -0.9742  -0.9354  -0.8355  -0.7732  -0.6865  -0.5951  -0.2987  -0.1961
    -0.1576  -0.1362  -0.1360  -0.1282  -0.1100   0.0021   0.2263   0.3325
     0.3615   0.4380   0.5106   0.5719   0.6412   0.6583   0.7308   0.8514
     0.8825   0.9186   0.9799   1.0435   1.1164   1.1197   1.1692   1.2234
     1.2503   1.3889   1.3936   1.4998   1.5178   1.6596   1.7185   1.8919
     1.9383   1.9773   2.0287   2.0607   2.2575   2.5248   2.7309   3.6033
     3.6486   4.4948   4.5515   6.1897   6.3016   6.5640   6.7104   6.9080
     6.9148   7.1409   7.1430   7.6849   7.9180   8.0043   8.1196   8.1772
     8.2220   8.3059

          k = 0.0000-0.5125 0.0000 ( 39274 PWs)   bands (ev):

   -41.6468 -38.8390 -23.6266 -23.3560 -23.2190 -22.9432 -21.8304 -21.7044
   -21.5165 -19.4526 -19.1212 -18.8376 -16.3283 -16.2745 -15.5310 -15.4475
   -15.2320 -15.2195 -14.9424 -14.8491 -14.8271 -14.7778 -14.6180 -14.3834
   -14.3275 -14.1900 -14.1827  -8.9950  -8.8153  -8.6149  -8.5790  -8.5438
    -8.4325  -8.4227  -8.2070  -8.2000  -8.1075  -8.0371  -7.8155  -4.3618
    -4.0374  -3.8476  -3.6103  -3.5304  -3.5236  -3.1713  -2.8956  -2.8685
    -2.8507  -2.8166  -2.6850  -2.6203  -2.5140  -2.3022  -2.2696  -2.2145
    -2.0930  -2.0343  -1.8589  -1.8341  -1.7614  -1.7242  -1.6116  -1.5626
    -1.5541  -1.4272  -1.3386  -1.3341  -1.2755  -1.2503  -1.1124  -1.0796
    -1.0514  -1.0490  -0.9973  -0.8270  -0.7923  -0.5841  -0.2277  -0.1910
    -0.1850  -0.1456  -0.1403  -0.1040  -0.1004   0.0118   0.3151   0.4149
     0.4196   0.4375   0.4506   0.5619   0.6401   0.6595   0.7995   0.8047
     0.8570   0.9083   1.0298   1.0685   1.0739   1.1496   1.1659   1.3007
     1.3212   1.4046   1.5511   1.7388   1.8024   1.8109   1.8188   1.8578
     1.8971   2.0436   2.1006   2.1702   2.3846   2.4246   2.6141   3.5830
     3.8106   4.4674   4.5833   6.2159   6.4541   6.7627   7.0312   7.0983
     7.1944   7.3140   7.3685   7.5838   8.0739   8.1802   8.2179   8.4648
     8.4752   8.5986

          k = 0.1250 0.0000 0.0000 ( 39196 PWs)   bands (ev):

   -41.6573 -38.8531 -23.7550 -23.4898 -23.3480 -23.0802 -21.7951 -21.5681
   -21.5249 -19.3570 -18.9596 -18.8471 -16.8106 -16.0688 -15.9510 -15.3515
   -15.2514 -15.0449 -15.0408 -14.9478 -14.8483 -14.7373 -14.4916 -14.4311
   -14.4084 -14.2259 -13.7374  -9.1068  -8.7406  -8.7074  -8.6661  -8.6192
    -8.4655  -8.4395  -8.2817  -8.2686  -8.2410  -8.0880  -8.0569  -3.7414
    -3.5730  -3.0817  -2.9044  -2.8334  -2.7304  -2.7020  -2.5751  -2.5735
    -2.5146  -2.4708  -2.2424  -1.7080  -1.6401  -1.5931  -1.5809  -1.4888
    -1.4443  -1.3029  -1.1851  -1.1824  -1.1361  -1.0696  -1.0217  -0.8868
    -0.8753  -0.8731  -0.7852  -0.7836  -0.7769  -0.6697  -0.5933  -0.5873
    -0.5474  -0.4788  -0.4160  -0.4001  -0.3256  -0.2774  -0.2602  -0.2567
    -0.2210  -0.1982  -0.1875  -0.1672  -0.1620  -0.0763  -0.0578   0.0011
     0.0077   0.0908   0.2405   0.2539   0.3072   0.3138   0.4209   0.5136
     0.5177   0.5795   0.6793   0.7220   0.8035   0.9337   0.9562   0.9944
     1.1288   1.2478   1.2896   1.3344   1.3518   1.3986   1.4902   1.5618
     1.5665   1.5713   1.6128   1.7247   1.9815   1.9969   2.0166   2.1866
     3.4541   4.4092   4.7382   4.8836   5.1305   5.1492   5.4537   5.7568
     6.0256   6.1876   6.3964   6.5283   6.5512   6.7772   7.1296   7.4243
     7.5914   7.6589

          k = 0.1250 0.1281 0.0000 ( 39204 PWs)   bands (ev):

   -41.6556 -38.8507 -23.7349 -23.4690 -23.3278 -23.0589 -21.7881 -21.5699
   -21.5595 -19.3216 -18.9633 -18.9421 -16.7625 -15.9646 -15.9611 -15.3050
   -15.2490 -15.0478 -15.0373 -14.9201 -14.7948 -14.7909 -14.4910 -14.4735
   -14.4053 -14.2785 -13.7643  -9.0921  -8.8395  -8.7261  -8.6436  -8.6131
    -8.5319  -8.4354  -8.3157  -8.2658  -8.1934  -8.1463  -7.9380  -3.8671
    -3.5428  -3.0289  -2.9974  -2.9486  -2.7627  -2.7197  -2.6108  -2.6043
    -2.5617  -2.3919  -2.2234  -2.0907  -1.8547  -1.8415  -1.7045  -1.6943
    -1.6813  -1.6475  -1.5200  -1.4998  -1.3491  -1.1973  -1.1775  -1.1704
    -1.0625  -0.9534  -0.9300  -0.8476  -0.7933  -0.7726  -0.6579  -0.5704
    -0.5326  -0.4559  -0.4425  -0.4143  -0.3444  -0.3365  -0.2798  -0.2765
    -0.2378  -0.2177  -0.1921  -0.1567  -0.1345  -0.0872  -0.0633   0.1150
     0.1640   0.2500   0.2568   0.3563   0.4114   0.4738   0.5173   0.5348
     0.5506   0.7299   0.7796   0.8137   0.8211   0.9963   1.0092   1.1109
     1.1618   1.1810   1.1895   1.3010   1.3014   1.5079   1.6002   1.6339
     1.6522   1.6966   1.7593   1.9660   2.2125   2.2897   2.3855   2.4335
     3.5394   4.4316   4.9447   5.0646   5.1924   5.3017   5.6009   5.8544
     6.0256   6.4974   6.7014   6.7842   6.8397   6.9991   7.2727   7.3719
     7.7689   7.8344

          k = 0.1250 0.2563 0.0000 ( 39258 PWs)   bands (ev):

   -41.6514 -38.8452 -23.6856 -23.4178 -23.2783 -23.0066 -21.7775 -21.6508
   -21.5578 -19.2317 -19.1743 -18.9439 -16.6331 -16.0162 -15.7159 -15.2930
   -15.1818 -15.0816 -15.0601 -14.8777 -14.8557 -14.6430 -14.5792 -14.4649
   -14.4097 -14.3760 -13.8456  -9.0578  -8.9485  -8.7371  -8.6713  -8.6140
    -8.5510  -8.4858  -8.3555  -8.2716  -8.1724  -8.1089  -7.8935  -4.1344
    -3.4624  -3.4466  -3.2488  -3.0902  -2.8247  -2.7775  -2.7621  -2.7025
    -2.6572  -2.5753  -2.4754  -2.4658  -2.3930  -2.3767  -2.3225  -2.1411
    -1.9700  -1.6925  -1.6459  -1.6013  -1.5456  -1.5353  -1.5217  -1.4454
    -1.3213  -1.2837  -1.1461  -1.0193  -1.0035  -0.9368  -0.9272  -0.8185
    -0.7793  -0.6769  -0.5955  -0.5340  -0.4870  -0.3456  -0.2934  -0.2548
    -0.2469  -0.2281  -0.1506  -0.1132  -0.1015   0.0331   0.0980   0.2123
     0.2542   0.4746   0.5333   0.5943   0.6774   0.7065   0.7444   0.7633
     0.7713   0.8788   0.9249   0.9524   0.9811   0.9981   1.0196   1.1185
     1.1390   1.3502   1.4028   1.4816   1.5011   1.5392   1.5847   1.7241
     1.8147   1.9791   1.9993   2.2346   2.5300   2.5580   2.7799   3.0574
     3.7034   4.3679   4.6572   5.7905   5.8679   5.9888   6.0310   6.1295
     6.1660   7.1024   7.1979   7.3238   7.4909   7.5942   7.6001   7.7280
     7.9430   8.0557

          k = 0.1250 0.3844 0.0000 ( 39259 PWs)   bands (ev):

   -41.6472 -38.8396 -23.6351 -23.3652 -23.2276 -22.9528 -21.8009 -21.6993
   -21.5512 -19.3706 -19.1349 -18.9341 -16.4587 -16.1206 -15.4771 -15.4053
   -15.1465 -15.1371 -15.0203 -14.8842 -14.8196 -14.6996 -14.5433 -14.4339
   -14.4106 -14.3132 -13.9839  -9.0256  -8.9643  -8.7418  -8.6413  -8.6167
    -8.5654  -8.5039  -8.3667  -8.3196  -8.1541  -8.1364  -7.9401  -4.3917
    -3.8442  -3.7570  -3.5263  -3.3302  -3.2883  -3.2777  -3.0062  -2.8759
    -2.7551  -2.7156  -2.6822  -2.5805  -2.5141  -2.5014  -2.3519  -2.1632
    -2.0605  -1.9965  -1.8994  -1.8317  -1.7228  -1.5700  -1.5595  -1.5451
    -1.4347  -1.3828  -1.3760  -1.2440  -1.2030  -1.1643  -1.1174  -1.0723
    -1.0246  -0.9255  -0.7072  -0.5981  -0.5279  -0.4755  -0.2596  -0.2560
    -0.2104  -0.1348  -0.0775  -0.0733  -0.0228   0.0952   0.1859   0.3472
     0.3629   0.5071   0.5354   0.6399   0.6788   0.7246   0.7853   0.8409
     0.8940   0.9393   1.0413   1.0952   1.1446   1.1615   1.2307   1.2899
     1.3876   1.5174   1.6143   1.6487   1.6563   1.7529   1.9123   1.9734
     2.0069   2.0175   2.2496   2.3216   2.4837   2.5493   2.8049   3.5814
     3.7464   4.3963   4.4704   6.0569   6.2107   6.5180   6.5926   6.7818
     6.7981   7.0368   7.2764   7.8028   7.8771   8.0954   8.1653   8.2238
     8.2817   8.4730

          k = 0.1250-0.5125 0.0000 ( 39204 PWs)   bands (ev):

   -41.6455 -38.8373 -23.6138 -23.3431 -23.2062 -22.9301 -21.8271 -21.7019
   -21.5484 -19.4462 -19.0925 -18.9299 -16.2991 -16.2534 -15.4902 -15.3301
   -15.1973 -15.1804 -14.9081 -14.8746 -14.8203 -14.7915 -14.5920 -14.3821
   -14.3213 -14.1825 -14.1640  -9.0112  -8.9455  -8.7165  -8.6427  -8.6247
    -8.5531  -8.5091  -8.3677  -8.3443  -8.1947  -8.1209  -7.9868  -4.5001
    -4.0376  -3.9532  -3.6683  -3.5246  -3.5127  -3.1906  -3.1385  -3.1275
    -2.7895  -2.7353  -2.6999  -2.6164  -2.4623  -2.3959  -2.3778  -2.2171
    -2.1598  -2.0930  -2.0135  -1.8920  -1.7754  -1.6538  -1.5768  -1.5129
    -1.4557  -1.4081  -1.4080  -1.3462  -1.2746  -1.2212  -1.2014  -1.1559
    -1.1150  -1.0167  -0.7421  -0.6292  -0.6079  -0.5201  -0.2624  -0.2519
    -0.1936  -0.1196  -0.0728  -0.0282   0.0541   0.1171   0.2205   0.3976
     0.4495   0.5021   0.5201   0.6210   0.6663   0.7141   0.8027   0.8110
     0.8360   0.9643   1.0181   1.1554   1.2016   1.2425   1.2573   1.3893
     1.5418   1.6571   1.7930   1.7956   1.8175   1.8659   1.9816   2.0796
     2.1038   2.1653   2.1676   2.3692   2.4379   2.4834   2.7115   3.6754
     3.7625   4.3693   4.5209   6.1030   6.2982   6.7031   6.7647   6.8675
     7.0327   7.1253   7.3501   7.6872   8.1014   8.3453   8.3859   8.5735
     8.7032   8.7589

          k = 0.2500 0.0000 0.0000 ( 39282 PWs)   bands (ev):

   -41.6542 -38.8487 -23.7121 -23.4446 -23.3046 -23.0335 -21.7843 -21.6479
   -21.5206 -19.2753 -19.1745 -18.8410 -16.6782 -16.0085 -15.8045 -15.4332
   -15.3573 -15.1660 -15.1517 -14.9105 -14.7717 -14.7285 -14.5613 -14.4858
   -14.3970 -14.2778 -13.8243  -9.1466  -8.7497  -8.6915  -8.5883  -8.5858
    -8.3955  -8.3542  -8.2514  -8.2176  -8.1886  -8.0207  -7.9678  -3.9497
    -3.4429  -3.2128  -3.1243  -2.9421  -2.7185  -2.6762  -2.6231  -2.5859
    -2.4795  -2.3859  -2.2860  -2.2530  -1.9639  -1.7688  -1.6597  -1.6408
    -1.5569  -1.4383  -1.4106  -1.4042  -1.2722  -1.2308  -1.1782  -1.1719
    -1.1487  -1.1229  -1.0871  -0.9836  -0.8667  -0.8411  -0.6372  -0.6140
    -0.5310  -0.4968  -0.4794  -0.4539  -0.3448  -0.3076  -0.2778  -0.2255
    -0.2112  -0.2052  -0.1941  -0.1765  -0.0611  -0.0402   0.0047   0.0572
     0.0796   0.1089   0.1674   0.3017   0.3601   0.4013   0.4231   0.5099
     0.5725   0.6701   0.8011   0.8263   0.8617   0.9361   0.9533   1.1063
     1.1097   1.1397   1.1979   1.2902   1.2910   1.4070   1.4455   1.4749
     1.5859   1.7740   1.8902   1.9045   2.0216   2.0230   2.1190   2.3837
     3.6154   4.1520   4.9237   5.1923   5.3059   5.5693   5.9322   5.9956
     6.1051   6.8186   6.8902   6.9999   7.1279   7.3053   7.3787   7.5935
     7.9687   8.0772

          k = 0.2500 0.1281 0.0000 ( 39270 PWs)   bands (ev):

   -41.6524 -38.8464 -23.6936 -23.4256 -23.2861 -23.0142 -21.7780 -21.6458
   -21.5578 -19.2412 -19.1687 -18.9410 -16.6346 -16.0119 -15.6996 -15.3800
   -15.3282 -15.1475 -15.1269 -14.8813 -14.8371 -14.6770 -14.5680 -14.4755
   -14.3852 -14.3071 -13.8415  -9.1409  -8.8715  -8.7566  -8.6668  -8.6403
    -8.5005  -8.4383  -8.3226  -8.2415  -8.1946  -8.0828  -7.8630  -4.0917
    -3.4604  -3.3509  -3.1686  -2.8821  -2.7127  -2.7000  -2.6961  -2.6623
    -2.5973  -2.4253  -2.3046  -2.2433  -2.2114  -2.1148  -1.8058  -1.8014
    -1.7326  -1.7013  -1.6458  -1.5675  -1.5328  -1.5284  -1.4167  -1.3733
    -1.2652  -1.1560  -1.0259  -1.0049  -0.9400  -0.9137  -0.7282  -0.5551
    -0.5254  -0.4928  -0.4523  -0.4321  -0.4205  -0.3556  -0.3020  -0.2753
    -0.2415  -0.2215  -0.1314  -0.1070  -0.0110   0.0637   0.0639   0.1074
     0.1313   0.2099   0.2785   0.3192   0.5027   0.5682   0.6051   0.6476
     0.6733   0.7084   0.8026   0.8265   0.9557   0.9981   1.0114   1.0217
     1.0702   1.1157   1.2363   1.4008   1.4241   1.4746   1.6373   1.6899
     1.8423   1.9781   2.0452   2.2607   2.2738   2.3782   2.4309   2.6911
     3.7064   4.1638   4.7501   5.4346   5.5491   5.5941   6.0163   6.0611
     6.0876   7.0741   7.1165   7.1629   7.2927   7.3779   7.5380   7.7371
     8.0460   8.1225

          k = 0.2500 0.2563 0.0000 ( 39293 PWs)   bands (ev):

   -41.6483 -38.8409 -23.6483 -23.3791 -23.2408 -22.9669 -21.7684 -21.6653
   -21.6152 -19.1749 -19.1553 -19.1384 -16.5183 -16.0353 -15.4679 -15.2852
   -15.2200 -15.1105 -15.0770 -14.9816 -14.8142 -14.5899 -14.5383 -14.4430
   -14.3926 -14.3511 -13.8949  -9.1765  -9.0712  -8.9433  -8.7549  -8.6897
    -8.6440  -8.5641  -8.5325  -8.3388  -8.1883  -8.1780  -7.9623  -4.4283
    -3.7709  -3.4641  -3.3939  -3.0633  -2.9974  -2.8469  -2.8305  -2.7787
    -2.7160  -2.6947  -2.6146  -2.4838  -2.4741  -2.3803  -2.2127  -2.2116
    -2.1305  -2.1109  -2.0560  -1.9249  -1.5727  -1.5725  -1.5072  -1.4473
    -1.3308  -1.3002  -1.2424  -1.0662  -1.0386  -0.9557  -0.8988  -0.8511
    -0.8005  -0.7567  -0.7072  -0.5226  -0.4795  -0.3878  -0.2822  -0.1582
    -0.0734  -0.0421  -0.0125  -0.0042   0.0576   0.1436   0.1834   0.2664
     0.5124   0.5605   0.5953   0.6587   0.6679   0.6739   0.7593   0.7849
     0.8083   0.8829   0.9617   1.0211   1.0465   1.1088   1.1893   1.2556
     1.3404   1.3910   1.4226   1.4839   1.5341   1.6088   1.6567   1.9249
     2.1772   2.2437   2.5264   2.6545   2.6874   2.8435   3.0505   3.1844
     3.9378   4.1302   4.4387   5.6999   5.9478   6.0473   6.0951   6.1149
     6.4216   6.8994   7.5445   7.6116   7.8103   7.8276   8.0165   8.0753
     8.1585   8.2805

          k = 0.2500 0.3844 0.0000 ( 39293 PWs)   bands (ev):

   -41.6441 -38.8353 -23.6021 -23.3316 -23.1944 -22.9185 -21.7922 -21.7073
   -21.6134 -19.3562 -19.1390 -19.0598 -16.3658 -16.1011 -15.3436 -15.2149
   -15.0867 -15.0567 -15.0344 -15.0151 -14.7675 -14.6455 -14.4966 -14.3994
   -14.3681 -14.2925 -13.9903  -9.2636  -9.0742  -9.0500  -8.8763  -8.7958
    -8.6734  -8.6682  -8.5777  -8.5751  -8.3939  -8.2036  -8.1626  -4.7564
    -4.1850  -3.7760  -3.6708  -3.4735  -3.3144  -3.2683  -3.2619  -3.0614
    -2.8730  -2.7998  -2.7182  -2.5822  -2.5805  -2.5739  -2.5165  -2.3467
    -2.1742  -2.1196  -2.0627  -2.0095  -1.6716  -1.6365  -1.5516  -1.5073
    -1.5045  -1.4451  -1.2748  -1.1991  -1.1696  -1.0681  -1.0386  -1.0118
    -0.9758  -0.9082  -0.8077  -0.5267  -0.4647  -0.3784  -0.2444  -0.0645
     0.0168   0.0178   0.1050   0.1446   0.2292   0.3283   0.3779   0.3986
     0.5733   0.5908   0.6857   0.7446   0.8058   0.8772   0.9028   1.0127
     1.0347   1.0813   1.1016   1.1376   1.2510   1.3076   1.3510   1.3695
     1.4330   1.5434   1.6296   1.7106   1.7298   1.8462   1.9316   2.1873
     2.4068   2.4569   2.5553   2.6312   2.9324   3.1114   3.4545   3.5001
     3.9317   4.1635   4.3782   5.5042   6.1124   6.1248   6.3154   6.4101
     6.5622   7.1809   7.6472   7.9732   7.9929   8.2282   8.3772   8.4214
     8.5019   8.7042

          k = 0.2500-0.5125 0.0000 ( 39330 PWs)   bands (ev):

   -41.6424 -38.8330 -23.5826 -23.3115 -23.1750 -22.8981 -21.8193 -21.7097
   -21.6096 -19.4306 -19.1332 -19.0191 -16.2271 -16.2057 -15.3867 -15.1113
   -15.0814 -15.0686 -15.0185 -14.8210 -14.7972 -14.7502 -14.5267 -14.3786
   -14.3114 -14.1780 -14.1014  -9.2514  -9.0650  -9.0346  -8.9587  -8.8577
    -8.7350  -8.6600  -8.6543  -8.5791  -8.5170  -8.3578  -8.1527  -4.8914
    -4.3482  -3.9925  -3.8557  -3.5090  -3.5008  -3.4940  -3.3799  -3.2608
    -2.8669  -2.7988  -2.7372  -2.6854  -2.6097  -2.5686  -2.4973  -2.4618
    -2.1474  -2.1116  -2.0801  -2.0337  -1.7633  -1.6810  -1.5981  -1.5459
    -1.5301  -1.4241  -1.3207  -1.2549  -1.2116  -1.1415  -1.0868  -1.0152
    -0.9814  -0.9659  -0.8235  -0.5416  -0.4303  -0.3634  -0.2275  -0.0477
     0.0157   0.0236   0.1546   0.2916   0.2932   0.4373   0.4590   0.4712
     0.6305   0.6447   0.6793   0.7454   0.8769   0.9168   0.9388   0.9424
     0.9557   1.1270   1.1521   1.2396   1.3153   1.3410   1.3640   1.4719
     1.5184   1.7426   1.7903   1.7971   1.8681   2.0247   2.0996   2.2965
     2.3326   2.4991   2.4999   2.6678   2.9901   3.1658   3.5097   3.6411
     3.7854   4.1601   4.5108   5.4001   6.0647   6.1361   6.2734   6.3445
     6.9951   7.3348   7.4158   7.9887   8.1252   8.5928   8.5934   8.8081
     8.8523   8.8608

          k = 0.3750 0.0000 0.0000 ( 39308 PWs)   bands (ev):

   -41.6510 -38.8443 -23.6681 -23.3983 -23.2601 -22.9856 -21.7934 -21.7047
   -21.5163 -19.3637 -19.1866 -18.8349 -16.5031 -16.1162 -15.5662 -15.5389
   -15.4628 -15.3043 -15.2663 -14.9160 -14.7641 -14.6825 -14.5619 -14.4742
   -14.3681 -14.3092 -13.9554  -9.1714  -8.7508  -8.6596  -8.5612  -8.5073
    -8.3363  -8.2649  -8.2472  -8.1792  -8.1052  -7.9686  -7.8742  -4.1522
    -3.5352  -3.3847  -3.2296  -2.8872  -2.8681  -2.7355  -2.6920  -2.5543
    -2.4286  -2.4254  -2.3581  -2.3579  -2.2939  -1.8855  -1.8526  -1.7467
    -1.6756  -1.6593  -1.6445  -1.5309  -1.5303  -1.4466  -1.3665  -1.3107
    -1.2891  -1.1859  -1.1564  -1.1084  -1.0202  -0.9304  -0.9001  -0.8202
    -0.6291  -0.6058  -0.5398  -0.3455  -0.3396  -0.2826  -0.2513  -0.2247
    -0.1914  -0.1899  -0.1856  -0.0150  -0.0017   0.0200   0.0403   0.0742
     0.1313   0.1617   0.1952   0.2306   0.3152   0.3405   0.4346   0.5886
     0.6584   0.7508   0.8183   0.8336   0.9351   0.9994   0.9997   1.0966
     1.1388   1.2004   1.2013   1.2500   1.2752   1.3124   1.5436   1.5777
     1.6231   1.8143   1.9371   2.0207   2.0378   2.2253   2.2523   2.4524
     3.5018   4.1452   4.7582   5.8283   5.9051   5.9413   6.1563   6.3097
     6.5376   7.1449   7.3296   7.3347   7.5108   7.7566   7.7777   7.9488
     8.1137   8.2675

          k = 0.3750 0.1281 0.0000 ( 39268 PWs)   bands (ev):

   -41.6493 -38.8420 -23.6514 -23.3813 -23.2434 -22.9685 -21.7887 -21.7014
   -21.5527 -19.3564 -19.1537 -18.9332 -16.4661 -16.1067 -15.5075 -15.4653
   -15.3819 -15.2608 -15.2232 -14.8822 -14.8314 -14.6591 -14.5192 -14.4579
   -14.3513 -14.3204 -13.9588  -9.1680  -8.8098  -8.7516  -8.6554  -8.5830
    -8.5430  -8.4037  -8.2975  -8.2785  -8.1757  -8.1443  -7.9191  -4.3079
    -3.6828  -3.4400  -3.3525  -2.9057  -2.8939  -2.7705  -2.7242  -2.6860
    -2.6249  -2.5495  -2.5041  -2.2558  -2.1862  -2.1517  -2.0225  -1.9512
    -1.8841  -1.7351  -1.7053  -1.6518  -1.6016  -1.5229  -1.4930  -1.4915
    -1.4369  -1.2793  -1.2237  -1.1984  -1.1264  -0.9799  -0.8106  -0.6502
    -0.6202  -0.5534  -0.4939  -0.4764  -0.4298  -0.3145  -0.3018  -0.2883
    -0.1848  -0.1212  -0.0551  -0.0440   0.0661   0.1498   0.1512   0.1789
     0.2282   0.2343   0.2993   0.3994   0.4835   0.5343   0.5399   0.6488
     0.6736   0.7419   0.8972   0.9035   0.9532   0.9939   0.9965   1.0674
     1.1122   1.1672   1.2129   1.2865   1.4816   1.6036   1.6838   1.8462
     2.0044   2.1564   2.2598   2.3003   2.3524   2.4199   2.5285   2.7856
     3.5978   4.1371   4.5817   5.7728   5.9530   6.0825   6.1029   6.3829
     6.6269   6.9878   7.3962   7.4051   7.5522   7.9739   8.0638   8.0751
     8.1299   8.2198

          k = 0.3750 0.2563 0.0000 ( 39277 PWs)   bands (ev):

   -41.6451 -38.8366 -23.6104 -23.3397 -23.2025 -22.9264 -21.7784 -21.7106
   -21.6199 -19.3389 -19.1484 -19.0705 -16.3704 -16.0930 -15.3845 -15.2833
   -15.1963 -15.1499 -15.0853 -14.9976 -14.7998 -14.6046 -14.4202 -14.4124
   -14.3675 -14.3102 -13.9728  -9.2323  -9.1060  -8.9924  -8.8372  -8.7711
    -8.7080  -8.6127  -8.6022  -8.5662  -8.3962  -8.2092  -8.1905  -4.7227
    -4.1225  -3.6708  -3.4547  -3.3653  -3.0157  -3.0089  -2.9108  -2.8091
    -2.7381  -2.6988  -2.5818  -2.5799  -2.4993  -2.4803  -2.4411  -2.3571
    -2.3247  -2.1443  -1.9854  -1.9473  -1.5809  -1.5399  -1.4809  -1.4049
    -1.3893  -1.3379  -1.2397  -1.1679  -1.0719  -1.0021  -0.9516  -0.8920
    -0.8655  -0.7753  -0.7459  -0.5626  -0.4458  -0.2740  -0.1950  -0.0259
     0.0311   0.0729   0.1324   0.2126   0.2239   0.3279   0.3534   0.4286
     0.5002   0.5652   0.6220   0.7243   0.7291   0.7658   0.8336   0.8463
     0.9036   0.9551   0.9843   1.0450   1.0914   1.1031   1.1857   1.2969
     1.3148   1.3323   1.4587   1.5184   1.5723   1.6520   1.7292   2.1727
     2.4501   2.5294   2.6182   2.6776   3.0290   3.0629   3.1994   3.5137
     3.7441   4.2075   4.2851   5.3800   5.9274   6.1106   6.1188   6.3973
     6.4700   7.0905   7.6463   7.8183   7.9065   8.1104   8.3245   8.4124
     8.4425   8.5264

          k = 0.3750 0.3844 0.0000 ( 39371 PWs)   bands (ev):

   -41.6410 -38.8310 -23.5685 -23.2973 -23.1608 -22.8836 -21.7843 -21.7549
   -21.6326 -19.3430 -19.3185 -18.9812 -16.2542 -16.1035 -15.2718 -15.1613
   -15.0791 -15.0289 -15.0166 -14.8957 -14.7254 -14.5846 -14.4466 -14.3866
   -14.3254 -14.2357 -14.0054  -9.4713  -9.2588  -9.1430  -9.1274  -9.0348
    -8.8951  -8.8794  -8.6970  -8.6884  -8.6019  -8.5251  -8.1932  -5.1345
    -4.5748  -4.0331  -3.6706  -3.6589  -3.4729  -3.3454  -3.2342  -3.1365
    -3.0083  -2.9769  -2.8963  -2.7455  -2.6333  -2.5898  -2.4979  -2.4758
    -2.3636  -2.2081  -2.0067  -1.8446  -1.8281  -1.6282  -1.5749  -1.4632
    -1.4524  -1.4032  -1.2918  -1.2178  -1.1711  -1.1257  -1.1077  -0.9959
    -0.9671  -0.6935  -0.6577  -0.5732  -0.3492  -0.1553  -0.1243   0.1072
     0.1865   0.2502   0.2976   0.3564   0.4487   0.4946   0.6250   0.7016
     0.7255   0.7323   0.8112   0.9199   0.9442   0.9499   1.0067   1.0164
     1.1394   1.2291   1.2454   1.2791   1.3204   1.3922   1.4125   1.4248
     1.5072   1.5718   1.7397   1.7511   1.7674   1.8097   1.8666   2.4463
     2.4600   2.6097   2.6800   3.1083   3.4310   3.5959   3.6944   3.7609
     3.9796   4.0420   4.5525   4.8610   5.5622   5.7635   6.1072   6.3901
     6.6930   7.4091   7.9840   8.1281   8.2250   8.2557   8.3465   8.5214
     8.5366   8.7293

          k = 0.3750-0.5125 0.0000 ( 39430 PWs)   bands (ev):

   -41.6392 -38.8288 -23.5509 -23.2795 -23.1432 -22.8656 -21.8115 -21.7564
   -21.6291 -19.4151 -19.3132 -18.9421 -16.1625 -16.1524 -15.2745 -15.1765
   -15.0222 -14.9747 -14.8256 -14.7972 -14.7243 -14.6833 -14.4566 -14.3749
   -14.3097 -14.1665 -14.0393  -9.5490  -9.3378  -9.2756  -9.1520  -9.1186
    -9.0503  -8.9585  -8.8140  -8.6917  -8.6805  -8.5979  -8.1877  -5.2996
    -4.7558  -4.2006  -3.9168  -3.7528  -3.5376  -3.4723  -3.4711  -3.3626
    -3.1169  -3.0247  -2.9096  -2.7433  -2.6695  -2.5853  -2.5244  -2.4924
    -2.3444  -2.2350  -2.0161  -1.9424  -1.8379  -1.6532  -1.5889  -1.5148
    -1.5020  -1.4477  -1.3262  -1.2966  -1.2278  -1.2022  -1.0799  -1.0653
    -0.9694  -0.6597  -0.5638  -0.5191  -0.3231  -0.1201  -0.0691   0.1168
     0.2233   0.3729   0.3762   0.4049   0.5356   0.5721   0.6854   0.7445
     0.7627   0.8635   0.9323   0.9794   1.0246   1.0909   1.1218   1.1710
     1.1733   1.2178   1.2210   1.3055   1.4187   1.4939   1.5121   1.6025
     1.7335   1.7641   1.7674   1.8091   1.9259   1.9639   2.0373   2.2771
     2.4575   2.5989   2.7948   3.2479   3.5355   3.6721   3.7555   3.8591
     3.9372   4.2139   4.6559   4.7109   5.3644   5.5710   6.0180   6.4566
     7.2137   7.4505   7.5545   8.1871   8.2018   8.3577   8.5096   8.5888
     8.6629   8.7377

          k =-0.5000 0.0000 0.0000 ( 39274 PWs)   bands (ev):

   -41.6497 -38.8425 -23.6496 -23.3788 -23.2414 -22.9654 -21.8112 -21.7135
   -21.5145 -19.4358 -19.1482 -18.8324 -16.3757 -16.2177 -15.6175 -15.5477
   -15.3747 -15.3632 -15.3279 -14.9464 -14.7525 -14.7258 -14.4820 -14.4685
   -14.3243 -14.3173 -14.0501  -9.1783  -8.7500  -8.6431  -8.5532  -8.4728
    -8.3135  -8.2430  -8.2265  -8.1687  -8.0695  -7.9496  -7.8340  -4.2384
    -3.6586  -3.4990  -3.0309  -3.0173  -2.8156  -2.7880  -2.7187  -2.7165
    -2.6145  -2.3919  -2.3856  -2.2843  -2.1375  -1.9842  -1.9348  -1.8631
    -1.7948  -1.7740  -1.6447  -1.5817  -1.5728  -1.5678  -1.4066  -1.3494
    -1.3405  -1.2115  -1.1555  -1.1505  -1.1387  -1.1024  -0.9136  -0.8687
    -0.6545  -0.6333  -0.5782  -0.3343  -0.2937  -0.2679  -0.2405  -0.2302
    -0.1961  -0.1953  -0.1748   0.0008   0.0132   0.0662   0.0684   0.0969
     0.1003   0.1475   0.1482   0.2574   0.3341   0.3819   0.5652   0.5754
     0.7032   0.7377   0.7696   0.8522   0.8855   0.9609   1.0049   1.1467
     1.1982   1.1984   1.2266   1.2378   1.3142   1.3319   1.5288   1.5559
     1.8134   1.8628   1.9317   1.9621   2.0455   2.2386   2.4286   2.4303
     3.3440   4.2317   4.6968   6.0139   6.1737   6.4287   6.5748   6.6842
     6.7618   6.7673   6.8547   7.1556   7.3170   7.9563   8.0604   8.1714
     8.3884   8.4962

          k =-0.5000 0.1281 0.0000 ( 39244 PWs)   bands (ev):

   -41.6479 -38.8402 -23.6336 -23.3626 -23.2254 -22.9492 -21.8072 -21.7096
   -21.5506 -19.4280 -19.1159 -18.9300 -16.3434 -16.2009 -15.5633 -15.4825
   -15.3095 -15.2867 -15.2588 -14.9125 -14.8191 -14.6918 -14.4501 -14.4459
   -14.3223 -14.3062 -14.0443  -9.1732  -8.7458  -8.6812  -8.6780  -8.6400
    -8.4487  -8.4379  -8.2917  -8.2736  -8.2445  -8.0853  -8.0436  -4.4003
    -3.8116  -3.5625  -3.2513  -3.0713  -3.0394  -2.7677  -2.7378  -2.6920
    -2.6136  -2.6089  -2.3191  -2.2641  -2.2440  -2.1745  -2.1642  -2.1099
    -1.9060  -1.7062  -1.6885  -1.6476  -1.6125  -1.5612  -1.4766  -1.4645
    -1.4529  -1.3258  -1.3249  -1.2802  -1.2521  -0.9933  -0.8597  -0.6690
    -0.6605  -0.6268  -0.5387  -0.5081  -0.4239  -0.3133  -0.2848  -0.2804
    -0.1891  -0.0734  -0.0316  -0.0261   0.0600   0.1522   0.2434   0.2486
     0.2628   0.3072   0.3807   0.3944   0.4302   0.4545   0.6048   0.6543
     0.7072   0.7390   0.8615   0.9017   0.9097   0.9261   0.9985   1.1362
     1.1545   1.1620   1.2239   1.3008   1.5027   1.5736   1.8509   1.8896
     2.0989   2.1778   2.2699   2.2941   2.4051   2.5042   2.5624   2.7662
     3.4150   4.2346   4.5207   5.8064   6.1036   6.4014   6.5851   6.5976
     6.8074   6.9629   7.0316   7.0629   7.2691   8.2103   8.3558   8.3585
     8.4011   8.5047

          k =-0.5000 0.2563 0.0000 ( 39302 PWs)   bands (ev):

   -41.6438 -38.8348 -23.5944 -23.3232 -23.1864 -22.9094 -21.7976 -21.7180
   -21.6175 -19.4093 -19.1439 -19.0343 -16.2635 -16.1642 -15.4319 -15.2951
   -15.1780 -15.1689 -15.0022 -14.9808 -14.8306 -14.6090 -14.4105 -14.3654
   -14.3548 -14.2602 -14.0308  -9.1911  -9.0904  -8.9827  -8.9145  -8.7599
    -8.7464  -8.7141  -8.6024  -8.5730  -8.5274  -8.3961  -8.2120  -4.8454
    -4.2641  -3.8062  -3.4938  -3.4377  -3.1483  -2.9878  -2.9259  -2.8035
    -2.7377  -2.7337  -2.6904  -2.6300  -2.4820  -2.4801  -2.4493  -2.4044
    -2.3446  -2.1725  -1.9471  -1.9430  -1.6757  -1.5170  -1.4406  -1.3694
    -1.3186  -1.3004  -1.2484  -1.1918  -1.1798  -0.9625  -0.9591  -0.9344
    -0.8703  -0.7899  -0.7507  -0.5958  -0.4047  -0.2699  -0.0887   0.0013
     0.1040   0.1121   0.1524   0.2627   0.3227   0.3819   0.4827   0.4831
     0.5118   0.6033   0.6753   0.7911   0.8062   0.8185   0.8622   0.8675
     0.8771   0.8878   0.9314   1.0131   1.0569   1.2428   1.2515   1.2786
     1.2814   1.3278   1.3919   1.4385   1.5225   1.7004   1.8363   2.2987
     2.5187   2.6038   2.6655   2.7279   3.0796   3.1603   3.2947   3.5084
     3.6063   4.1799   4.3814   5.2225   5.8853   6.0768   6.1274   6.3152
     6.9053   7.2527   7.4420   7.7436   7.8548   8.3214   8.3791   8.5470
     8.5975   8.6598

          k =-0.5000 0.3844 0.0000 ( 39430 PWs)   bands (ev):

   -41.6397 -38.8293 -23.5545 -23.2830 -23.1466 -22.8689 -21.7879 -21.7759
   -21.6317 -19.3905 -19.3348 -18.9467 -16.1809 -16.1324 -15.2979 -15.1530
   -15.0559 -15.0188 -15.0059 -14.7629 -14.7529 -14.5574 -14.4234 -14.3809
   -14.3160 -14.1953 -14.0187  -9.5231  -9.3081  -9.2775  -9.1435  -9.1161
    -9.0537  -8.9256  -8.8334  -8.7099  -8.6875  -8.6077  -8.2060  -5.2885
    -4.7352  -4.1735  -3.7517  -3.6557  -3.4849  -3.4432  -3.2224  -3.1477
    -3.1187  -3.0419  -2.9244  -2.7411  -2.6894  -2.5889  -2.5254  -2.5087
    -2.3429  -2.2654  -1.9719  -1.9308  -1.7404  -1.6835  -1.5787  -1.4302
    -1.4185  -1.3680  -1.3646  -1.2280  -1.1548  -1.1310  -1.0833  -1.0392
    -1.0090  -0.6395  -0.5534  -0.5051  -0.3189  -0.1173   0.0054   0.1416
     0.2675   0.3187   0.4215   0.4573   0.5183   0.6523   0.7171   0.7179
     0.7548   0.7777   0.8773   0.9697   0.9924   1.0672   1.1357   1.1636
     1.1812   1.1903   1.2345   1.2559   1.3211   1.4165   1.4495   1.4888
     1.5755   1.6202   1.6736   1.7295   1.8085   1.8400   1.8696   2.4443
     2.5856   2.5914   2.8020   3.3289   3.4864   3.5123   3.8184   3.8914
     3.9172   4.2483   4.5890   4.6889   5.3235   5.5268   6.0004   6.4907
     7.1576   7.5413   7.5970   8.0036   8.0650   8.2574   8.5057   8.5400
     8.6753   8.6888

          k =-0.5000-0.5125 0.0000 ( 39388 PWs)   bands (ev):

   -41.6379 -38.8270 -23.5377 -23.2661 -23.1300 -22.8519 -21.8083 -21.7839
   -21.6283 -19.4086 -19.3828 -18.9085 -16.1459 -16.1207 -15.2421 -15.2249
   -14.9845 -14.9279 -14.8042 -14.7249 -14.6701 -14.6678 -14.4257 -14.3731
   -14.3114 -14.1597 -14.0140  -9.6708  -9.4602  -9.3986  -9.2718  -9.1712
    -9.1338  -9.0782  -8.9351  -8.8034  -8.7077  -8.6049  -8.2027  -5.4646
    -4.9246  -4.3417  -3.9055  -3.8351  -3.6195  -3.4887  -3.4601  -3.3810
    -3.2495  -3.0698  -2.9479  -2.7411  -2.7366  -2.5771  -2.5427  -2.5186
    -2.3206  -2.3069  -2.0214  -1.9714  -1.7566  -1.6621  -1.6575  -1.4767
    -1.4747  -1.4383  -1.3957  -1.3174  -1.2381  -1.1704  -1.1103  -1.0401
    -1.0233  -0.5964  -0.5264  -0.3206  -0.2937  -0.0638   0.0914   0.1528
     0.3521   0.3524   0.3932   0.5672   0.6760   0.7489   0.7818   0.7921
     0.8321   0.8497   0.8681   1.0514   1.1143   1.1193   1.2839   1.3000
     1.3070   1.3179   1.3252   1.3261   1.4334   1.4875   1.5417   1.7438
     1.7596   1.8290   1.8401   1.8512   1.9366   1.9647   2.0051   2.2715
     2.4270   2.7192   2.8928   3.4847   3.5361   3.5726   3.8004   4.0407
     4.1266   4.3607   4.4721   4.8193   5.0738   5.2840   5.9028   6.7983
     7.4639   7.5463   7.6647   7.6792   8.0400   8.0722   8.4696   8.5713
     8.5729   8.7101

     the Fermi energy is     2.2344 ev

!    total energy              =   -1868.38338326 Ry
     Harris-Foulkes estimate   =   -1868.38338369 Ry
     estimated scf accuracy    <       0.00000065 Ry

     The total energy is the sum of the following terms:

     one-electron contribution =  -29417.12100087 Ry
     hartree contribution      =   14855.28954463 Ry
     xc contribution           =    -641.71667302 Ry
     ewald contribution        =   13335.17357091 Ry
     smearing contrib. (-TS)   =      -0.00882491 Ry

     convergence has been achieved in  38 iterations

     negative rho (up, down):  9.006E-02 0.000E+00

     Forces acting on atoms (cartesian axes, Ry/au):

     atom    1 type  3   force =     0.00000000    0.00000000   -0.00012032
     atom    2 type  2   force =     0.00000000    0.00000000    0.00002648
     atom    3 type  3   force =     0.00000000    0.00000000   -0.00005327
     atom    4 type  1   force =     0.00000000    0.00000000   -0.00016335
     atom    5 type  2   force =     0.00000000    0.00000000   -0.00057329
     atom    6 type  3   force =     0.00000000    0.00000000    0.00023965
     atom    7 type  3   force =     0.00000000    0.00000000    0.00005081
     atom    8 type  4   force =     0.00000000    0.00000000   -0.00061479
     atom    9 type  3   force =     0.00000000    0.00000000    0.00082356
     atom   10 type  3   force =     0.00000000    0.00000000    0.00108515
     atom   11 type  2   force =     0.00000000    0.00000000   -0.00093653
     atom   12 type  1   force =     0.00000000    0.00000000   -0.00167222
     atom   13 type  3   force =     0.00000000    0.00000000    0.00230796
     atom   14 type  3   force =     0.00000000    0.00000000    0.00568667
     atom   15 type  2   force =     0.00000000    0.00000000   -0.00956454
     atom   16 type  3   force =     0.00000000    0.00000000    0.01901161
     atom   17 type  1   force =     0.00000000    0.00000000   -0.02238489
     atom   18 type  2   force =     0.00000000    0.00000000    0.00255479
     atom   19 type  3   force =     0.00000000    0.00000000    0.06063837
     atom   20 type  3   force =     0.00000000    0.00000000    0.06184478
     atom   21 type  4   force =     0.00000000    0.00000000   -0.11693980
     atom   22 type  3   force =     0.00000000    0.00000000    0.02531685
     atom   23 type  3   force =     0.00000000    0.00000000    0.03126494
     atom   24 type  2   force =     0.00000000    0.00000000   -0.02161892
     atom   25 type  1   force =     0.00000000    0.00000000   -0.03307376
     atom   26 type  3   force =     0.00000000    0.00000000   -0.00481626
     atom   27 type  2   force =     0.00000000    0.00000000   -0.00370667
     atom   28 type  3   force =     0.00000000    0.00000000    0.00538699

     Total force =     0.159458     Total SCF correction =     0.003450


     Computing stress (Cartesian axis) and pressure


     negative rho (up, down):  9.006E-02 0.000E+00
          total   stress  (Ry/bohr**3)                   (kbar)     P=       -9.33
  -0.00005911   0.00000000   0.00000000           -8.70        0.00        0.00
   0.00000000  -0.00004755   0.00000000            0.00       -7.00        0.00
   0.00000000   0.00000000  -0.00008358            0.00        0.00      -12.30

 
     init_run     :      9.43s CPU     10.00s WALL (       1 calls)
     electrons    :    635.63s CPU    671.29s WALL (       1 calls)
     forces       :      4.23s CPU      4.40s WALL (       1 calls)
     stress       :     26.84s CPU     27.37s WALL (       1 calls)

     Called by init_run:
     wfcinit      :      6.70s CPU      6.86s WALL (       1 calls)
     potinit      :      0.70s CPU      0.71s WALL (       1 calls)
     hinit0       :      1.07s CPU      1.09s WALL (       1 calls)

     Called by electrons:
     c_bands      :    490.29s CPU    505.29s WALL (      38 calls)
     sum_band     :     96.46s CPU    108.01s WALL (      38 calls)
     v_of_rho     :      3.60s CPU      3.64s WALL (      39 calls)
     newd         :     25.00s CPU     34.20s WALL (      39 calls)
     mix_rho      :     20.52s CPU     20.69s WALL (      38 calls)

     Called by c_bands:
     init_us_2    :      4.23s CPU      4.26s WALL (    1975 calls)
     cegterg      :    459.54s CPU    474.01s WALL (     950 calls)

     Called by sum_band:
     sum_band:bec :      0.26s CPU      0.27s WALL (     950 calls)
     addusdens    :     25.19s CPU     35.89s WALL (      38 calls)

     Called by *egterg:
     h_psi        :    239.48s CPU    249.14s WALL (    3603 calls)
     s_psi        :     24.76s CPU     25.00s WALL (    3603 calls)
     g_psi        :      0.75s CPU      0.75s WALL (    2628 calls)
     cdiaghg      :    101.03s CPU    101.43s WALL (    3578 calls)

     Called by h_psi:
     h_psi:calbec :     28.49s CPU     29.85s WALL (    3603 calls)
     vloc_psi     :    184.22s CPU    187.27s WALL (    3603 calls)
     add_vuspsi   :     25.53s CPU     28.42s WALL (    3603 calls)

     General routines
     calbec       :     50.44s CPU     51.88s WALL (    4678 calls)
     fft          :      2.99s CPU      3.01s WALL (     530 calls)
     ffts         :     10.50s CPU     10.60s WALL (   16734 calls)
     fftw         :    212.56s CPU    215.98s WALL (  674688 calls)
     interpolate  :      0.24s CPU      0.24s WALL (      39 calls)
 
     Parallel routines
     fft_scatt_xy :     27.17s CPU     27.53s WALL (  691952 calls)
     fft_scatt_yz :    131.77s CPU    133.83s WALL (  691952 calls)
 
     PWSCF        :  11m16.92s CPU  11m53.87s WALL

 
   This run was terminated on:  18:41:20   5May2021            

=------------------------------------------------------------------------------=
   JOB DONE.
=------------------------------------------------------------------------------=
[1620254480.534088] [holy7c04510:53978:0]          mpool.c:43   UCX  WARN  object 0x2f27b80 was not returned to mpool ucp_requests
[1620254480.537689] [holy7c06109:276573:0]          mpool.c:43   UCX  WARN  object 0x39c4f80 was not returned to mpool ucp_requests
[1620254480.540488] [holy7c06107:232103:0]          mpool.c:43   UCX  WARN  object 0x37140c0 was not returned to mpool ucp_requests
[1620254480.539825] [holy7c04107:273815:0]          mpool.c:43   UCX  WARN  object 0x2ffc900 was not returned to mpool ucp_requests
[1620254480.539842] [holy7c04107:273815:0]          mpool.c:43   UCX  WARN  object 0x2ffce40 was not returned to mpool ucp_requests
[1620254480.539811] [holy7c06202:69799:0]          mpool.c:43   UCX  WARN  object 0x3fb6bc0 was not returned to mpool ucp_requests
[1620254480.540711] [holy7c06108:90727:0]          mpool.c:43   UCX  WARN  object 0x3684a80 was not returned to mpool ucp_requests
[1620254480.540738] [holy7c06108:90727:0]          mpool.c:43   UCX  WARN  object 0x3684fc0 was not returned to mpool ucp_requests
