
     Program PWSCF v.6.5 starts on  5May2021 at 18:27:51 

     This program is part of the open-source Quantum ESPRESSO suite
     for quantum simulation of materials; please cite
         "P. Giannozzi et al., J. Phys.:Condens. Matter 21 395502 (2009);
         "P. Giannozzi et al., J. Phys.:Condens. Matter 29 465901 (2017);
          URL http://www.quantum-espresso.org", 
     in publications or presentations arising from this work. More details at
     http://www.quantum-espresso.org/quote

     Parallel version (MPI), running on    20 processors

     MPI processes distributed on    14 nodes
     R & G space division:  proc/nbgrp/npool/nimage =      20
     Reading input from YBCO_CuO_cleave_7.0_sep_scf.pwi
Warning: card &IONS ignored
Warning: card     ION_DYNAMICS = 'BFGS' ignored
Warning: card / ignored
Warning: card &CELL ignored
Warning: card     CELL_DYNAMICS = 'BFGS' ignored
Warning: card / ignored

     Current dimensions of program PWSCF are:
     Max number of different atomic species (ntypx) = 10
     Max number of k-points (npk) =  40000
     Max angular momentum in pseudopotentials (lmaxx) =  3

     Subspace diagonalization in iterative solution of the eigenvalue problem:
     one sub-group per band group will be used
     scalapack distributed-memory algorithm (size of sub-group:  4*  4 procs)

     Message from routine setup:
     using ibrav=0 with symmetry is DISCOURAGED, use correct ibrav instead
 
     Parallelization info
     --------------------
     sticks:   dense  smooth     PW     G-vecs:    dense   smooth      PW
     Min         150      50     14                82424    15851    2472
     Max         151      51     15                82467    15877    2527
     Sum        3015    1011    293              1648933   317199   49999
 


     bravais-lattice index     =            0
     lattice parameter (alat)  =       7.3477  a.u.
     unit-cell volume          =    5053.4933 (a.u.)^3
     number of atoms/cell      =           28
     number of atomic types    =            4
     number of electrons       =       229.00
     number of Kohn-Sham states=          138
     kinetic-energy cutoff     =      60.0000  Ry
     charge density cutoff     =     720.0000  Ry
     convergence threshold     =      1.0E-06
     mixing beta               =       0.2000
     number of iterations used =           10  local-TF  mixing
     Exchange-correlation= SLA PW PBE PBE
                           (   1   4   3   4   0   0   0)

     celldm(1)=   7.347715  celldm(2)=   0.000000  celldm(3)=   0.000000
     celldm(4)=   0.000000  celldm(5)=   0.000000  celldm(6)=   0.000000

     crystal axes: (cart. coord. in units of alat)
               a(1) = (   1.000000   0.000000   0.000000 )  
               a(2) = (   0.000000   0.975577   0.000000 )  
               a(3) = (   0.000000   0.000000  13.057892 )  

     reciprocal axes: (cart. coord. in units 2 pi/alat)
               b(1) = (  1.000000  0.000000  0.000000 )  
               b(2) = (  0.000000  1.025034  0.000000 )  
               b(3) = (  0.000000  0.000000  0.076582 )  


     PseudoPot. # 1 for Ba read from file:
     /n/holyscratch01/hoffman_lab/ruizhe/YBCO_Project/pseudo/Ba.pbe-nsp-van.UPF
     MD5 check sum: 2b9c31dd849566dd297d80989662b7a0
     Pseudo is Ultrasoft + core correction, Zval = 10.0
     Generated by new atomic code, or converted to UPF format
     Using radial grid of  907 points,  6 beta functions with: 
                l(1) =   0
                l(2) =   0
                l(3) =   1
                l(4) =   1
                l(5) =   2
                l(6) =   2
     Q(r) pseudized with  6 coefficients,  rinner =    1.200   1.200   1.200
                                                       1.200   1.200

     PseudoPot. # 2 for Cu read from file:
     /n/holyscratch01/hoffman_lab/ruizhe/YBCO_Project/pseudo/Cu.pbe-n-van_ak.UPF
     MD5 check sum: 34e3282627ffb533726feb647e090d62
     Pseudo is Ultrasoft + core correction, Zval = 11.0
     Generated by new atomic code, or converted to UPF format
     Using radial grid of  867 points,  6 beta functions with: 
                l(1) =   0
                l(2) =   0
                l(3) =   1
                l(4) =   1
                l(5) =   2
                l(6) =   2
     Q(r) pseudized with  8 coefficients,  rinner =    1.400   1.400   1.400
                                                       1.400   1.400

     PseudoPot. # 3 for O  read from file:
     /n/holyscratch01/hoffman_lab/ruizhe/YBCO_Project/pseudo/O.pbe-van_ak.UPF
     MD5 check sum: 783ce7fe4c79b6a4916957118fed0856
     Pseudo is Ultrasoft, Zval =  6.0
     Generated by new atomic code, or converted to UPF format
     Using radial grid of  737 points,  4 beta functions with: 
                l(1) =   0
                l(2) =   0
                l(3) =   1
                l(4) =   1
     Q(r) pseudized with  8 coefficients,  rinner =    0.800   0.800   0.800


     PseudoPot. # 4 for Y  read from file:
     /n/holyscratch01/hoffman_lab/ruizhe/YBCO_Project/pseudo/Y.pbe-nsp-van.UPF
     MD5 check sum: 4412fed3ab108fed87a1b7d6a69a4a38
     Pseudo is Ultrasoft + core correction, Zval = 11.0
     Generated by new atomic code, or converted to UPF format
     Using radial grid of  885 points,  6 beta functions with: 
                l(1) =   0
                l(2) =   0
                l(3) =   1
                l(4) =   1
                l(5) =   2
                l(6) =   2
     Q(r) pseudized with  6 coefficients,  rinner =    1.200   1.200   1.200
                                                       1.200   1.200

     atomic species   valence    mass     pseudopotential
        Ba            10.00   137.32700     Ba( 1.00)
        Cu            11.00    63.54600     Cu( 1.00)
        O              6.00    15.99900     O ( 1.00)
        Y             11.00    88.90584     Y ( 1.00)

      4 Sym. Ops. (no inversion) found



   Cartesian axes

     site n.     atom                  positions (alat units)
         1           O   tau(   1) = (   0.0000000   0.4877884  -0.0257983  )
         2           Cu  tau(   2) = (   0.0000000   0.0000000   0.0215779  )
         3           O   tau(   3) = (   0.0000000   0.0000000   0.5073114  )
         4           Ba  tau(   4) = (   0.4999996   0.4877884   0.5319677  )
         5           Cu  tau(   5) = (   0.0000000   0.0000000   1.0495845  )
         6           O   tau(   6) = (   0.4999996   0.0000000   1.1181579  )
         7           O   tau(   7) = (   0.0000000   0.4877884   1.1273137  )
         8           Y   tau(   8) = (   0.4999996   0.4877884   1.4938777  )
         9           O   tau(   9) = (   0.0000000   0.4877884   1.8497402  )
        10           O   tau(  10) = (   0.4999996   0.0000000   1.8692709  )
        11           Cu  tau(  11) = (   0.0000000   0.0000000   1.9417560  )
        12           Ba  tau(  12) = (   0.4999996   0.4877884   2.4526063  )
        13           O   tau(  13) = (   0.0000000   0.0000000   2.5103470  )
        14           O   tau(  14) = (   0.0000000   0.4877884   2.9968469  )
        15           Cu  tau(  15) = (   0.0000000   0.0000000   2.9968521  )
        16           O   tau(  16) = (   0.0000000   0.0000000   5.2836277  )
        17           Ba  tau(  17) = (   0.4999996   0.4877884   5.3413607  )
        18           Cu  tau(  18) = (   0.0000000   0.0000000   5.8522340  )
        19           O   tau(  19) = (   0.4999996   0.0000000   5.9247064  )
        20           O   tau(  20) = (   0.0000000   0.4877884   5.9442190  )
        21           Y   tau(  21) = (   0.4999996   0.4877884   6.3000841  )
        22           O   tau(  22) = (   0.0000000   0.4877884   6.6666481  )
        23           O   tau(  23) = (   0.4999996   0.0000000   6.6758168  )
        24           Cu  tau(  24) = (   0.0000000   0.0000000   6.7443953  )
        25           Ba  tau(  25) = (   0.4999996   0.4877884   7.2619966  )
        26           O   tau(  26) = (   0.0000000   0.0000000   7.2866530  )
        27           Cu  tau(  27) = (   0.0000000   0.0000000   7.7723582  )
        28           O   tau(  28) = (   0.0000000   0.4877884   7.8197395  )

     number of k points=    25  Gaussian smearing, width (Ry)=  0.0100
                       cart. coord. in units 2pi/alat
        k(    1) = (   0.0000000   0.0000000   0.0000000), wk =   0.0312500
        k(    2) = (   0.0000000   0.1281293   0.0000000), wk =   0.0625000
        k(    3) = (   0.0000000   0.2562585   0.0000000), wk =   0.0625000
        k(    4) = (   0.0000000   0.3843878   0.0000000), wk =   0.0625000
        k(    5) = (   0.0000000  -0.5125170   0.0000000), wk =   0.0312500
        k(    6) = (   0.1250000   0.0000000   0.0000000), wk =   0.0625000
        k(    7) = (   0.1250000   0.1281293   0.0000000), wk =   0.1250000
        k(    8) = (   0.1250000   0.2562585   0.0000000), wk =   0.1250000
        k(    9) = (   0.1250000   0.3843878   0.0000000), wk =   0.1250000
        k(   10) = (   0.1250000  -0.5125170   0.0000000), wk =   0.0625000
        k(   11) = (   0.2500000   0.0000000   0.0000000), wk =   0.0625000
        k(   12) = (   0.2500000   0.1281293   0.0000000), wk =   0.1250000
        k(   13) = (   0.2500000   0.2562585   0.0000000), wk =   0.1250000
        k(   14) = (   0.2500000   0.3843878   0.0000000), wk =   0.1250000
        k(   15) = (   0.2500000  -0.5125170   0.0000000), wk =   0.0625000
        k(   16) = (   0.3750000   0.0000000   0.0000000), wk =   0.0625000
        k(   17) = (   0.3750000   0.1281293   0.0000000), wk =   0.1250000
        k(   18) = (   0.3750000   0.2562585   0.0000000), wk =   0.1250000
        k(   19) = (   0.3750000   0.3843878   0.0000000), wk =   0.1250000
        k(   20) = (   0.3750000  -0.5125170   0.0000000), wk =   0.0625000
        k(   21) = (  -0.5000000   0.0000000   0.0000000), wk =   0.0312500
        k(   22) = (  -0.5000000   0.1281293   0.0000000), wk =   0.0625000
        k(   23) = (  -0.5000000   0.2562585   0.0000000), wk =   0.0625000
        k(   24) = (  -0.5000000   0.3843878   0.0000000), wk =   0.0625000
        k(   25) = (  -0.5000000  -0.5125170   0.0000000), wk =   0.0312500

     Dense  grid:  1648933 G-vectors     FFT dimensions: (  64,  64, 864)

     Smooth grid:   317199 G-vectors     FFT dimensions: (  40,  36, 480)

     Estimated max dynamical RAM per process >     526.04 MB

     Estimated total dynamical RAM >      10.27 GB

     Initial potential from superposition of free atoms

     starting charge  228.84827, renormalised to  229.00000

     negative rho (up, down):  8.938E-02 0.000E+00
     Starting wfcs are  201 randomized atomic wfcs

     total cpu time spent up to now is       11.1 secs

     Self-consistent Calculation

     iteration #  1     ecut=    60.00 Ry     beta= 0.20
     Davidson diagonalization with overlap
     ethr =  1.00E-02,  avg # of iterations =  2.0

     negative rho (up, down):  8.721E-02 0.000E+00

     total cpu time spent up to now is       29.5 secs

     total energy              =   -1869.52073882 Ry
     Harris-Foulkes estimate   =   -1871.09985119 Ry
     estimated scf accuracy    <      13.54025280 Ry

     iteration #  2     ecut=    60.00 Ry     beta= 0.20
     Davidson diagonalization with overlap
     ethr =  5.91E-03,  avg # of iterations =  1.0

     negative rho (up, down):  8.597E-02 0.000E+00

     total cpu time spent up to now is       46.2 secs

     total energy              =   -1868.88752533 Ry
     Harris-Foulkes estimate   =   -1869.87484536 Ry
     estimated scf accuracy    <       5.83012332 Ry

     iteration #  3     ecut=    60.00 Ry     beta= 0.20
     Davidson diagonalization with overlap
     ethr =  2.55E-03,  avg # of iterations =  1.0

     negative rho (up, down):  8.555E-02 0.000E+00

     total cpu time spent up to now is       62.5 secs

     total energy              =   -1868.70989830 Ry
     Harris-Foulkes estimate   =   -1869.16252573 Ry
     estimated scf accuracy    <       4.28614259 Ry

     iteration #  4     ecut=    60.00 Ry     beta= 0.20
     Davidson diagonalization with overlap
     ethr =  1.87E-03,  avg # of iterations =  1.8

     negative rho (up, down):  8.572E-02 0.000E+00

     total cpu time spent up to now is       79.6 secs

     total energy              =   -1868.85900459 Ry
     Harris-Foulkes estimate   =   -1868.92513840 Ry
     estimated scf accuracy    <       2.33277190 Ry

     iteration #  5     ecut=    60.00 Ry     beta= 0.20
     Davidson diagonalization with overlap
     ethr =  1.02E-03,  avg # of iterations =  1.0

     negative rho (up, down):  8.622E-02 0.000E+00

     total cpu time spent up to now is       96.0 secs

     total energy              =   -1868.82815961 Ry
     Harris-Foulkes estimate   =   -1868.89369623 Ry
     estimated scf accuracy    <       1.28179159 Ry

     iteration #  6     ecut=    60.00 Ry     beta= 0.20
     Davidson diagonalization with overlap
     ethr =  5.60E-04,  avg # of iterations =  1.0

     negative rho (up, down):  8.697E-02 0.000E+00

     total cpu time spent up to now is      112.2 secs

     total energy              =   -1868.77464323 Ry
     Harris-Foulkes estimate   =   -1868.84450690 Ry
     estimated scf accuracy    <       0.54017880 Ry

     iteration #  7     ecut=    60.00 Ry     beta= 0.20
     Davidson diagonalization with overlap
     ethr =  2.36E-04,  avg # of iterations =  4.9

     negative rho (up, down):  8.744E-02 0.000E+00

     total cpu time spent up to now is      133.4 secs

     total energy              =   -1868.77544706 Ry
     Harris-Foulkes estimate   =   -1868.79278906 Ry
     estimated scf accuracy    <       0.39836676 Ry

     iteration #  8     ecut=    60.00 Ry     beta= 0.20
     Davidson diagonalization with overlap
     ethr =  1.74E-04,  avg # of iterations =  2.7

     negative rho (up, down):  8.871E-02 0.000E+00

     total cpu time spent up to now is      151.8 secs

     total energy              =   -1868.75560993 Ry
     Harris-Foulkes estimate   =   -1868.78942362 Ry
     estimated scf accuracy    <       0.59441777 Ry

     iteration #  9     ecut=    60.00 Ry     beta= 0.20
     Davidson diagonalization with overlap
     ethr =  1.74E-04,  avg # of iterations =  4.4

     negative rho (up, down):  8.933E-02 0.000E+00

     total cpu time spent up to now is      172.3 secs

     total energy              =   -1868.75795517 Ry
     Harris-Foulkes estimate   =   -1868.76404891 Ry
     estimated scf accuracy    <       0.39992684 Ry

     iteration # 10     ecut=    60.00 Ry     beta= 0.20
     Davidson diagonalization with overlap
     ethr =  1.74E-04,  avg # of iterations =  1.0

     negative rho (up, down):  9.022E-02 0.000E+00

     total cpu time spent up to now is      188.6 secs

     total energy              =   -1868.73986295 Ry
     Harris-Foulkes estimate   =   -1868.76090976 Ry
     estimated scf accuracy    <       0.38603228 Ry

     iteration # 11     ecut=    60.00 Ry     beta= 0.20
     Davidson diagonalization with overlap
     ethr =  1.69E-04,  avg # of iterations =  2.4

     negative rho (up, down):  9.103E-02 0.000E+00

     total cpu time spent up to now is      206.7 secs

     total energy              =   -1868.73487919 Ry
     Harris-Foulkes estimate   =   -1868.74865895 Ry
     estimated scf accuracy    <       0.82765843 Ry

     iteration # 12     ecut=    60.00 Ry     beta= 0.20
     Davidson diagonalization with overlap
     ethr =  1.69E-04,  avg # of iterations =  2.6

     negative rho (up, down):  9.103E-02 0.000E+00

     total cpu time spent up to now is      224.5 secs

     total energy              =   -1868.73516092 Ry
     Harris-Foulkes estimate   =   -1868.74099839 Ry
     estimated scf accuracy    <       0.78345986 Ry

     iteration # 13     ecut=    60.00 Ry     beta= 0.20
     Davidson diagonalization with overlap
     ethr =  1.69E-04,  avg # of iterations =  1.1

     negative rho (up, down):  9.072E-02 0.000E+00

     total cpu time spent up to now is      240.7 secs

     total energy              =   -1868.72922906 Ry
     Harris-Foulkes estimate   =   -1868.73642950 Ry
     estimated scf accuracy    <       0.32394826 Ry

     iteration # 14     ecut=    60.00 Ry     beta= 0.20
     Davidson diagonalization with overlap
     ethr =  1.41E-04,  avg # of iterations =  3.0

     negative rho (up, down):  9.073E-02 0.000E+00

     total cpu time spent up to now is      259.1 secs

     total energy              =   -1868.72311288 Ry
     Harris-Foulkes estimate   =   -1868.73072813 Ry
     estimated scf accuracy    <       0.06289706 Ry

     iteration # 15     ecut=    60.00 Ry     beta= 0.20
     Davidson diagonalization with overlap
     ethr =  2.75E-05,  avg # of iterations =  8.0

     negative rho (up, down):  9.296E-02 0.000E+00

     total cpu time spent up to now is      285.9 secs

     total energy              =   -1868.72435980 Ry
     Harris-Foulkes estimate   =   -1868.72549615 Ry
     estimated scf accuracy    <       0.02590666 Ry

     iteration # 16     ecut=    60.00 Ry     beta= 0.20
     Davidson diagonalization with overlap
     ethr =  1.13E-05,  avg # of iterations =  3.5

     negative rho (up, down):  9.246E-02 0.000E+00

     total cpu time spent up to now is      305.0 secs

     total energy              =   -1868.72440588 Ry
     Harris-Foulkes estimate   =   -1868.72469340 Ry
     estimated scf accuracy    <       0.01384682 Ry

     iteration # 17     ecut=    60.00 Ry     beta= 0.20
     Davidson diagonalization with overlap
     ethr =  6.05E-06,  avg # of iterations =  5.1

     negative rho (up, down):  9.022E-02 0.000E+00

     total cpu time spent up to now is      326.1 secs

     total energy              =   -1868.72429788 Ry
     Harris-Foulkes estimate   =   -1868.72456490 Ry
     estimated scf accuracy    <       0.00996103 Ry

     iteration # 18     ecut=    60.00 Ry     beta= 0.20
     Davidson diagonalization with overlap
     ethr =  4.35E-06,  avg # of iterations =  3.6

     negative rho (up, down):  9.383E-02 0.000E+00

     total cpu time spent up to now is      345.6 secs

     total energy              =   -1868.72441600 Ry
     Harris-Foulkes estimate   =   -1868.72444710 Ry
     estimated scf accuracy    <       0.00820671 Ry

     iteration # 19     ecut=    60.00 Ry     beta= 0.20
     Davidson diagonalization with overlap
     ethr =  3.58E-06,  avg # of iterations =  7.4

     negative rho (up, down):  9.768E-02 0.000E+00

     total cpu time spent up to now is      370.3 secs

     total energy              =   -1868.72377575 Ry
     Harris-Foulkes estimate   =   -1868.72447018 Ry
     estimated scf accuracy    <       0.00810505 Ry

     iteration # 20     ecut=    60.00 Ry     beta= 0.20
     Davidson diagonalization with overlap
     ethr =  3.54E-06,  avg # of iterations =  7.8

     negative rho (up, down):  9.924E-02 0.000E+00

     total cpu time spent up to now is      396.1 secs

     total energy              =   -1868.72387992 Ry
     Harris-Foulkes estimate   =   -1868.72415570 Ry
     estimated scf accuracy    <       0.01369879 Ry

     iteration # 21     ecut=    60.00 Ry     beta= 0.20
     Davidson diagonalization with overlap
     ethr =  3.54E-06,  avg # of iterations =  2.6

     negative rho (up, down):  1.024E-01 0.000E+00

     total cpu time spent up to now is      413.8 secs

     total energy              =   -1868.72305166 Ry
     Harris-Foulkes estimate   =   -1868.72392169 Ry
     estimated scf accuracy    <       0.01376767 Ry

     iteration # 22     ecut=    60.00 Ry     beta= 0.20
     Davidson diagonalization with overlap
     ethr =  3.54E-06,  avg # of iterations =  4.8

     negative rho (up, down):  1.008E-01 0.000E+00

     total cpu time spent up to now is      434.8 secs

     total energy              =   -1868.72242816 Ry
     Harris-Foulkes estimate   =   -1868.72310212 Ry
     estimated scf accuracy    <       0.01265237 Ry

     iteration # 23     ecut=    60.00 Ry     beta= 0.20
     Davidson diagonalization with overlap
     ethr =  3.54E-06,  avg # of iterations =  3.6

     negative rho (up, down):  1.019E-01 0.000E+00

     total cpu time spent up to now is      454.0 secs

     total energy              =   -1868.72227964 Ry
     Harris-Foulkes estimate   =   -1868.72251088 Ry
     estimated scf accuracy    <       0.00987988 Ry

     iteration # 24     ecut=    60.00 Ry     beta= 0.20
     Davidson diagonalization with overlap
     ethr =  3.54E-06,  avg # of iterations =  5.9

     negative rho (up, down):  1.019E-01 0.000E+00

     total cpu time spent up to now is      476.3 secs

     total energy              =   -1868.72222196 Ry
     Harris-Foulkes estimate   =   -1868.72230750 Ry
     estimated scf accuracy    <       0.00774193 Ry

     iteration # 25     ecut=    60.00 Ry     beta= 0.20
     Davidson diagonalization with overlap
     ethr =  3.38E-06,  avg # of iterations =  2.8

     negative rho (up, down):  9.844E-02 0.000E+00

     total cpu time spent up to now is      494.4 secs

     total energy              =   -1868.72199581 Ry
     Harris-Foulkes estimate   =   -1868.72226904 Ry
     estimated scf accuracy    <       0.00573397 Ry

     iteration # 26     ecut=    60.00 Ry     beta= 0.20
     Davidson diagonalization with overlap
     ethr =  2.50E-06,  avg # of iterations =  8.4

     negative rho (up, down):  9.483E-02 0.000E+00

     total cpu time spent up to now is      520.0 secs

     total energy              =   -1868.72135569 Ry
     Harris-Foulkes estimate   =   -1868.72200418 Ry
     estimated scf accuracy    <       0.00499394 Ry

     iteration # 27     ecut=    60.00 Ry     beta= 0.20
     Davidson diagonalization with overlap
     ethr =  2.18E-06,  avg # of iterations =  7.6

     negative rho (up, down):  9.476E-02 0.000E+00

     total cpu time spent up to now is      545.5 secs

     total energy              =   -1868.72140165 Ry
     Harris-Foulkes estimate   =   -1868.72146531 Ry
     estimated scf accuracy    <       0.00082685 Ry

     iteration # 28     ecut=    60.00 Ry     beta= 0.20
     Davidson diagonalization with overlap
     ethr =  3.61E-07,  avg # of iterations =  4.8

     negative rho (up, down):  9.211E-02 0.000E+00

     total cpu time spent up to now is      566.1 secs

     total energy              =   -1868.72149818 Ry
     Harris-Foulkes estimate   =   -1868.72142732 Ry
     estimated scf accuracy    <       0.00053112 Ry

     iteration # 29     ecut=    60.00 Ry     beta= 0.20
     Davidson diagonalization with overlap
     ethr =  2.32E-07,  avg # of iterations =  8.0

     negative rho (up, down):  9.255E-02 0.000E+00

     total cpu time spent up to now is      592.4 secs

     total energy              =   -1868.72155302 Ry
     Harris-Foulkes estimate   =   -1868.72152229 Ry
     estimated scf accuracy    <       0.00011531 Ry

     iteration # 30     ecut=    60.00 Ry     beta= 0.20
     Davidson diagonalization with overlap
     c_bands:  1 eigenvalues not converged
     ethr =  5.04E-08,  avg # of iterations =  7.4

     negative rho (up, down):  9.213E-02 0.000E+00

     total cpu time spent up to now is      617.0 secs

     total energy              =   -1868.72156989 Ry
     Harris-Foulkes estimate   =   -1868.72155972 Ry
     estimated scf accuracy    <       0.00004188 Ry

     iteration # 31     ecut=    60.00 Ry     beta= 0.20
     Davidson diagonalization with overlap
     ethr =  1.83E-08,  avg # of iterations =  3.9

     negative rho (up, down):  9.135E-02 0.000E+00

     total cpu time spent up to now is      636.1 secs

     total energy              =   -1868.72155646 Ry
     Harris-Foulkes estimate   =   -1868.72157124 Ry
     estimated scf accuracy    <       0.00002435 Ry

     iteration # 32     ecut=    60.00 Ry     beta= 0.20
     Davidson diagonalization with overlap
     c_bands:  1 eigenvalues not converged
     c_bands:  1 eigenvalues not converged
     ethr =  1.06E-08,  avg # of iterations =  6.1

     negative rho (up, down):  9.102E-02 0.000E+00

     total cpu time spent up to now is      658.3 secs

     total energy              =   -1868.72154824 Ry
     Harris-Foulkes estimate   =   -1868.72155737 Ry
     estimated scf accuracy    <       0.00001394 Ry

     iteration # 33     ecut=    60.00 Ry     beta= 0.20
     Davidson diagonalization with overlap
     c_bands:  1 eigenvalues not converged
     ethr =  6.09E-09,  avg # of iterations =  4.8

     negative rho (up, down):  9.089E-02 0.000E+00

     total cpu time spent up to now is      678.5 secs

     total energy              =   -1868.72154451 Ry
     Harris-Foulkes estimate   =   -1868.72154870 Ry
     estimated scf accuracy    <       0.00000706 Ry

     iteration # 34     ecut=    60.00 Ry     beta= 0.20
     Davidson diagonalization with overlap
     ethr =  3.08E-09,  avg # of iterations =  2.2

     negative rho (up, down):  9.092E-02 0.000E+00

     total cpu time spent up to now is      695.6 secs

     total energy              =   -1868.72154402 Ry
     Harris-Foulkes estimate   =   -1868.72154475 Ry
     estimated scf accuracy    <       0.00000448 Ry

     iteration # 35     ecut=    60.00 Ry     beta= 0.20
     Davidson diagonalization with overlap
     ethr =  1.96E-09,  avg # of iterations =  1.0

     negative rho (up, down):  9.103E-02 0.000E+00

     total cpu time spent up to now is      711.6 secs

     total energy              =   -1868.72154424 Ry
     Harris-Foulkes estimate   =   -1868.72154406 Ry
     estimated scf accuracy    <       0.00000337 Ry

     iteration # 36     ecut=    60.00 Ry     beta= 0.20
     Davidson diagonalization with overlap
     ethr =  1.47E-09,  avg # of iterations =  1.3

     negative rho (up, down):  9.099E-02 0.000E+00

     total cpu time spent up to now is      727.7 secs

     total energy              =   -1868.72154426 Ry
     Harris-Foulkes estimate   =   -1868.72154429 Ry
     estimated scf accuracy    <       0.00000224 Ry

     iteration # 37     ecut=    60.00 Ry     beta= 0.20
     Davidson diagonalization with overlap
     ethr =  9.76E-10,  avg # of iterations =  2.0

     negative rho (up, down):  9.090E-02 0.000E+00

     total cpu time spent up to now is      744.9 secs

     total energy              =   -1868.72154411 Ry
     Harris-Foulkes estimate   =   -1868.72154430 Ry
     estimated scf accuracy    <       0.00000166 Ry

     iteration # 38     ecut=    60.00 Ry     beta= 0.20
     Davidson diagonalization with overlap
     ethr =  7.23E-10,  avg # of iterations =  1.0

     negative rho (up, down):  9.083E-02 0.000E+00

     total cpu time spent up to now is      761.0 secs

     total energy              =   -1868.72154420 Ry
     Harris-Foulkes estimate   =   -1868.72154413 Ry
     estimated scf accuracy    <       0.00000122 Ry

     iteration # 39     ecut=    60.00 Ry     beta= 0.20
     Davidson diagonalization with overlap
     ethr =  5.31E-10,  avg # of iterations =  1.3

     negative rho (up, down):  9.042E-02 0.000E+00

     total cpu time spent up to now is      776.8 secs

     End of self-consistent calculation

          k = 0.0000 0.0000 0.0000 ( 39547 PWs)   bands (ev):

   -38.9957 -38.9187 -23.6250 -23.6124 -23.5304 -23.4639 -19.5285 -19.4606
   -19.0010 -18.9922 -18.9247 -18.9116 -16.3197 -16.2694 -15.3620 -15.3082
   -15.1089 -15.1052 -15.0991 -15.0549 -15.0054 -14.8439 -14.7900 -14.6061
   -14.5939 -14.3447 -13.0636  -8.9064  -8.8456  -8.8268  -8.6775  -8.6172
    -8.6052  -8.5903  -8.5785  -8.4371  -8.4142  -8.4016  -8.3198  -2.9512
    -2.9208  -2.8990  -2.8710  -2.7805  -2.7254  -2.7073  -2.6978  -2.6640
    -2.6236  -2.5878  -2.5331  -2.4120  -1.7564  -1.6939  -1.3047  -1.2881
    -1.2357  -0.9731  -0.9156  -0.9155  -0.9066  -0.8782  -0.8714  -0.7170
    -0.7149  -0.6827  -0.6629  -0.6435  -0.6361  -0.5844  -0.5791  -0.5531
    -0.5438  -0.4539  -0.4504  -0.4385  -0.4372  -0.4143  -0.3532  -0.3374
    -0.2997  -0.2949  -0.2859  -0.2708  -0.2200  -0.1856  -0.1818  -0.1645
     0.1219   0.2587   0.3032   0.3682   0.3726   0.4107   0.4414   0.4789
     0.5172   0.5307   0.5353   0.6205   0.6285   0.6405   0.6527   0.6548
     0.6973   1.0758   1.1177   1.1380   1.1456   1.2295   1.3374   1.3444
     1.4261   1.6430   1.7802   1.8286   1.8647   1.9075   1.9350   4.3610
     4.4512   4.5124   5.0276   5.0646   5.5129   5.8184   5.8335   5.9820
     6.0366   6.5389   6.6547   7.2971   7.2984   7.3728   7.3802   7.5065
     7.7403   7.8013

          k = 0.0000 0.1281 0.0000 ( 39557 PWs)   bands (ev):

   -38.9933 -38.9163 -23.6035 -23.5908 -23.5119 -23.4427 -19.4926 -19.4245
   -19.0965 -19.0164 -18.9978 -18.9215 -16.2108 -16.1614 -15.3701 -15.3147
   -15.1181 -15.1072 -15.0749 -15.0239 -14.9882 -14.8893 -14.8378 -14.6118
   -14.5980 -14.3767 -13.1353  -8.8955  -8.8286  -8.8116  -8.6665  -8.6097
    -8.5980  -8.5760  -8.5639  -8.4363  -8.3976  -8.3688  -8.3189  -3.0413
    -3.0333  -3.0153  -2.9595  -2.9016  -2.8506  -2.7094  -2.7025  -2.5937
    -2.5724  -2.5348  -2.5179  -2.4212  -1.8255  -1.8077  -1.7490  -1.6904
    -1.6383  -1.3034  -1.2683  -1.0827  -1.0053  -0.9675  -0.9667  -0.9604
    -0.9511  -0.9445  -0.9160  -0.8742  -0.7509  -0.6245  -0.5748  -0.5510
    -0.5370  -0.4780  -0.4693  -0.4197  -0.3970  -0.3220  -0.3191  -0.3076
    -0.2869  -0.2845  -0.2251  -0.1895  -0.1876  -0.1651  -0.0024   0.0268
     0.0630   0.1003   0.1772   0.2388   0.3217   0.3436   0.3625   0.5830
     0.6008   0.6323   0.6507   0.6767   0.7988   0.8387   0.8531   0.8709
     0.8743   1.0540   1.1145   1.1232   1.1798   1.1925   1.2939   1.4243
     1.4789   1.7041   1.7285   1.9669   1.9940   2.1543   2.1676   4.7444
     4.8220   4.8286   5.2725   5.3006   5.6498   6.1405   6.1560   6.2801
     6.3460   6.8015   6.9147   7.2378   7.3120   7.4630   7.5387   7.6622
     7.9906   7.9986

          k = 0.0000 0.2563 0.0000 ( 39594 PWs)   bands (ev):

   -38.9878 -38.9107 -23.5504 -23.5377 -23.4665 -23.3908 -19.4016 -19.3332
   -19.3215 -19.2422 -18.9900 -18.9137 -15.9624 -15.9161 -15.4451 -15.3862
   -15.1818 -15.1570 -15.0279 -14.9574 -14.9544 -14.9400 -14.9093 -14.5898
   -14.5731 -14.4245 -13.3042  -8.8700  -8.7881  -8.7728  -8.6508  -8.6392
    -8.6380  -8.4843  -8.4728  -8.4606  -8.3143  -8.2987  -8.2873  -3.4696
    -3.4354  -3.3355  -3.2698  -2.8565  -2.8499  -2.7592  -2.7450  -2.7120
    -2.5854  -2.5728  -2.5204  -2.5128  -2.4656  -2.4477  -2.3567  -1.7565
    -1.7055  -1.6882  -1.5996  -1.4713  -1.3369  -1.3238  -1.3087  -1.2537
    -1.1948  -1.1893  -1.1304  -1.1157  -0.9427  -0.8952  -0.8813  -0.8294
    -0.7468  -0.7104  -0.6300  -0.5522  -0.5134  -0.4945  -0.3145  -0.2676
    -0.2488  -0.2480  -0.2453  -0.1687  -0.1594  -0.1502  -0.0982  -0.0470
     0.3287   0.3480   0.4068   0.4608   0.4890   0.5516   0.5958   0.6632
     0.6695   0.7365   0.7696   0.8258   0.8939   0.9175   0.9176   0.9964
     1.0203   1.1567   1.1843   1.3129   1.3507   1.4157   1.4301   1.4389
     1.4961   1.5960   1.6565   2.0727   2.3632   2.4661   2.4904   5.5563
     5.6992   5.7137   5.9126   5.9877   6.0344   7.0018   7.0155   7.0716
     7.1074   7.1816   7.1956   7.3754   7.4850   7.8602   7.9332   7.9980
     8.1766   8.3043

          k = 0.0000 0.3844 0.0000 ( 39506 PWs)   bands (ev):

   -38.9821 -38.9051 -23.4959 -23.4832 -23.4200 -23.3375 -19.5195 -19.4406
   -19.3033 -19.2347 -18.9823 -18.9059 -15.7105 -15.6732 -15.5894 -15.5251
   -15.2953 -15.2496 -15.0487 -14.9548 -14.9168 -14.9025 -14.8876 -14.5313
   -14.5132 -14.4222 -13.4663  -8.8445  -8.7479  -8.7325  -8.6837  -8.6724
    -8.6051  -8.5291  -8.3639  -8.3515  -8.3064  -8.2026  -8.1945  -3.8368
    -3.8063  -3.6474  -3.5749  -3.4137  -3.3989  -3.3942  -2.7633  -2.7592
    -2.5641  -2.5504  -2.5106  -2.5017  -2.4415  -2.4275  -2.3708  -2.0653
    -1.9094  -1.7349  -1.7011  -1.6730  -1.6671  -1.6149  -1.6060  -1.5510
    -1.4362  -1.4316  -1.2770  -1.2284  -1.1648  -1.1391  -1.1248  -1.0721
    -0.9628  -0.9476  -0.9304  -0.8389  -0.5763  -0.4482  -0.3824  -0.2764
    -0.2544  -0.2384  -0.2246  -0.2195  -0.1643  -0.1242   0.1222   0.1934
     0.3976   0.4423   0.5143   0.5463   0.5678   0.5917   0.6112   0.6251
     0.7247   0.7390   0.8074   0.8853   1.0197   1.0673   1.1046   1.1144
     1.2073   1.2506   1.2629   1.3783   1.3970   1.5814   1.6375   1.7040
     1.8233   1.8387   1.9118   2.0420   2.3652   2.4448   2.5366   6.4141
     6.5159   6.5873   6.6863   6.7857   6.8776   6.9945   7.0692   7.7126
     7.7256   7.8380   7.8825   7.9518   8.0500   8.1491   8.2136   8.2857
     8.3535   8.7610

          k = 0.0000-0.5125 0.0000 ( 39630 PWs)   bands (ev):

   -38.9798 -38.9028 -23.4729 -23.4601 -23.4005 -23.3149 -19.5955 -19.5167
   -19.2602 -19.1914 -18.9790 -18.9027 -15.6660 -15.6125 -15.5801 -15.5424
   -15.3690 -15.3059 -15.0767 -14.9430 -14.9030 -14.8947 -14.8652 -14.5001
   -14.4818 -14.4075 -13.5310  -8.8340  -8.7314  -8.7156  -8.6952  -8.6841
    -8.5839  -8.5533  -8.3168  -8.3044  -8.3023  -8.1665  -8.1497  -3.9801
    -3.9517  -3.7897  -3.7072  -3.6520  -3.6304  -3.6290  -2.7979  -2.7945
    -2.6235  -2.5643  -2.4643  -2.4010  -2.3681  -2.3582  -2.3017  -2.1873
    -1.9799  -1.9035  -1.8450  -1.8332  -1.8031  -1.7974  -1.5405  -1.5362
    -1.4860  -1.4172  -1.3726  -1.3153  -1.2628  -1.2262  -1.2117  -1.1860
    -1.1572  -1.1259  -0.9642  -0.9047  -0.6114  -0.3626  -0.3080  -0.2988
    -0.2839  -0.2834  -0.2186  -0.2130  -0.1805  -0.1182   0.2139   0.2459
     0.4360   0.4531   0.5220   0.5332   0.5998   0.6009   0.6633   0.6804
     0.6912   0.6964   0.7645   0.8019   1.0942   1.1688   1.1803   1.1879
     1.2010   1.2585   1.3015   1.5050   1.5622   1.6865   1.7058   1.9511
     1.9645   1.9857   2.0012   2.0765   2.2295   2.3241   2.4592   6.8665
     6.9424   6.9518   7.0267   7.0407   7.0787   7.0928   7.3947   7.5081
     7.8834   8.0691   8.0954   8.2390   8.3554   8.3569   8.3665   8.3881
     8.7364   8.7870

          k = 0.1250 0.0000 0.0000 ( 39572 PWs)   bands (ev):

   -38.9939 -38.9168 -23.6066 -23.5940 -23.5153 -23.4459 -19.4961 -19.4279
   -19.1010 -19.0258 -18.9896 -18.9091 -16.2045 -16.1528 -15.3864 -15.3364
   -15.1567 -15.1462 -15.0878 -15.0416 -15.0341 -14.8734 -14.8168 -14.6068
   -14.5938 -14.3552 -13.1406  -8.8970  -8.8556  -8.8373  -8.7021  -8.5822
    -8.5702  -8.5561  -8.5442  -8.3990  -8.3814  -8.3649  -8.2926  -3.0362
    -2.9936  -2.9477  -2.8717  -2.8695  -2.8220  -2.6964  -2.6818  -2.6531
    -2.6136  -2.6112  -2.5552  -2.4122  -1.7420  -1.6798  -1.2992  -1.2826
    -1.2758  -1.1909  -1.1238  -1.0129  -0.9955  -0.9931  -0.9819  -0.9321
    -0.9047  -0.9030  -0.8691  -0.7356  -0.6810  -0.6460  -0.6292  -0.4893
    -0.4397  -0.4232  -0.3734  -0.3633  -0.3436  -0.3321  -0.3030  -0.2950
    -0.2881  -0.2199  -0.2068  -0.1970  -0.1850  -0.1832  -0.1585  -0.1490
     0.0556   0.1083   0.1543   0.1895   0.1952   0.3878   0.3959   0.4122
     0.4309   0.4430   0.5022   0.6049   0.6279   0.6725   0.7377   0.8622
     0.8794   1.0175   1.1516   1.1932   1.2839   1.2915   1.3602   1.4354
     1.4565   1.6918   1.6939   1.7907   1.8363   1.8704   1.9816   4.5734
     4.6417   4.6608   5.2388   5.2661   5.6380   6.0574   6.0773   6.2015
     6.3001   6.7674   6.8770   7.2790   7.3529   7.4461   7.5315   7.6562
     8.0132   8.0457

          k = 0.1250 0.1281 0.0000 ( 39598 PWs)   bands (ev):

   -38.9916 -38.9145 -23.5858 -23.5731 -23.4973 -23.4255 -19.4607 -19.3923
   -19.1051 -19.0843 -19.0284 -19.0058 -16.0965 -16.0457 -15.3844 -15.3324
   -15.1528 -15.1427 -15.0573 -15.0228 -15.0058 -14.9268 -14.8709 -14.6065
   -14.5923 -14.3776 -13.1904  -8.8856  -8.8430  -8.8269  -8.7302  -8.7178
    -8.6874  -8.5507  -8.4907  -8.4322  -8.4204  -8.2636  -8.1863  -3.1385
    -3.1025  -3.0914  -3.0077  -2.9006  -2.8568  -2.7470  -2.7112  -2.6851
    -2.6640  -2.5345  -2.4665  -2.4115  -1.8191  -1.8021  -1.7691  -1.6476
    -1.5902  -1.5066  -1.4617  -1.2980  -1.2812  -1.2006  -1.1697  -1.0715
    -0.9610  -0.9522  -0.8400  -0.7559  -0.7409  -0.6713  -0.6595  -0.5644
    -0.5524  -0.5191  -0.4854  -0.4008  -0.3909  -0.3481  -0.3446  -0.3047
    -0.2554  -0.2491  -0.2415  -0.2346  -0.1206  -0.1196  -0.0010   0.0281
     0.1199   0.1729   0.2619   0.3056   0.3236   0.3417   0.3810   0.4360
     0.4411   0.5843   0.6238   0.6547   0.7018   0.7212   0.7728   0.9945
     1.0061   1.0495   1.0597   1.0707   1.1694   1.3691   1.5027   1.6046
     1.7333   1.7972   1.9421   1.9955   2.0124   2.1652   2.1808   4.8931
     4.9571   4.9659   5.4368   5.4837   5.7639   6.3700   6.3895   6.4862
     6.6004   6.9875   7.0871   7.1847   7.2665   7.6045   7.6747   7.7982
     8.0894   8.1641

          k = 0.1250 0.2563 0.0000 ( 39622 PWs)   bands (ev):

   -38.9860 -38.9090 -23.5347 -23.5219 -23.4531 -23.3753 -19.3708 -19.3170
   -19.3022 -19.2377 -19.0853 -19.0100 -15.8504 -15.8031 -15.4302 -15.3717
   -15.1806 -15.1607 -15.0249 -15.0002 -14.9718 -14.9584 -14.9294 -14.5811
   -14.5645 -14.4137 -13.3124  -8.8614  -8.8536  -8.8413  -8.7883  -8.7738
    -8.6711  -8.6439  -8.5688  -8.3882  -8.3763  -8.2278  -8.1486  -3.5754
    -3.5312  -3.3670  -3.2997  -2.8792  -2.8678  -2.8092  -2.7567  -2.7396
    -2.6976  -2.6701  -2.5798  -2.5675  -2.4576  -2.3828  -2.3480  -1.8561
    -1.7959  -1.6972  -1.6550  -1.6429  -1.6308  -1.5890  -1.5267  -1.4861
    -1.1338  -1.1241  -1.0627  -1.0266  -0.9289  -0.8808  -0.8749  -0.8235
    -0.6472  -0.6401  -0.5827  -0.4759  -0.4488  -0.4431  -0.3534  -0.3414
    -0.3089  -0.2515  -0.2162  -0.2015  -0.1506  -0.1025   0.1110   0.1551
     0.3490   0.3709   0.3982   0.4733   0.4849   0.5810   0.5821   0.6016
     0.6194   0.7234   0.7792   0.7949   0.8721   0.8772   1.0066   1.0098
     1.0284   1.0667   1.1839   1.3859   1.3998   1.4751   1.5723   1.8421
     1.8909   1.9500   2.0613   2.1744   2.3620   2.4734   2.4966   5.6325
     5.7524   5.7673   6.0176   6.0846   6.1458   6.9562   7.0405   7.2056
     7.2144   7.2331   7.4194   7.5408   7.6489   7.8134   7.9073   8.0541
     8.1977   8.2471

          k = 0.1250 0.3844 0.0000 ( 39621 PWs)   bands (ev):

   -38.9804 -38.9034 -23.4821 -23.4694 -23.4080 -23.3238 -19.5135 -19.4346
   -19.2740 -19.2051 -19.0754 -19.0001 -15.6046 -15.5738 -15.5496 -15.4750
   -15.2627 -15.2259 -15.0288 -15.0148 -14.9779 -14.8828 -14.8775 -14.5273
   -14.5093 -14.4161 -13.4349  -8.8581  -8.8475  -8.8380  -8.7579  -8.7431
    -8.6940  -8.6117  -8.5280  -8.4363  -8.4241  -8.2719  -8.2228  -3.9574
    -3.9172  -3.6934  -3.6226  -3.4034  -3.3885  -3.3820  -2.7981  -2.7891
    -2.6857  -2.6218  -2.6064  -2.5928  -2.4568  -2.4094  -2.3914  -2.1189
    -2.0991  -2.0961  -2.0165  -1.9150  -1.8208  -1.6913  -1.5241  -1.4650
    -1.3183  -1.3129  -1.2918  -1.2708  -1.1493  -1.1260  -1.0775  -1.0660
    -0.7632  -0.7413  -0.6553  -0.6236  -0.5059  -0.3662  -0.3573  -0.3052
    -0.2467  -0.2430  -0.2330  -0.1963  -0.1652  -0.1027   0.2165   0.2750
     0.3996   0.4418   0.5333   0.5861   0.6090   0.6566   0.6703   0.7112
     0.7363   0.7415   0.8504   0.9469   1.0226   1.0448   1.0615   1.0634
     1.3143   1.3938   1.4045   1.6678   1.7969   1.8128   1.8720   1.8869
     1.9007   1.9271   2.0983   2.1695   2.3645   2.4746   2.5513   6.3952
     6.4511   6.4947   6.6251   6.6582   6.8113   6.9262   7.0240   7.6520
     7.7500   7.7623   7.7960   8.0731   8.1879   8.2741   8.3338   8.3695
     8.5573   8.8514

          k = 0.1250-0.5125 0.0000 ( 39612 PWs)   bands (ev):

   -38.9781 -38.9011 -23.4600 -23.4472 -23.3890 -23.3021 -19.5890 -19.5103
   -19.2316 -19.1625 -19.0713 -18.9959 -15.6256 -15.5712 -15.4627 -15.4243
   -15.3314 -15.2762 -15.0471 -15.0036 -14.9640 -14.8717 -14.8464 -14.4988
   -14.4805 -14.4065 -13.4852  -8.8327  -8.8298  -8.8215  -8.7440  -8.7285
    -8.6819  -8.5979  -8.4844  -8.4721  -8.4391  -8.3244  -8.3108  -4.1055
    -4.0670  -3.8389  -3.7616  -3.6430  -3.6247  -3.6243  -2.8145  -2.8084
    -2.6314  -2.5571  -2.5057  -2.4775  -2.4568  -2.4552  -2.3841  -2.3002
    -2.2608  -2.2496  -2.2444  -1.9972  -1.8667  -1.7482  -1.4760  -1.4452
    -1.3949  -1.3932  -1.3566  -1.3058  -1.2370  -1.2167  -1.1616  -1.1366
    -0.8090  -0.7712  -0.7418  -0.6954  -0.6087  -0.3601  -0.3433  -0.2750
    -0.2618  -0.2319  -0.2201  -0.1612  -0.1162  -0.1090   0.3126   0.3469
     0.4456   0.5119   0.5368   0.5685   0.5863   0.6805   0.7017   0.7049
     0.7138   0.7173   0.8058   0.9833   1.1025   1.1243   1.1465   1.2462
     1.2851   1.6798   1.6989   1.8399   1.8559   1.8854   1.9312   1.9646
     1.9803   2.0343   2.0696   2.0705   2.2472   2.3846   2.4798   6.6143
     6.6776   6.7459   6.7719   6.8370   6.9451   7.0367   7.4783   7.4804
     7.8701   8.2594   8.2816   8.3148   8.4878   8.5118   8.5576   8.5832
     8.6508   8.7144

          k = 0.2500 0.0000 0.0000 ( 39674 PWs)   bands (ev):

   -38.9895 -38.9125 -23.5615 -23.5488 -23.4783 -23.4017 -19.4146 -19.3454
   -19.3156 -19.2425 -18.9836 -18.9030 -15.9407 -15.8865 -15.4941 -15.4505
   -15.2756 -15.2548 -15.1537 -15.0321 -14.9973 -14.9090 -14.8461 -14.6014
   -14.5873 -14.3698 -13.3196  -8.8727  -8.8664  -8.8477  -8.7282  -8.5121
    -8.5002  -8.4708  -8.4588  -8.3413  -8.2998  -8.2819  -8.2253  -3.3397
    -3.3045  -3.2644  -3.1694  -2.7372  -2.7340  -2.7295  -2.6786  -2.6164
    -2.5803  -2.5306  -2.4543  -2.4524  -1.8238  -1.7736  -1.4944  -1.4207
    -1.3827  -1.3804  -1.3698  -1.2922  -1.2771  -1.2720  -1.2577  -1.2017
    -1.1936  -1.0078  -0.9504  -0.8955  -0.7260  -0.6720  -0.6461  -0.6365
    -0.5917  -0.5624  -0.5547  -0.3929  -0.3767  -0.3731  -0.3236  -0.3099
    -0.2087  -0.1772  -0.1729  -0.1546  -0.1389  -0.1104  -0.0827  -0.0449
    -0.0203   0.0279   0.0479   0.2442   0.2583   0.3986   0.4449   0.4780
     0.4894   0.5466   0.5679   0.7038   0.7342   0.7490   0.7565   0.8109
     0.8455   0.8599   1.1737   1.1845   1.2239   1.2253   1.3495   1.3843
     1.5397   1.6727   1.7153   1.8043   1.9115   2.0049   2.1118   5.0381
     5.0807   5.0915   5.7795   5.8640   5.9835   6.6904   6.7178   6.7967
     7.0491   7.2334   7.2510   7.3062   7.3428   7.8309   7.9547   8.0406
     8.2500   8.3198

          k = 0.2500 0.1281 0.0000 ( 39646 PWs)   bands (ev):

   -38.9872 -38.9102 -23.5425 -23.5298 -23.4615 -23.3830 -19.3806 -19.3112
   -19.3098 -19.2367 -19.0837 -19.0035 -15.8353 -15.7825 -15.4679 -15.4213
   -15.2481 -15.2308 -15.1150 -15.0080 -14.9747 -14.9713 -14.9081 -14.5912
   -14.5765 -14.3748 -13.3231  -8.8736  -8.8652  -8.8558  -8.7579  -8.7448
    -8.7334  -8.5733  -8.5354  -8.3581  -8.3462  -8.2028  -8.1167  -3.4840
    -3.4312  -3.3045  -3.2204  -2.8316  -2.8210  -2.8084  -2.7671  -2.7124
    -2.7060  -2.4450  -2.4357  -2.3650  -1.8651  -1.8176  -1.8077  -1.8026
    -1.7960  -1.7046  -1.6589  -1.6579  -1.6199  -1.5173  -1.4758  -1.2081
    -1.0963  -1.0385  -0.9020  -0.8274  -0.7309  -0.6877  -0.6601  -0.5989
    -0.5924  -0.5749  -0.5311  -0.4767  -0.4546  -0.4245  -0.3637  -0.3503
    -0.3249  -0.2635  -0.1451  -0.1240  -0.1105  -0.0152   0.0086   0.0248
     0.1721   0.2070   0.3427   0.3945   0.4093   0.4723   0.4893   0.5339
     0.5701   0.5962   0.6665   0.6764   0.6842   0.7175   0.7655   0.9002
     0.9090   0.9633   1.0918   1.1063   1.1244   1.1968   1.6337   1.9070
     1.9418   2.0057   2.0597   2.1364   2.1803   2.2439   2.2712   5.2652
     5.3202   5.3335   5.9123   5.9927   6.1063   6.9373   6.9786   7.0170
     7.0544   7.0972   7.3287   7.4787   7.5685   7.8915   7.9783   8.0324
     8.1545   8.1828

          k = 0.2500 0.2563 0.0000 ( 39669 PWs)   bands (ev):

   -38.9817 -38.9046 -23.4960 -23.4833 -23.4204 -23.3372 -19.3174 -19.2946
   -19.2797 -19.2404 -19.2247 -19.2044 -15.6000 -15.5567 -15.4220 -15.3587
   -15.1944 -15.1822 -15.1179 -15.0653 -15.0202 -14.9509 -14.8929 -14.5591
   -14.5429 -14.3873 -13.3366  -9.0598  -9.0479  -8.8773  -8.8425  -8.8070
    -8.7927  -8.7846  -8.6596  -8.4553  -8.4434  -8.3012  -8.2066  -3.9072
    -3.8481  -3.5278  -3.4486  -2.9662  -2.9510  -2.9335  -2.8731  -2.8093
    -2.8019  -2.6828  -2.5879  -2.5758  -2.4005  -2.3438  -2.2982  -2.2307
    -2.2123  -2.1818  -2.1000  -1.6910  -1.6514  -1.6221  -1.5455  -1.4487
    -1.1953  -1.1662  -1.0376  -0.9964  -0.9561  -0.9342  -0.8941  -0.8585
    -0.8510  -0.7412  -0.6286  -0.4370  -0.3112  -0.2991  -0.2605  -0.1797
    -0.1333  -0.1121  -0.0727  -0.0639   0.0342   0.0516   0.3858   0.4184
     0.4533   0.4734   0.5038   0.5377   0.5539   0.5575   0.5718   0.6233
     0.6473   0.6693   0.6912   0.7606   0.9664   0.9666   1.0255   1.1074
     1.1256   1.2100   1.2226   1.3112   1.3219   1.4151   1.8597   1.9723
     2.3576   2.4400   2.4674   2.5174   2.5508   2.7052   2.7383   5.7986
     5.8399   5.8456   6.2585   6.2802   6.5237   6.7547   6.8590   7.4316
     7.4949   7.5044   7.8340   7.9233   7.9525   7.9857   8.0381   8.2110
     8.2905   8.3138

          k = 0.2500 0.3844 0.0000 ( 39707 PWs)   bands (ev):

   -38.9761 -38.8991 -23.4485 -23.4357 -23.3786 -23.2904 -19.4990 -19.4200
   -19.2803 -19.2067 -19.1989 -19.1293 -15.4740 -15.4336 -15.3581 -15.2831
   -15.1801 -15.1630 -15.1592 -15.1276 -14.9681 -14.8599 -14.8353 -14.5160
   -14.4983 -14.3990 -13.3569  -9.1664  -9.1547  -8.9854  -8.8613  -8.8246
    -8.7855  -8.7709  -8.6922  -8.6801  -8.6441  -8.5213  -8.4531  -4.3204
    -4.2639  -3.8768  -3.8006  -3.3766  -3.3617  -3.3511  -2.9971  -2.9761
    -2.9154  -2.8518  -2.7013  -2.6946  -2.6895  -2.6619  -2.4687  -2.4200
    -2.4043  -2.1820  -2.1226  -1.7326  -1.6999  -1.6563  -1.5610  -1.5345
    -1.4143  -1.3510  -1.1993  -1.1852  -1.1672  -1.1236  -1.1130  -0.9538
    -0.9127  -0.8015  -0.6603  -0.4198  -0.2455  -0.2024  -0.1605  -0.1171
    -0.0494  -0.0132   0.0632   0.1446   0.1972   0.2478   0.4350   0.4546
     0.4657   0.4994   0.6013   0.6894   0.7243   0.7653   0.7689   0.8229
     0.8973   0.9250   0.9712   0.9742   1.0385   1.0601   1.1375   1.1886
     1.4043   1.4056   1.6546   1.7313   1.7464   1.7663   1.8536   1.8914
     2.3144   2.3734   2.4974   2.7917   2.8257   2.9812   3.0050   5.9887
     6.0099   6.1703   6.2679   6.3183   6.8685   7.0813   7.2588   7.5851
     7.6228   7.8561   7.8764   8.2287   8.3815   8.4541   8.5365   8.7444
     8.8437   8.8568

          k = 0.2500-0.5125 0.0000 ( 39726 PWs)   bands (ev):

   -38.9738 -38.8968 -23.4284 -23.4156 -23.3610 -23.2707 -19.5735 -19.4947
   -19.2745 -19.2008 -19.1582 -19.0884 -15.5233 -15.4659 -15.2371 -15.2032
   -15.1991 -15.1636 -15.1535 -15.1105 -14.9701 -14.8162 -14.8047 -14.4953
   -14.4770 -14.4039 -13.3672  -9.1509  -9.1395  -8.9821  -8.8517  -8.8394
    -8.8232  -8.7713  -8.7651  -8.7560  -8.6726  -8.6721  -8.6211  -4.4826
    -4.4273  -4.0339  -3.9567  -3.6162  -3.6028  -3.6002  -2.9917  -2.9689
    -2.8752  -2.8624  -2.8227  -2.8113  -2.6881  -2.6783  -2.5809  -2.5349
    -2.4062  -2.1819  -2.1281  -1.7395  -1.7125  -1.6794  -1.5646  -1.5113
    -1.5103  -1.4370  -1.2675  -1.2426  -1.2416  -1.1956  -1.1612  -0.9574
    -0.9307  -0.8106  -0.6666  -0.4098  -0.2202  -0.1852  -0.1383  -0.1082
    -0.0651  -0.0087   0.0689   0.1639   0.3270   0.3769   0.5091   0.5179
     0.5448   0.5855   0.6782   0.7292   0.7567   0.8074   0.8241   0.8723
     0.8740   0.9488   0.9712   1.0211   1.0447   1.2154   1.2363   1.4580
     1.4913   1.6745   1.6937   1.8016   1.9009   1.9100   1.9254   2.0355
     2.1550   2.2287   2.4274   2.8493   2.8846   3.0369   3.0598   5.9464
     5.9630   6.1694   6.2038   6.2667   7.0861   7.2385   7.3597   7.6855
     7.9912   8.2570   8.4586   8.4720   8.4941   8.5860   8.7385   8.8454
     8.8985   8.9264

          k = 0.3750 0.0000 0.0000 ( 39698 PWs)   bands (ev):

   -38.9851 -38.9081 -23.5152 -23.5024 -23.4406 -23.3565 -19.5049 -19.4329
   -19.3259 -19.2559 -18.9775 -18.8970 -15.6899 -15.6598 -15.6307 -15.5592
   -15.4071 -15.3694 -15.2558 -15.0164 -14.9959 -14.9024 -14.8359 -14.5900
   -14.5753 -14.3733 -13.4889  -8.8679  -8.8577  -8.8368  -8.7289  -8.4527
    -8.4411  -8.3815  -8.3694  -8.3105  -8.2146  -8.2051  -8.1559  -3.6657
    -3.6258  -3.5290  -3.4422  -2.8054  -2.8032  -2.5742  -2.5281  -2.5170
    -2.4905  -2.4816  -2.4524  -2.4123  -1.8350  -1.7988  -1.7896  -1.7639
    -1.7605  -1.5963  -1.5782  -1.5539  -1.5126  -1.4244  -1.4176  -1.2704
    -1.2538  -1.1006  -1.0400  -1.0361  -0.9900  -0.9639  -0.8998  -0.7813
    -0.6365  -0.5657  -0.5092  -0.4502  -0.3681  -0.3476  -0.3370  -0.3232
    -0.2227  -0.1169  -0.1123  -0.0967  -0.0808  -0.0577  -0.0388  -0.0195
     0.0106   0.0706   0.0809   0.2628   0.2855   0.3178   0.5259   0.5510
     0.5773   0.6421   0.6430   0.6889   0.7188   0.7414   0.9076   0.9550
     0.9917   0.9965   1.0613   1.0782   1.1008   1.1167   1.3234   1.4114
     1.4296   1.6942   1.7294   1.8474   1.9235   2.1088   2.1958   5.6727
     5.7169   5.7282   6.3712   6.3864   6.6608   7.1895   7.2050   7.2285
     7.2614   7.2869   7.6371   7.6484   7.8799   8.0176   8.0714   8.1546
     8.2137   8.4902

          k = 0.3750 0.1281 0.0000 ( 39650 PWs)   bands (ev):

   -38.9828 -38.9058 -23.4982 -23.4854 -23.4251 -23.3397 -19.4976 -19.4255
   -19.2930 -19.2229 -19.0759 -18.9957 -15.6254 -15.6014 -15.5508 -15.4703
   -15.3545 -15.3264 -15.2071 -14.9873 -14.9698 -14.9651 -14.9012 -14.5737
   -14.5587 -14.3667 -13.4540  -8.8688  -8.8560  -8.8357  -8.7330  -8.6995
    -8.6875  -8.5256  -8.4609  -8.4140  -8.4022  -8.2658  -8.1705  -3.8181
    -3.7645  -3.5808  -3.4982  -2.8460  -2.8324  -2.7727  -2.7354  -2.6415
    -2.6032  -2.4723  -2.3912  -2.3155  -2.1454  -2.1142  -2.0830  -2.0202
    -1.8470  -1.8130  -1.8006  -1.6900  -1.6356  -1.6297  -1.5475  -1.3755
    -1.3225  -1.0688  -0.9755  -0.9163  -0.7991  -0.7830  -0.7436  -0.6831
    -0.6587  -0.6340  -0.6220  -0.5393  -0.4798  -0.4068  -0.4028  -0.3120
    -0.2359  -0.2167  -0.2002  -0.0483  -0.0330   0.0633   0.0771   0.0808
     0.2530   0.2992   0.3620   0.4385   0.4426   0.4880   0.5338   0.5585
     0.6102   0.6202   0.7350   0.7811   0.7932   0.8434   0.9323   0.9564
     0.9619   0.9878   1.0139   1.0376   1.1159   1.1831   1.4022   1.9599
     2.0172   2.0631   2.0862   2.1689   2.1979   2.3901   2.4183   5.8132
     5.8428   5.8510   6.4395   6.4753   6.7610   6.8420   6.9398   7.2832
     7.3035   7.3181   7.7541   7.9575   8.0558   8.0636   8.1151   8.1376
     8.2995   8.5554

          k = 0.3750 0.2563 0.0000 ( 39655 PWs)   bands (ev):

   -38.9773 -38.9003 -23.4566 -23.4438 -23.3873 -23.2985 -19.4801 -19.4079
   -19.2911 -19.2116 -19.2098 -19.1394 -15.5082 -15.4801 -15.3584 -15.2960
   -15.2109 -15.1783 -15.1342 -15.0715 -15.0676 -14.9201 -14.8806 -14.5363
   -14.5203 -14.3605 -13.3668  -9.1089  -9.0970  -8.9308  -8.8487  -8.8253
    -8.8125  -8.8045  -8.6828  -8.6771  -8.6709  -8.5249  -8.4270  -4.2615
    -4.1978  -3.8103  -3.7272  -3.0358  -3.0156  -2.9567  -2.9133  -2.8139
    -2.8074  -2.7091  -2.6677  -2.6424  -2.5943  -2.5811  -2.4570  -2.4298
    -2.4052  -2.1081  -2.0381  -1.6796  -1.6282  -1.5834  -1.5209  -1.4100
    -1.3211  -1.3096  -1.1069  -1.0470  -1.0159  -0.9898  -0.9479  -0.8733
    -0.8515  -0.7491  -0.6625  -0.4652  -0.2777  -0.1525  -0.1148  -0.1025
     0.0418   0.0779   0.1499   0.1643   0.2227   0.2634   0.4331   0.4642
     0.4654   0.5002   0.5762   0.6001   0.6161   0.6430   0.6707   0.7559
     0.8028   0.8377   0.8463   0.8732   1.0046   1.0088   1.1514   1.1632
     1.1806   1.2094   1.2198   1.2259   1.2923   1.3368   1.8073   1.9220
     2.3574   2.4442   2.4794   2.9098   2.9350   3.0551   3.0809   5.8030
     5.8242   5.9537   6.2606   6.3070   6.8041   6.9567   7.1782   7.3855
     7.5367   7.5401   7.6275   8.2358   8.3169   8.3342   8.3807   8.5286
     8.7069   8.7255

          k = 0.3750 0.3844 0.0000 ( 39761 PWs)   bands (ev):

   -38.9718 -38.8948 -23.4142 -23.4014 -23.3488 -23.2564 -19.4857 -19.4598
   -19.4073 -19.3868 -19.1204 -19.0498 -15.4031 -15.3630 -15.2974 -15.2454
   -15.2013 -15.1711 -15.0383 -14.9848 -14.8929 -14.8601 -14.8010 -14.5031
   -14.4856 -14.3786 -13.2755  -9.3753  -9.3635  -9.1886  -9.0692  -9.0116
    -8.9997  -8.8323  -8.8239  -8.8132  -8.7960  -8.7712  -8.6697  -4.7140
    -4.6508  -4.1711  -4.0904  -3.3486  -3.3337  -3.3203  -3.1294  -3.1129
    -3.1035  -3.0630  -3.0475  -2.9978  -2.7028  -2.7003  -2.5964  -2.5492
    -2.4119  -1.9572  -1.9040  -1.7716  -1.7202  -1.5837  -1.5575  -1.5295
    -1.4739  -1.3867  -1.3658  -1.3031  -1.2384  -1.2194  -1.1737  -0.8088
    -0.8028  -0.6862  -0.6835  -0.4111  -0.1412  -0.0014   0.1488   0.1651
     0.1821   0.1983   0.3712   0.5136   0.5667   0.5928   0.6051   0.6184
     0.6602   0.7288   0.7386   0.7947   0.8032   0.8235   0.8806   0.8865
     0.8975   0.9751   1.0299   1.1062   1.1319   1.1355   1.3207   1.4159
     1.4360   1.5912   1.6525   1.6613   1.6679   1.7844   1.7908   2.0316
     2.2993   2.3733   2.5108   3.4507   3.4798   3.5652   3.5829   5.4444
     5.4592   5.6957   5.9498   6.0403   7.0247   7.3092   7.4118   7.5703
     7.8682   8.0390   8.1035   8.1393   8.2087   8.5184   8.6104   8.7408
     8.8115   8.8341

          k = 0.3750-0.5125 0.0000 ( 39806 PWs)   bands (ev):

   -38.9695 -38.8925 -23.3964 -23.3836 -23.3326 -23.2388 -19.5579 -19.4790
   -19.4543 -19.3820 -19.0813 -19.0106 -15.4129 -15.3507 -15.3083 -15.2717
   -15.1381 -15.1284 -14.9569 -14.9142 -14.8761 -14.7774 -14.7615 -14.4916
   -14.4734 -14.4015 -13.2364  -9.4542  -9.4426  -9.2709  -9.1669  -9.1548
    -9.0901  -8.9933  -8.9719  -8.8161  -8.8086  -8.7873  -8.6652  -4.8948
    -4.8324  -4.3362  -4.2563  -3.5869  -3.5757  -3.5715  -3.2441  -3.2018
    -3.1446  -3.1307  -3.0587  -3.0073  -2.6983  -2.6963  -2.6440  -2.5981
    -2.3946  -1.9784  -1.9312  -1.7285  -1.6776  -1.6424  -1.6150  -1.6116
    -1.4856  -1.4584  -1.4364  -1.3645  -1.3200  -1.3025  -1.2576  -0.7733
    -0.7702  -0.6876  -0.6481  -0.3856  -0.1073   0.0154   0.2085   0.2235
     0.2600   0.3081   0.4471   0.6212   0.6247   0.6355   0.6510   0.6932
     0.7983   0.8045   0.8414   0.8422   0.8818   0.9018   0.9487   1.0416
     1.0544   1.0974   1.0981   1.1559   1.1894   1.2140   1.2987   1.6448
     1.6934   1.7122   1.8490   1.8646   1.8947   1.9202   1.9294   1.9795
     2.1290   2.2183   2.4417   3.6124   3.6439   3.7332   3.7491   5.2490
     5.2619   5.5237   5.8470   5.9518   7.1825   7.2156   7.4401   7.6213
     8.1469   8.2363   8.2775   8.3718   8.4357   8.5596   8.6379   8.6533
     8.6862   8.8701

          k =-0.5000 0.0000 0.0000 ( 39626 PWs)   bands (ev):

   -38.9833 -38.9063 -23.4957 -23.4829 -23.4248 -23.3375 -19.5769 -19.5054
   -19.2876 -19.2172 -18.9750 -18.8944 -15.7283 -15.6974 -15.5140 -15.4908
   -15.4499 -15.4324 -15.3021 -15.0253 -15.0188 -14.8911 -14.8239 -14.5842
   -14.5694 -14.3725 -13.5562  -8.8672  -8.8558  -8.8259  -8.7238  -8.4300
    -8.4184  -8.3432  -8.3310  -8.3034  -8.1782  -8.1746  -8.1264  -3.7891
    -3.7502  -3.6442  -3.5584  -2.8320  -2.8300  -2.5371  -2.5228  -2.5179
    -2.4960  -2.4389  -2.2734  -2.2296  -2.0749  -2.0410  -1.8903  -1.7289
    -1.7099  -1.6887  -1.6775  -1.6728  -1.5828  -1.5201  -1.5137  -1.2801
    -1.2645  -1.2479  -1.2292  -1.1191  -1.0189  -0.9812  -0.9780  -0.8388
    -0.6344  -0.5945  -0.4699  -0.4103  -0.3562  -0.3425  -0.3368  -0.3288
    -0.2285  -0.1020  -0.0989  -0.0858  -0.0461  -0.0329  -0.0173  -0.0148
     0.0023   0.0046   0.0912   0.1862   0.4135   0.4421   0.5669   0.5752
     0.5913   0.6077   0.6286   0.6603   0.7248   0.7686   0.8210   1.0315
     1.0395   1.0399   1.0607   1.0955   1.1590   1.2286   1.2314   1.3969
     1.4113   1.6831   1.7095   1.8490   1.9132   2.1223   2.2024   6.4258
     6.4371   6.4459   6.5653   6.5698   6.5841   6.6537   6.7575   7.1716
     7.2068   7.2433   7.5347   7.8099   7.8976   8.3046   8.3950   8.4544
     8.5602   8.5975

          k =-0.5000 0.1281 0.0000 ( 39660 PWs)   bands (ev):

   -38.9810 -38.9040 -23.4795 -23.4667 -23.4098 -23.3214 -19.5692 -19.4976
   -19.2553 -19.1848 -19.0726 -18.9924 -15.6797 -15.6480 -15.4412 -15.3981
   -15.3924 -15.3339 -15.2513 -14.9946 -14.9879 -14.9578 -14.8902 -14.5659
   -14.5509 -14.3620 -13.5071  -8.8631  -8.8505  -8.8246  -8.7213  -8.5651
    -8.5545  -8.5535  -8.5424  -8.4271  -8.3836  -8.3127  -8.3117  -3.9471
    -3.8942  -3.7042  -3.6219  -2.8568  -2.8478  -2.7624  -2.7227  -2.5321
    -2.4161  -2.4027  -2.4002  -2.3793  -2.3564  -2.3118  -2.2402  -2.1703
    -1.8251  -1.8208  -1.8048  -1.7140  -1.6140  -1.5626  -1.5592  -1.4389
    -1.4293  -1.0441  -1.0411  -0.9658  -0.8321  -0.8111  -0.7641  -0.7575
    -0.7296  -0.6855  -0.6363  -0.5895  -0.5769  -0.4038  -0.3922  -0.3084
    -0.2177  -0.1506  -0.1211  -0.0554  -0.0382   0.0985   0.1495   0.1640
     0.2703   0.2893   0.4165   0.4255   0.5243   0.5287   0.5776   0.5800
     0.5951   0.6266   0.7167   0.7446   0.7556   0.7991   0.9781   1.0062
     1.0182   1.0585   1.0666   1.1410   1.1464   1.2096   1.2229   1.9432
     2.0428   2.0717   2.0813   2.1620   2.1902   2.4117   2.4383   6.2797
     6.2972   6.4216   6.6111   6.7217   6.7311   6.7467   6.8508   6.9158
     6.9388   7.3167   7.5295   8.2330   8.2941   8.3332   8.4125   8.5337
     8.5781   8.7156

          k =-0.5000 0.2563 0.0000 ( 39694 PWs)   bands (ev):

   -38.9756 -38.8985 -23.4401 -23.4273 -23.3734 -23.2822 -19.5504 -19.4787
   -19.2866 -19.2071 -19.1737 -19.1029 -15.5573 -15.5233 -15.3141 -15.2876
   -15.1423 -15.1190 -15.1115 -15.0926 -15.0355 -14.9199 -14.9136 -14.5265
   -14.5106 -14.3491 -13.3808  -9.0310  -9.0191  -8.8764  -8.8646  -8.8579
    -8.8314  -8.8284  -8.8152  -8.7126  -8.7119  -8.6834  -8.6434  -4.4037
    -4.3394  -3.9466  -3.8640  -3.0529  -3.0314  -2.9429  -2.9033  -2.8633
    -2.8192  -2.8081  -2.8010  -2.6253  -2.5958  -2.5825  -2.5370  -2.4839
    -2.4481  -2.0792  -2.0093  -1.6615  -1.6109  -1.5423  -1.4407  -1.4329
    -1.4201  -1.3047  -1.1080  -1.0482  -1.0479  -1.0339  -0.9752  -0.8697
    -0.8529  -0.7427  -0.6766  -0.4797  -0.2596  -0.1110  -0.0856  -0.0780
     0.0529   0.1222   0.1792   0.2065   0.3822   0.4231   0.4647   0.5161
     0.5245   0.5553   0.6268   0.6771   0.7016   0.7127   0.7146   0.7200
     0.7481   0.8423   0.8911   0.9447   1.0477   1.1286   1.1549   1.1644
     1.1674   1.1760   1.1823   1.2632   1.3026   1.4946   1.5548   1.8812
     2.3560   2.4408   2.4793   3.0212   3.0449   3.1498   3.1739   5.7660
     5.7821   5.9861   6.1650   6.2585   6.9438   7.1398   7.3562   7.4313
     7.5775   7.6281   7.6457   8.2876   8.3564   8.4403   8.4970   8.5812
     8.7459   8.7861

          k =-0.5000 0.3844 0.0000 ( 39830 PWs)   bands (ev):

   -38.9701 -38.8930 -23.3999 -23.3871 -23.3363 -23.2422 -19.5317 -19.4776
   -19.4598 -19.3986 -19.0861 -19.0151 -15.4285 -15.3924 -15.2922 -15.2277
   -15.1683 -15.1617 -14.9365 -14.9020 -14.8432 -14.8430 -14.8322 -14.4973
   -14.4800 -14.3691 -13.2407  -9.4246  -9.4128  -9.2391  -9.1703  -9.1583
    -9.0874  -8.9819  -8.9752  -8.8270  -8.8209  -8.7999  -8.6842  -4.8751
    -4.8107  -4.3133  -4.2324  -3.3368  -3.3219  -3.3079  -3.2475  -3.2030
    -3.1614  -3.1481  -3.0765  -3.0309  -2.7018  -2.6996  -2.6341  -2.5855
    -2.4120  -1.8714  -1.8362  -1.8148  -1.7902  -1.5548  -1.5368  -1.5196
    -1.5053  -1.4417  -1.3557  -1.3300  -1.2691  -1.2543  -1.2090  -0.7521
    -0.7411  -0.6995  -0.6348  -0.4061  -0.1087   0.0395   0.2728   0.2769
     0.3271   0.3737   0.5092   0.5884   0.5951   0.6305   0.6464   0.7487
     0.7516   0.7721   0.7848   0.8313   0.8775   0.9040   0.9628   0.9813
     1.0144   1.0696   1.0700   1.1115   1.1440   1.2234   1.2942   1.4208
     1.4538   1.6146   1.6297   1.6879   1.7197   1.7344   1.9419   1.9436
     2.2969   2.3715   2.5159   3.6750   3.7028   3.7717   3.7870   5.2068
     5.2205   5.4757   5.8382   5.9441   7.1314   7.2536   7.4343   7.6019
     7.9206   8.0728   8.1724   8.2944   8.4602   8.5190   8.6220   8.6343
     8.7700   8.8059

          k =-0.5000-0.5125 0.0000 ( 39764 PWs)   bands (ev):

   -38.9678 -38.8907 -23.3830 -23.3702 -23.3208 -23.2255 -19.5515 -19.5239
   -19.4726 -19.4520 -19.0478 -18.9766 -15.3739 -15.3643 -15.3374 -15.2993
   -15.0972 -15.0963 -14.8621 -14.8187 -14.8092 -14.7927 -14.7395 -14.4898
   -14.4715 -14.4003 -13.1776  -9.5766  -9.5649  -9.3882  -9.2878  -9.2757
    -9.2259  -9.1144  -9.0891  -8.8245  -8.8242  -8.7935  -8.6810  -5.0643
    -5.0005  -4.4806  -4.4005  -3.5746  -3.5641  -3.5593  -3.3778  -3.3344
    -3.1885  -3.1762  -3.0994  -3.0523  -2.6899  -2.6883  -2.6675  -2.6205
    -2.3850  -1.9163  -1.8722  -1.7968  -1.7474  -1.6553  -1.5756  -1.5629
    -1.5541  -1.4544  -1.4296  -1.4256  -1.3522  -1.3375  -1.2942  -0.7087
    -0.6989  -0.6978  -0.5949  -0.3744  -0.0717   0.0602   0.3357   0.4003
     0.5403   0.5846   0.6328   0.6496   0.6664   0.6803   0.6883   0.6980
     0.7186   0.7962   0.8968   0.9240   0.9717   0.9836   1.0124   1.1690
     1.1917   1.1979   1.2048   1.2110   1.2162   1.3337   1.4188   1.5245
     1.7136   1.7320   1.8217   1.8372   1.9086   1.9404   2.1034   2.1162
     2.1237   2.2129   2.4503   3.8885   3.9175   4.0019   4.0157   4.9586
     4.9711   5.2456   5.7278   5.8436   7.1614   7.1913   7.5277   7.5525
     7.8707   8.0587   8.3120   8.3876   8.4149   8.4199   8.6126   8.6435
     8.6611   8.7993

     the Fermi energy is     2.1176 ev

!    total energy              =   -1868.72154483 Ry
     Harris-Foulkes estimate   =   -1868.72154422 Ry
     estimated scf accuracy    <       0.00000065 Ry

     The total energy is the sum of the following terms:

     one-electron contribution =  -22335.81285739 Ry
     hartree contribution      =   11315.32316937 Ry
     xc contribution           =    -642.19991560 Ry
     ewald contribution        =    9793.97876172 Ry
     smearing contrib. (-TS)   =      -0.01070294 Ry

     convergence has been achieved in  39 iterations

     negative rho (up, down):  9.042E-02 0.000E+00

     Forces acting on atoms (cartesian axes, Ry/au):

     atom    1 type  3   force =     0.00000000    0.00000000   -0.00055131
     atom    2 type  2   force =     0.00000000    0.00000000    0.00097580
     atom    3 type  3   force =     0.00000000    0.00000000    0.00030195
     atom    4 type  1   force =     0.00000000    0.00000000   -0.00019072
     atom    5 type  2   force =     0.00000000    0.00000000   -0.00041354
     atom    6 type  3   force =     0.00000000    0.00000000    0.00129303
     atom    7 type  3   force =     0.00000000    0.00000000    0.00098626
     atom    8 type  4   force =     0.00000000    0.00000000   -0.00282639
     atom    9 type  3   force =     0.00000000    0.00000000    0.00495668
     atom   10 type  3   force =     0.00000000    0.00000000    0.00339418
     atom   11 type  2   force =     0.00000000    0.00000000   -0.00200859
     atom   12 type  1   force =     0.00000000    0.00000000    0.01662531
     atom   13 type  3   force =     0.00000000    0.00000000   -0.01908803
     atom   14 type  3   force =     0.00000000    0.00000000    0.02115041
     atom   15 type  2   force =     0.00000000    0.00000000   -0.02376781
     atom   16 type  3   force =     0.00000000    0.00000000    0.01689382
     atom   17 type  1   force =     0.00000000    0.00000000   -0.00065108
     atom   18 type  2   force =     0.00000000    0.00000000   -0.02182292
     atom   19 type  3   force =     0.00000000    0.00000000    0.00423044
     atom   20 type  3   force =     0.00000000    0.00000000    0.00305334
     atom   21 type  4   force =     0.00000000    0.00000000   -0.00106710
     atom   22 type  3   force =     0.00000000    0.00000000   -0.00055109
     atom   23 type  3   force =     0.00000000    0.00000000    0.00079703
     atom   24 type  2   force =     0.00000000    0.00000000    0.00022724
     atom   25 type  1   force =     0.00000000    0.00000000   -0.00001111
     atom   26 type  3   force =     0.00000000    0.00000000   -0.00195435
     atom   27 type  2   force =     0.00000000    0.00000000   -0.00019819
     atom   28 type  3   force =     0.00000000    0.00000000    0.00021674

     Total force =     0.050006     Total SCF correction =     0.001500


     Computing stress (Cartesian axis) and pressure


     negative rho (up, down):  9.042E-02 0.000E+00
          total   stress  (Ry/bohr**3)                   (kbar)     P=       -7.12
  -0.00000740   0.00000000   0.00000000           -1.09        0.00        0.00
   0.00000000  -0.00010817   0.00000000            0.00      -15.91        0.00
   0.00000000   0.00000000  -0.00002953            0.00        0.00       -4.34

 
     init_run     :      9.70s CPU     10.31s WALL (       1 calls)
     electrons    :    717.14s CPU    765.73s WALL (       1 calls)
     forces       :      4.16s CPU      4.57s WALL (       1 calls)
     stress       :     22.18s CPU     23.15s WALL (       1 calls)

     Called by init_run:
     wfcinit      :      6.86s CPU      7.02s WALL (       1 calls)
     potinit      :      0.71s CPU      0.73s WALL (       1 calls)
     hinit0       :      1.03s CPU      1.05s WALL (       1 calls)

     Called by electrons:
     c_bands      :    565.51s CPU    585.12s WALL (      39 calls)
     sum_band     :    100.06s CPU    116.19s WALL (      39 calls)
     v_of_rho     :      3.65s CPU      3.71s WALL (      40 calls)
     newd         :     25.04s CPU     37.97s WALL (      40 calls)
     mix_rho      :     23.28s CPU     23.49s WALL (      39 calls)

     Called by c_bands:
     init_us_2    :      4.54s CPU      4.62s WALL (    2025 calls)
     cegterg      :    533.84s CPU    552.81s WALL (     975 calls)

     Called by sum_band:
     sum_band:bec :      0.27s CPU      0.27s WALL (     975 calls)
     addusdens    :     24.19s CPU     39.35s WALL (      39 calls)

     Called by *egterg:
     h_psi        :    254.65s CPU    263.99s WALL (    4620 calls)
     s_psi        :     27.67s CPU     28.06s WALL (    4620 calls)
     g_psi        :      0.81s CPU      0.82s WALL (    3620 calls)
     cdiaghg      :    138.28s CPU    138.91s WALL (    4595 calls)

     Called by h_psi:
     h_psi:calbec :     32.77s CPU     33.40s WALL (    4620 calls)
     vloc_psi     :    191.71s CPU    195.25s WALL (    4620 calls)
     add_vuspsi   :     28.66s CPU     30.83s WALL (    4620 calls)

     General routines
     calbec       :     50.57s CPU     51.28s WALL (    5720 calls)
     fft          :      3.06s CPU      3.08s WALL (     543 calls)
     ffts         :     11.45s CPU     11.56s WALL (   18487 calls)
     fftw         :    217.81s CPU    221.62s WALL (  699570 calls)
     interpolate  :      0.20s CPU      0.21s WALL (      40 calls)
 
     Parallel routines
     fft_scatt_xy :     28.17s CPU     28.68s WALL (  718600 calls)
     fft_scatt_yz :    132.74s CPU    135.04s WALL (  718600 calls)
 
     PWSCF        :  12m33.93s CPU  13m24.58s WALL

 
   This run was terminated on:  18:41:15   5May2021            

=------------------------------------------------------------------------------=
   JOB DONE.
=------------------------------------------------------------------------------=
[1620254475.961595] [holy7c04510:53781:0]          mpool.c:43   UCX  WARN  object 0x38e3f00 was not returned to mpool ucp_requests
[1620254475.960642] [holy7c04309:103485:0]          mpool.c:43   UCX  WARN  object 0x41d9f80 was not returned to mpool ucp_requests
[1620254475.961709] [holy7c04405:255222:0]          mpool.c:43   UCX  WARN  object 0x40c96c0 was not returned to mpool ucp_requests
[1620254475.961725] [holy7c04405:255222:0]          mpool.c:43   UCX  WARN  object 0x40c9a40 was not returned to mpool ucp_requests
[1620254475.960588] [holy7c04505:265195:0]          mpool.c:43   UCX  WARN  object 0x3217640 was not returned to mpool ucp_requests
[1620254475.960607] [holy7c04505:265195:0]          mpool.c:43   UCX  WARN  object 0x3217b80 was not returned to mpool ucp_requests
[1620254475.968769] [holy7c04507:37878:0]          mpool.c:43   UCX  WARN  object 0x478f980 was not returned to mpool ucp_requests
[1620254475.965303] [holy7c04407:133822:0]          mpool.c:43   UCX  WARN  object 0x3f9e780 was not returned to mpool ucp_requests
[1620254475.962163] [holy7c04309:103484:0]          mpool.c:43   UCX  WARN  object 0x459d380 was not returned to mpool ucp_requests
[1620254475.962178] [holy7c04309:103484:0]          mpool.c:43   UCX  WARN  object 0x459d8c0 was not returned to mpool ucp_requests
