
     Program PWSCF v.6.5 starts on 25May2021 at 16:37:41 

     This program is part of the open-source Quantum ESPRESSO suite
     for quantum simulation of materials; please cite
         "P. Giannozzi et al., J. Phys.:Condens. Matter 21 395502 (2009);
         "P. Giannozzi et al., J. Phys.:Condens. Matter 29 465901 (2017);
          URL http://www.quantum-espresso.org", 
     in publications or presentations arising from this work. More details at
     http://www.quantum-espresso.org/quote

     Parallel version (MPI), running on    32 processors

     MPI processes distributed on     8 nodes
     R & G space division:  proc/nbgrp/npool/nimage =      32
     Reading input from YCBCO50_212_BaO_cleave_2.75_sep.pwi
Warning: card &IONS ignored
Warning: card     ION_DYNAMICS = 'BFGS' ignored
Warning: card / ignored
Warning: card &CELL ignored
Warning: card     CELL_DYNAMICS = 'BFGS' ignored
Warning: card     PRESS_CONV_THR = 5 ignored
Warning: card / ignored

     Current dimensions of program PWSCF are:
     Max number of different atomic species (ntypx) = 10
     Max number of k-points (npk) =  40000
     Max angular momentum in pseudopotentials (lmaxx) =  3

     Subspace diagonalization in iterative solution of the eigenvalue problem:
     one sub-group per band group will be used
     scalapack distributed-memory algorithm (size of sub-group:  5*  5 procs)

     Message from routine setup:
     using ibrav=0 with symmetry is DISCOURAGED, use correct ibrav instead
 
     Parallelization info
     --------------------
     sticks:   dense  smooth     PW     G-vecs:    dense   smooth      PW
     Min         188      62     17                94408    18160    2709
     Max         189      63     18                94440    18207    2752
     Sum        6019    2003    565              3021637   581865   87551
 


     bravais-lattice index     =            0
     lattice parameter (alat)  =      14.8133  a.u.
     unit-cell volume          =    9261.7184 (a.u.)^3
     number of atoms/cell      =           56
     number of atomic types    =            5
     number of electrons       =       456.00
     number of Kohn-Sham states=          274
     kinetic-energy cutoff     =      60.0000  Ry
     charge density cutoff     =     720.0000  Ry
     convergence threshold     =      1.0E-08
     mixing beta               =       0.5000
     number of iterations used =           10  local-TF  mixing
     Exchange-correlation= SLA PW PBE PBE
                           (   1   4   3   4   0   0   0)

     celldm(1)=  14.813271  celldm(2)=   0.000000  celldm(3)=   0.000000
     celldm(4)=   0.000000  celldm(5)=   0.000000  celldm(6)=   0.000000

     crystal axes: (cart. coord. in units of alat)
               a(1) = (   1.000000   0.000000   0.000000 )  
               a(2) = (   0.000000   0.477453   0.000000 )  
               a(3) = (   0.000000   0.000000   5.967718 )  

     reciprocal axes: (cart. coord. in units 2 pi/alat)
               b(1) = (  1.000000  0.000000  0.000000 )  
               b(2) = (  0.000000  2.094448  0.000000 )  
               b(3) = (  0.000000  0.000000  0.167568 )  


     PseudoPot. # 1 for Ba read from file:
     ./pseudo/Ba.pbe-nsp-van.UPF
     MD5 check sum: 2b9c31dd849566dd297d80989662b7a0
     Pseudo is Ultrasoft + core correction, Zval = 10.0
     Generated by new atomic code, or converted to UPF format
     Using radial grid of  907 points,  6 beta functions with: 
                l(1) =   0
                l(2) =   0
                l(3) =   1
                l(4) =   1
                l(5) =   2
                l(6) =   2
     Q(r) pseudized with  6 coefficients,  rinner =    1.200   1.200   1.200
                                                       1.200   1.200

     PseudoPot. # 2 for Ca read from file:
     ./pseudo/Ca.pbe-nsp-van.UPF
     MD5 check sum: 6471098428ff4fa451746d08035ff179
     Pseudo is Ultrasoft + core correction, Zval = 10.0
     Generated by new atomic code, or converted to UPF format
     Using radial grid of  845 points,  6 beta functions with: 
                l(1) =   0
                l(2) =   0
                l(3) =   1
                l(4) =   1
                l(5) =   2
                l(6) =   2
     Q(r) pseudized with  6 coefficients,  rinner =    1.200   1.200   1.200
                                                       1.200   1.200

     PseudoPot. # 3 for Cu read from file:
     ./pseudo/Cu.pbe-n-van_ak.UPF
     MD5 check sum: 34e3282627ffb533726feb647e090d62
     Pseudo is Ultrasoft + core correction, Zval = 11.0
     Generated by new atomic code, or converted to UPF format
     Using radial grid of  867 points,  6 beta functions with: 
                l(1) =   0
                l(2) =   0
                l(3) =   1
                l(4) =   1
                l(5) =   2
                l(6) =   2
     Q(r) pseudized with  8 coefficients,  rinner =    1.400   1.400   1.400
                                                       1.400   1.400

     PseudoPot. # 4 for O  read from file:
     ./pseudo/O.pbe-van_ak.UPF
     MD5 check sum: 783ce7fe4c79b6a4916957118fed0856
     Pseudo is Ultrasoft, Zval =  6.0
     Generated by new atomic code, or converted to UPF format
     Using radial grid of  737 points,  4 beta functions with: 
                l(1) =   0
                l(2) =   0
                l(3) =   1
                l(4) =   1
     Q(r) pseudized with  8 coefficients,  rinner =    0.800   0.800   0.800


     PseudoPot. # 5 for Y  read from file:
     ./pseudo/Y.pbe-nsp-van.UPF
     MD5 check sum: 4412fed3ab108fed87a1b7d6a69a4a38
     Pseudo is Ultrasoft + core correction, Zval = 11.0
     Generated by new atomic code, or converted to UPF format
     Using radial grid of  885 points,  6 beta functions with: 
                l(1) =   0
                l(2) =   0
                l(3) =   1
                l(4) =   1
                l(5) =   2
                l(6) =   2
     Q(r) pseudized with  6 coefficients,  rinner =    1.200   1.200   1.200
                                                       1.200   1.200

     atomic species   valence    mass     pseudopotential
        Ba            10.00   137.32700     Ba( 1.00)
        Ca            10.00    40.07800     Ca( 1.00)
        Cu            11.00    63.54600     Cu( 1.00)
        O              6.00    15.99900     O ( 1.00)
        Y             11.00    88.90584     Y ( 1.00)

      4 Sym. Ops. (no inversion) found ( 2 have fractional translation)



   Cartesian axes

     site n.     atom                  positions (alat units)
         1           O   tau(   1) = (  -0.0008343   0.2387265  -0.0222443  )
         2           O   tau(   2) = (   0.5008340   0.2387265  -0.0222443  )
         3           Cu  tau(   3) = (   0.5017257   0.0000000   0.0109608  )
         4           Cu  tau(   4) = (  -0.0017260   0.0000000   0.0109608  )
         5           O   tau(   5) = (  -0.0028933   0.0000000   0.2506504  )
         6           O   tau(   6) = (   0.5028929   0.0000000   0.2506504  )
         7           Ba  tau(   7) = (   0.7499995   0.2387265   0.2749435  )
         8           Ba  tau(   8) = (   0.2499998   0.2387265   0.2755214  )
         9           Cu  tau(   9) = (   0.4980963   0.0000000   0.5208446  )
        10           Cu  tau(  10) = (   0.0019033   0.0000000   0.5208446  )
        11           O   tau(  11) = (   0.2499998   0.0000000   0.5341884  )
        12           O   tau(  12) = (   0.5083351   0.2387265   0.5569851  )
        13           O   tau(  13) = (  -0.0083354   0.2387265   0.5569851  )
        14           O   tau(  14) = (   0.7499995   0.0000000   0.5573831  )
        15           Ca  tau(  15) = (   0.2499998   0.2387265   0.7436937  )
        16           Y   tau(  16) = (   0.7499995   0.2387265   0.7469544  )
        17           O   tau(  17) = (  -0.0063798   0.2387265   0.9248530  )
        18           O   tau(  18) = (   0.5063794   0.2387265   0.9248530  )
        19           O   tau(  19) = (   0.7499995   0.0000000   0.9338544  )
        20           O   tau(  20) = (   0.2499998   0.0000000   0.9461329  )
        21           Cu  tau(  21) = (   0.0015717   0.0000000   0.9686860  )
        22           Cu  tau(  22) = (   0.4984280   0.0000000   0.9686860  )
        23           Ba  tau(  23) = (   0.2499998   0.2387265   1.2085224  )
        24           Ba  tau(  24) = (   0.7499995   0.2387265   1.2233294  )
        25           O   tau(  25) = (   0.0063772   0.0000000   1.2547537  )
        26           O   tau(  26) = (   0.4936224   0.0000000   1.2547537  )
        27           O   tau(  27) = (   0.5384045   0.2387265   1.4952521  )
        28           O   tau(  28) = (  -0.0384049   0.2387265   1.4952521  )
        29           Cu  tau(  29) = (   0.5006120   0.0000000   1.4952546  )
        30           Cu  tau(  30) = (  -0.0006123   0.0000000   1.4952546  )
        31           O   tau(  31) = (   0.4936212   0.0000000   1.7357531  )
        32           O   tau(  32) = (   0.0063785   0.0000000   1.7357531  )
        33           Ba  tau(  33) = (   0.7499995   0.2387265   1.7671824  )
        34           Ba  tau(  34) = (   0.2499998   0.2387265   1.7819920  )
        35           Cu  tau(  35) = (   0.4984280   0.0000000   2.3726402  )
        36           Cu  tau(  36) = (   0.0015717   0.0000000   2.3726402  )
        37           O   tau(  37) = (   0.2499998   0.0000000   2.3951984  )
        38           O   tau(  38) = (   0.7499995   0.0000000   2.4074680  )
        39           O   tau(  39) = (   0.5063781   0.2387265   2.4164732  )
        40           O   tau(  40) = (  -0.0063785   0.2387265   2.4164732  )
        41           Y   tau(  41) = (   0.7499995   0.2387265   2.5943667  )
        42           Ca  tau(  42) = (   0.2499998   0.2387265   2.5976364  )
        43           O   tau(  43) = (   0.7499995   0.0000000   2.7839342  )
        44           O   tau(  44) = (  -0.0083354   0.2387265   2.7843360  )
        45           O   tau(  45) = (   0.5083351   0.2387265   2.7843360  )
        46           O   tau(  46) = (   0.2499998   0.0000000   2.8071340  )
        47           Cu  tau(  47) = (   0.0019059   0.0000000   2.8204676  )
        48           Cu  tau(  48) = (   0.4980938   0.0000000   2.8204676  )
        49           Ba  tau(  49) = (   0.2499998   0.2387265   3.0658073  )
        50           Ba  tau(  50) = (   0.7499995   0.2387265   3.0663495  )
        51           O   tau(  51) = (  -0.0028895   0.0000000   3.0906567  )
        52           O   tau(  52) = (   0.5028891   0.0000000   3.0906567  )
        53           Cu  tau(  53) = (   0.5017844   0.0000000   3.3303412  )
        54           Cu  tau(  54) = (  -0.0017847   0.0000000   3.3303412  )
        55           O   tau(  55) = (   0.5008990   0.2387265   3.3635476  )
        56           O   tau(  56) = (  -0.0008994   0.2387265   3.3635476  )

     number of k points=    25  Gaussian smearing, width (Ry)=  0.0100
                       cart. coord. in units 2pi/alat
        k(    1) = (   0.0000000   0.0000000   0.0000000), wk =   0.0312500
        k(    2) = (   0.0000000   0.2618060   0.0000000), wk =   0.0625000
        k(    3) = (   0.0000000   0.5236121   0.0000000), wk =   0.0625000
        k(    4) = (   0.0000000   0.7854181   0.0000000), wk =   0.0625000
        k(    5) = (   0.0000000  -1.0472241   0.0000000), wk =   0.0312500
        k(    6) = (   0.1250000   0.0000000   0.0000000), wk =   0.0625000
        k(    7) = (   0.1250000   0.2618060   0.0000000), wk =   0.1250000
        k(    8) = (   0.1250000   0.5236121   0.0000000), wk =   0.1250000
        k(    9) = (   0.1250000   0.7854181   0.0000000), wk =   0.1250000
        k(   10) = (   0.1250000  -1.0472241   0.0000000), wk =   0.0625000
        k(   11) = (   0.2500000   0.0000000   0.0000000), wk =   0.0625000
        k(   12) = (   0.2500000   0.2618060   0.0000000), wk =   0.1250000
        k(   13) = (   0.2500000   0.5236121   0.0000000), wk =   0.1250000
        k(   14) = (   0.2500000   0.7854181   0.0000000), wk =   0.1250000
        k(   15) = (   0.2500000  -1.0472241   0.0000000), wk =   0.0625000
        k(   16) = (   0.3750000   0.0000000   0.0000000), wk =   0.0625000
        k(   17) = (   0.3750000   0.2618060   0.0000000), wk =   0.1250000
        k(   18) = (   0.3750000   0.5236121   0.0000000), wk =   0.1250000
        k(   19) = (   0.3750000   0.7854181   0.0000000), wk =   0.1250000
        k(   20) = (   0.3750000  -1.0472241   0.0000000), wk =   0.0625000
        k(   21) = (  -0.5000000   0.0000000   0.0000000), wk =   0.0312500
        k(   22) = (  -0.5000000   0.2618060   0.0000000), wk =   0.0625000
        k(   23) = (  -0.5000000   0.5236121   0.0000000), wk =   0.0625000
        k(   24) = (  -0.5000000   0.7854181   0.0000000), wk =   0.0625000
        k(   25) = (  -0.5000000  -1.0472241   0.0000000), wk =   0.0312500

     Dense  grid:  3021637 G-vectors     FFT dimensions: ( 128,  64, 768)

     Smooth grid:   581865 G-vectors     FFT dimensions: (  80,  36, 450)

     Estimated max dynamical RAM per process >     874.36 MB

     Estimated total dynamical RAM >      27.32 GB

     Initial potential from superposition of free atoms

     starting charge  455.69457, renormalised to  456.00000

     negative rho (up, down):  9.319E-02 0.000E+00
     Starting wfcs are  396 randomized atomic wfcs

     total cpu time spent up to now is       28.5 secs

     Self-consistent Calculation

     iteration #  1     ecut=    60.00 Ry     beta= 0.50
     Davidson diagonalization with overlap
     ethr =  1.00E-02,  avg # of iterations =  2.0

     negative rho (up, down):  8.623E-02 0.000E+00

     total cpu time spent up to now is       77.5 secs

     total energy              =   -3708.27477178 Ry
     Harris-Foulkes estimate   =   -3716.59432209 Ry
     estimated scf accuracy    <      33.71951215 Ry

     iteration #  2     ecut=    60.00 Ry     beta= 0.50
     Davidson diagonalization with overlap
     ethr =  7.39E-03,  avg # of iterations =  2.0

     negative rho (up, down):  8.603E-02 0.000E+00

     total cpu time spent up to now is      125.6 secs

     total energy              =   -3711.06547983 Ry
     Harris-Foulkes estimate   =   -3712.47081066 Ry
     estimated scf accuracy    <       8.60872402 Ry

     iteration #  3     ecut=    60.00 Ry     beta= 0.50
     Davidson diagonalization with overlap
     ethr =  1.89E-03,  avg # of iterations =  1.6

     negative rho (up, down):  8.647E-02 0.000E+00

     total cpu time spent up to now is      172.4 secs

     total energy              =   -3711.68945258 Ry
     Harris-Foulkes estimate   =   -3712.00566156 Ry
     estimated scf accuracy    <       8.31672197 Ry

     iteration #  4     ecut=    60.00 Ry     beta= 0.50
     Davidson diagonalization with overlap
     ethr =  1.82E-03,  avg # of iterations =  1.0

     negative rho (up, down):  8.705E-02 0.000E+00

     total cpu time spent up to now is      216.8 secs

     total energy              =   -3711.74654926 Ry
     Harris-Foulkes estimate   =   -3711.83742207 Ry
     estimated scf accuracy    <       4.17866784 Ry

     iteration #  5     ecut=    60.00 Ry     beta= 0.50
     Davidson diagonalization with overlap
     ethr =  9.16E-04,  avg # of iterations =  1.0

     negative rho (up, down):  8.854E-02 0.000E+00

     total cpu time spent up to now is      261.4 secs

     total energy              =   -3711.63212685 Ry
     Harris-Foulkes estimate   =   -3711.81293352 Ry
     estimated scf accuracy    <       3.97596082 Ry

     iteration #  6     ecut=    60.00 Ry     beta= 0.50
     Davidson diagonalization with overlap
     ethr =  8.72E-04,  avg # of iterations =  1.0

     negative rho (up, down):  8.953E-02 0.000E+00

     total cpu time spent up to now is      305.9 secs

     total energy              =   -3711.64351594 Ry
     Harris-Foulkes estimate   =   -3711.69521797 Ry
     estimated scf accuracy    <       1.43643740 Ry

     iteration #  7     ecut=    60.00 Ry     beta= 0.50
     Davidson diagonalization with overlap
     ethr =  3.15E-04,  avg # of iterations =  7.2

     negative rho (up, down):  9.026E-02 0.000E+00

     total cpu time spent up to now is      368.8 secs

     total energy              =   -3711.64205672 Ry
     Harris-Foulkes estimate   =   -3711.66695597 Ry
     estimated scf accuracy    <       0.64675739 Ry

     iteration #  8     ecut=    60.00 Ry     beta= 0.50
     Davidson diagonalization with overlap
     ethr =  1.42E-04,  avg # of iterations =  6.1

     negative rho (up, down):  9.079E-02 0.000E+00

     total cpu time spent up to now is      427.6 secs

     total energy              =   -3711.63853904 Ry
     Harris-Foulkes estimate   =   -3711.65408059 Ry
     estimated scf accuracy    <       0.63536075 Ry

     iteration #  9     ecut=    60.00 Ry     beta= 0.50
     Davidson diagonalization with overlap
     ethr =  1.39E-04,  avg # of iterations =  2.6

     negative rho (up, down):  9.081E-02 0.000E+00

     total cpu time spent up to now is      475.9 secs

     total energy              =   -3711.62385212 Ry
     Harris-Foulkes estimate   =   -3711.64464579 Ry
     estimated scf accuracy    <       0.38773583 Ry

     iteration # 10     ecut=    60.00 Ry     beta= 0.50
     Davidson diagonalization with overlap
     c_bands:  1 eigenvalues not converged
     ethr =  8.50E-05,  avg # of iterations =  8.3

     negative rho (up, down):  9.052E-02 0.000E+00

     total cpu time spent up to now is      541.0 secs

     total energy              =   -3711.62071285 Ry
     Harris-Foulkes estimate   =   -3711.62988318 Ry
     estimated scf accuracy    <       0.16749605 Ry

     iteration # 11     ecut=    60.00 Ry     beta= 0.50
     Davidson diagonalization with overlap
     c_bands:  1 eigenvalues not converged
     c_bands:  4 eigenvalues not converged
     c_bands:  1 eigenvalues not converged
     ethr =  3.67E-05,  avg # of iterations =  9.2

     negative rho (up, down):  8.998E-02 0.000E+00

     total cpu time spent up to now is      609.1 secs

     total energy              =   -3711.61760047 Ry
     Harris-Foulkes estimate   =   -3711.62335262 Ry
     estimated scf accuracy    <       0.04836706 Ry

     iteration # 12     ecut=    60.00 Ry     beta= 0.50
     Davidson diagonalization with overlap
     c_bands:  1 eigenvalues not converged
     ethr =  1.06E-05,  avg # of iterations = 10.5

     negative rho (up, down):  8.965E-02 0.000E+00

     total cpu time spent up to now is      684.9 secs

     total energy              =   -3711.61773760 Ry
     Harris-Foulkes estimate   =   -3711.61943227 Ry
     estimated scf accuracy    <       0.03850944 Ry

     iteration # 13     ecut=    60.00 Ry     beta= 0.50
     Davidson diagonalization with overlap
     ethr =  8.45E-06,  avg # of iterations =  1.2

     negative rho (up, down):  8.939E-02 0.000E+00

     total cpu time spent up to now is      729.4 secs

     total energy              =   -3711.61618023 Ry
     Harris-Foulkes estimate   =   -3711.61811694 Ry
     estimated scf accuracy    <       0.04303816 Ry

     iteration # 14     ecut=    60.00 Ry     beta= 0.50
     Davidson diagonalization with overlap
     ethr =  8.45E-06,  avg # of iterations =  3.4

     negative rho (up, down):  9.000E-02 0.000E+00

     total cpu time spent up to now is      779.8 secs

     total energy              =   -3711.61494125 Ry
     Harris-Foulkes estimate   =   -3711.61649370 Ry
     estimated scf accuracy    <       0.04256730 Ry

     iteration # 15     ecut=    60.00 Ry     beta= 0.50
     Davidson diagonalization with overlap
     ethr =  8.45E-06,  avg # of iterations =  3.6

     negative rho (up, down):  8.960E-02 0.000E+00

     total cpu time spent up to now is      830.8 secs

     total energy              =   -3711.61444790 Ry
     Harris-Foulkes estimate   =   -3711.61516602 Ry
     estimated scf accuracy    <       0.05064513 Ry

     iteration # 16     ecut=    60.00 Ry     beta= 0.50
     Davidson diagonalization with overlap
     ethr =  8.45E-06,  avg # of iterations =  4.2

     negative rho (up, down):  9.022E-02 0.000E+00

     total cpu time spent up to now is      883.7 secs

     total energy              =   -3711.61279858 Ry
     Harris-Foulkes estimate   =   -3711.61468200 Ry
     estimated scf accuracy    <       0.03117752 Ry

     iteration # 17     ecut=    60.00 Ry     beta= 0.50
     Davidson diagonalization with overlap
     c_bands:  2 eigenvalues not converged
     ethr =  6.84E-06,  avg # of iterations =  5.9

     negative rho (up, down):  9.098E-02 0.000E+00

     total cpu time spent up to now is      941.0 secs

     total energy              =   -3711.61163719 Ry
     Harris-Foulkes estimate   =   -3711.61298388 Ry
     estimated scf accuracy    <       0.03869001 Ry

     iteration # 18     ecut=    60.00 Ry     beta= 0.50
     Davidson diagonalization with overlap
     ethr =  6.84E-06,  avg # of iterations =  7.6

     negative rho (up, down):  9.166E-02 0.000E+00

     total cpu time spent up to now is     1003.9 secs

     total energy              =   -3711.61105004 Ry
     Harris-Foulkes estimate   =   -3711.61179098 Ry
     estimated scf accuracy    <       0.02954787 Ry

     iteration # 19     ecut=    60.00 Ry     beta= 0.50
     Davidson diagonalization with overlap
     c_bands:  1 eigenvalues not converged
     ethr =  6.48E-06,  avg # of iterations =  6.3

     negative rho (up, down):  9.058E-02 0.000E+00

     total cpu time spent up to now is     1062.2 secs

     total energy              =   -3711.60994762 Ry
     Harris-Foulkes estimate   =   -3711.61112021 Ry
     estimated scf accuracy    <       0.01899572 Ry

     iteration # 20     ecut=    60.00 Ry     beta= 0.50
     Davidson diagonalization with overlap
     c_bands:  1 eigenvalues not converged
     ethr =  4.17E-06,  avg # of iterations =  9.5

     negative rho (up, down):  8.986E-02 0.000E+00

     total cpu time spent up to now is     1132.4 secs

     total energy              =   -3711.60949157 Ry
     Harris-Foulkes estimate   =   -3711.61009658 Ry
     estimated scf accuracy    <       0.00523313 Ry

     iteration # 21     ecut=    60.00 Ry     beta= 0.50
     Davidson diagonalization with overlap
     ethr =  1.15E-06,  avg # of iterations =  6.4

     negative rho (up, down):  9.024E-02 0.000E+00

     total cpu time spent up to now is     1192.6 secs

     total energy              =   -3711.60945900 Ry
     Harris-Foulkes estimate   =   -3711.60960126 Ry
     estimated scf accuracy    <       0.00301206 Ry

     iteration # 22     ecut=    60.00 Ry     beta= 0.50
     Davidson diagonalization with overlap
     ethr =  6.61E-07,  avg # of iterations =  4.6

     negative rho (up, down):  9.273E-02 0.000E+00

     total cpu time spent up to now is     1247.0 secs

     total energy              =   -3711.60954814 Ry
     Harris-Foulkes estimate   =   -3711.60954580 Ry
     estimated scf accuracy    <       0.00285625 Ry

     iteration # 23     ecut=    60.00 Ry     beta= 0.50
     Davidson diagonalization with overlap
     ethr =  6.26E-07,  avg # of iterations =  3.2

     negative rho (up, down):  9.113E-02 0.000E+00

     total cpu time spent up to now is     1297.1 secs

     total energy              =   -3711.60955217 Ry
     Harris-Foulkes estimate   =   -3711.60957755 Ry
     estimated scf accuracy    <       0.00108367 Ry

     iteration # 24     ecut=    60.00 Ry     beta= 0.50
     Davidson diagonalization with overlap
     ethr =  2.38E-07,  avg # of iterations =  3.0

     negative rho (up, down):  9.137E-02 0.000E+00

     total cpu time spent up to now is     1347.0 secs

     total energy              =   -3711.60953566 Ry
     Harris-Foulkes estimate   =   -3711.60956835 Ry
     estimated scf accuracy    <       0.00068234 Ry

     iteration # 25     ecut=    60.00 Ry     beta= 0.50
     Davidson diagonalization with overlap
     ethr =  1.50E-07,  avg # of iterations =  1.0

     negative rho (up, down):  9.198E-02 0.000E+00

     total cpu time spent up to now is     1391.0 secs

     total energy              =   -3711.60954535 Ry
     Harris-Foulkes estimate   =   -3711.60955078 Ry
     estimated scf accuracy    <       0.00029555 Ry

     iteration # 26     ecut=    60.00 Ry     beta= 0.50
     Davidson diagonalization with overlap
     ethr =  6.48E-08,  avg # of iterations =  1.0

     negative rho (up, down):  9.192E-02 0.000E+00

     total cpu time spent up to now is     1435.5 secs

     total energy              =   -3711.60954466 Ry
     Harris-Foulkes estimate   =   -3711.60954833 Ry
     estimated scf accuracy    <       0.00011812 Ry

     iteration # 27     ecut=    60.00 Ry     beta= 0.50
     Davidson diagonalization with overlap
     ethr =  2.59E-08,  avg # of iterations =  1.0

     negative rho (up, down):  9.236E-02 0.000E+00

     total cpu time spent up to now is     1479.8 secs

     total energy              =   -3711.60954635 Ry
     Harris-Foulkes estimate   =   -3711.60954704 Ry
     estimated scf accuracy    <       0.00002002 Ry

     iteration # 28     ecut=    60.00 Ry     beta= 0.50
     Davidson diagonalization with overlap
     ethr =  4.39E-09,  avg # of iterations =  2.2

     negative rho (up, down):  9.219E-02 0.000E+00

     total cpu time spent up to now is     1527.9 secs

     total energy              =   -3711.60954592 Ry
     Harris-Foulkes estimate   =   -3711.60954702 Ry
     estimated scf accuracy    <       0.00000606 Ry

     iteration # 29     ecut=    60.00 Ry     beta= 0.50
     Davidson diagonalization with overlap
     ethr =  1.33E-09,  avg # of iterations =  2.6

     negative rho (up, down):  9.209E-02 0.000E+00

     total cpu time spent up to now is     1576.6 secs

     total energy              =   -3711.60954605 Ry
     Harris-Foulkes estimate   =   -3711.60954630 Ry
     estimated scf accuracy    <       0.00000380 Ry

     iteration # 30     ecut=    60.00 Ry     beta= 0.50
     Davidson diagonalization with overlap
     ethr =  8.33E-10,  avg # of iterations =  1.4

     negative rho (up, down):  9.208E-02 0.000E+00

     total cpu time spent up to now is     1622.0 secs

     total energy              =   -3711.60954603 Ry
     Harris-Foulkes estimate   =   -3711.60954622 Ry
     estimated scf accuracy    <       0.00000148 Ry

     iteration # 31     ecut=    60.00 Ry     beta= 0.50
     Davidson diagonalization with overlap
     ethr =  3.24E-10,  avg # of iterations =  2.4

     negative rho (up, down):  9.204E-02 0.000E+00

     total cpu time spent up to now is     1670.0 secs

     total energy              =   -3711.60954614 Ry
     Harris-Foulkes estimate   =   -3711.60954614 Ry
     estimated scf accuracy    <       0.00000052 Ry

     iteration # 32     ecut=    60.00 Ry     beta= 0.50
     Davidson diagonalization with overlap
     ethr =  1.14E-10,  avg # of iterations =  2.6

     negative rho (up, down):  9.204E-02 0.000E+00

     total cpu time spent up to now is     1718.3 secs

     total energy              =   -3711.60954615 Ry
     Harris-Foulkes estimate   =   -3711.60954617 Ry
     estimated scf accuracy    <       0.00000031 Ry

     iteration # 33     ecut=    60.00 Ry     beta= 0.50
     Davidson diagonalization with overlap
     ethr =  6.88E-11,  avg # of iterations =  1.1

     negative rho (up, down):  9.201E-02 0.000E+00

     total cpu time spent up to now is     1763.0 secs

     total energy              =   -3711.60954620 Ry
     Harris-Foulkes estimate   =   -3711.60954616 Ry
     estimated scf accuracy    <       0.00000016 Ry

     iteration # 34     ecut=    60.00 Ry     beta= 0.50
     Davidson diagonalization with overlap
     ethr =  3.58E-11,  avg # of iterations =  1.7

     negative rho (up, down):  9.199E-02 0.000E+00

     total cpu time spent up to now is     1808.5 secs

     total energy              =   -3711.60954622 Ry
     Harris-Foulkes estimate   =   -3711.60954620 Ry
     estimated scf accuracy    <       0.00000002 Ry

     iteration # 35     ecut=    60.00 Ry     beta= 0.50
     Davidson diagonalization with overlap
     ethr =  4.93E-12,  avg # of iterations =  3.4

     negative rho (up, down):  9.198E-02 0.000E+00

     total cpu time spent up to now is     1868.5 secs

     total energy              =   -3711.60954623 Ry
     Harris-Foulkes estimate   =   -3711.60954623 Ry
     estimated scf accuracy    <       0.00000001 Ry

     iteration # 36     ecut=    60.00 Ry     beta= 0.50
     Davidson diagonalization with overlap
     ethr =  2.29E-12,  avg # of iterations =  1.9

     negative rho (up, down):  9.199E-02 0.000E+00

     total cpu time spent up to now is     1914.5 secs

     End of self-consistent calculation

          k = 0.0000 0.0000 0.0000 ( 72781 PWs)   bands (ev):

   -38.2671 -37.9468 -35.8959 -35.5375 -24.5997 -24.1831 -23.0443 -23.0195
   -22.9160 -22.9083 -22.8917 -22.7608 -18.7422 -18.6377 -18.3934 -18.3396
   -18.2703 -17.9582 -17.2437 -17.1081 -16.9257 -16.8577 -16.7740 -16.5782
   -15.6517 -15.4146 -15.4045 -15.2447 -15.2064 -15.1625 -14.9030 -14.7969
   -14.7451 -14.7210 -14.6936 -14.6821 -14.5886 -14.5194 -14.4522 -14.3543
   -14.3383 -14.2377 -14.2308 -14.2263 -14.2217 -14.2095 -14.1837 -14.1376
   -14.1312 -14.1145 -14.0945 -13.9185 -13.7581 -13.5246  -9.9704  -9.4724
    -9.3488  -9.3199  -8.9811  -8.9500  -8.2828  -8.2526  -8.1923  -8.1690
    -8.1481  -8.0961  -8.0936  -8.0712  -7.9555  -7.9314  -7.9047  -7.8591
    -7.8366  -7.7832  -7.7221  -7.7176  -7.6934  -7.5618  -3.2147  -3.1691
    -3.0593  -2.6376  -2.4001  -2.3873  -2.3216  -2.3105  -2.3058  -2.2855
    -2.2779  -2.1515  -2.1202  -2.0759  -2.0436  -1.9752  -1.9198  -1.8992
    -1.8702  -1.8594  -1.8535  -1.7758  -1.7695  -1.7380  -1.6442  -1.5645
    -1.4961  -1.4319  -1.3694  -1.3596  -1.3393  -1.3157  -1.3117  -1.2379
    -1.1476  -1.1471  -1.1471  -1.1456  -1.1344  -1.1018  -1.1011  -1.0050
    -0.9877  -0.9745  -0.9362  -0.9206  -0.9144  -0.8982  -0.8855  -0.7475
    -0.7116  -0.7099  -0.5835  -0.4812  -0.4757  -0.4679  -0.4236  -0.4190
    -0.3622  -0.3581  -0.3553  -0.3523  -0.3331  -0.2857  -0.2592  -0.2312
    -0.2212  -0.1846  -0.1688  -0.1605  -0.1526  -0.1430  -0.0814  -0.0534
    -0.0525  -0.0498  -0.0435  -0.0391  -0.0067   0.0121   0.0463   0.0476
     0.0851   0.0869   0.1253   0.1308   0.1347   0.1706   0.1883   0.2225
     0.2361   0.2972   0.3574   0.3655   0.3792   0.3801   0.3924   0.4267
     0.4714   0.5421   0.5562   0.5919   0.6266   0.8135   0.8287   0.8382
     0.8561   0.8580   0.8733   0.8993   0.9056   0.9450   0.9624   0.9868
     1.0007   1.0144   1.0477   1.0529   1.0628   1.0743   1.1210   1.1415
     1.1704   1.2029   1.2239   1.2310   1.2523   1.2758   1.3598   1.3915
     1.4322   1.4709   1.5286   1.5428   1.5478   1.5654   1.6022   1.6162
     1.6312   1.6458   1.7390   1.7391   1.8014   1.8089   1.8862   1.9013
     1.9521   2.0165   2.0706   2.0791   2.1162   2.1494   2.2128   2.2994
     2.3935   2.4065   2.4101   2.4873   2.6892   2.7063   4.2390   4.9654
     5.0549   5.1008   5.5271   5.7692   5.9899   6.0828   6.2977   6.4554
     6.5043   6.6531   7.0959   7.1184   7.1379   7.1979   7.1997   7.3519
     7.4093   7.5750   7.7733   7.8921   7.9390   7.9606   8.1171   8.2226
     8.2352   8.2564   8.3167   8.3244   8.4010   8.4062   8.5051   8.6152
     8.6915   8.8002

          k = 0.0000 0.2618 0.0000 ( 72741 PWs)   bands (ev):

   -38.2644 -37.9441 -35.8942 -35.5358 -24.5809 -24.1652 -23.0197 -22.9949
   -22.8969 -22.8847 -22.8726 -22.7421 -18.7035 -18.6305 -18.3812 -18.3546
   -18.3322 -18.0693 -17.2143 -17.1038 -16.9917 -16.8279 -16.7694 -16.6442
   -15.5454 -15.3440 -15.3104 -15.1985 -15.1504 -15.1057 -14.8635 -14.7945
   -14.7099 -14.6978 -14.6750 -14.6331 -14.5470 -14.4559 -14.4198 -14.3379
   -14.3338 -14.2895 -14.2448 -14.2140 -14.2057 -14.2033 -14.1996 -14.1857
   -14.1708 -14.0940 -14.0827 -13.9766 -13.7913 -13.5383  -9.9562  -9.4707
    -9.3924  -9.3691  -9.1040  -9.0442  -8.2759  -8.2465  -8.2013  -8.1841
    -8.1616  -8.0858  -8.0500  -8.0279  -7.9979  -7.9909  -7.9730  -7.9680
    -7.9247  -7.9011  -7.8862  -7.8245  -7.8179  -7.7758  -3.3170  -3.2499
    -3.1207  -2.6840  -2.5214  -2.4776  -2.4631  -2.4126  -2.3967  -2.3189
    -2.3163  -2.2866  -2.2707  -2.2456  -2.2358  -2.2048  -2.1211  -2.1071
    -2.0405  -1.9542  -1.9340  -1.8768  -1.8499  -1.7314  -1.6937  -1.6851
    -1.6390  -1.5939  -1.5922  -1.5896  -1.5616  -1.5604  -1.5571  -1.5032
    -1.4703  -1.4092  -1.3940  -1.2969  -1.1497  -1.0576  -1.0340  -1.0121
    -0.9655  -0.9598  -0.9360  -0.8720  -0.8674  -0.8214  -0.7977  -0.7637
    -0.7361  -0.6944  -0.6407  -0.5731  -0.5649  -0.5323  -0.5278  -0.4984
    -0.4845  -0.4778  -0.4574  -0.3791  -0.3684  -0.3201  -0.3137  -0.2935
    -0.2486  -0.2060  -0.1931  -0.1648  -0.1637  -0.1076  -0.0804  -0.0773
    -0.0308  -0.0171  -0.0032   0.0105   0.0122   0.1093   0.1123   0.1149
     0.1171   0.1398   0.1940   0.2155   0.2165   0.2459   0.2532   0.2558
     0.2677   0.3308   0.3347   0.3393   0.4165   0.4778   0.4896   0.4912
     0.5047   0.5978   0.6633   0.6875   0.7140   0.7174   0.7457   0.7948
     0.8030   0.8281   0.9029   0.9615   0.9752   0.9802   0.9845   1.0191
     1.0204   1.0640   1.1097   1.1147   1.1217   1.1253   1.1791   1.1935
     1.1954   1.2310   1.2820   1.3047   1.3068   1.3291   1.3291   1.3493
     1.4008   1.4514   1.4555   1.5427   1.5682   1.6109   1.6246   1.6322
     1.6526   1.6767   1.6800   1.7144   1.8196   1.8266   1.8472   1.8583
     2.0811   2.0966   2.1359   2.3250   2.5718   2.6276   2.6519   2.6840
     2.7081   2.7094   2.7953   2.8632   3.0003   3.1417   4.4575   5.2891
     5.4365   5.4509   5.6457   6.0239   6.0632   6.3004   6.4492   6.5346
     6.7775   6.8159   6.9391   6.9521   7.2035   7.4093   7.4713   7.5382
     7.5850   7.5868   7.6733   7.6833   7.9447   8.0330   8.1076   8.1353
     8.2656   8.2941   8.4591   8.5197   8.5201   8.5532   8.6882   8.7296
     8.7664   8.7731

          k = 0.0000 0.5236 0.0000 ( 72651 PWs)   bands (ev):

   -38.2579 -37.9375 -35.8901 -35.5316 -24.5351 -24.1214 -22.9592 -22.9342
   -22.8500 -22.8267 -22.8259 -22.6961 -18.6216 -18.6130 -18.6036 -18.3146
   -18.3125 -18.2517 -17.1448 -17.1308 -17.0933 -16.7953 -16.7585 -16.7455
   -15.3043 -15.1500 -15.1119 -15.0763 -15.0024 -14.9544 -14.8519 -14.7676
   -14.7496 -14.6765 -14.6279 -14.4541 -14.4438 -14.4140 -14.3812 -14.3737
   -14.3524 -14.3479 -14.3259 -14.2741 -14.1862 -14.1853 -14.1771 -14.1496
   -14.1488 -14.1042 -14.0916 -14.0018 -13.8154 -13.5629  -9.9172  -9.7625
    -9.5428  -9.4047  -9.2899  -9.0663  -8.4632  -8.4385  -8.3159  -8.3035
    -8.2813  -8.2391  -8.2097  -8.1694  -8.1539  -8.1429  -8.1303  -8.0623
    -8.0513  -8.0384  -7.9331  -7.9105  -7.9102  -7.7457  -3.7121  -3.5885
    -3.3646  -3.0253  -2.9816  -2.9536  -2.9165  -2.8860  -2.8078  -2.6331
    -2.5964  -2.4897  -2.4610  -2.4476  -2.4414  -2.4062  -2.4034  -2.2997
    -2.2937  -2.2633  -2.2603  -2.2542  -2.2528  -2.2205  -2.1566  -2.0167
    -1.9671  -1.9192  -1.8646  -1.8482  -1.8255  -1.7821  -1.7038  -1.6430
    -1.5028  -1.4191  -1.3562  -1.2903  -1.1834  -1.1623  -1.1595  -1.1385
    -1.0967  -1.0683  -1.0465  -1.0135  -1.0070  -0.9493  -0.9410  -0.8315
    -0.8172  -0.8107  -0.7499  -0.7448  -0.7376  -0.7100  -0.7070  -0.7008
    -0.6860  -0.6852  -0.6214  -0.5791  -0.5569  -0.5150  -0.5149  -0.4879
    -0.4616  -0.4467  -0.4402  -0.3675  -0.2743  -0.1248  -0.1159  -0.0295
    -0.0155   0.0292   0.0318   0.0339   0.0590   0.0662   0.1343   0.1554
     0.2027   0.2156   0.2420   0.3861   0.4025   0.4220   0.4386   0.4446
     0.5568   0.5761   0.6059   0.6208   0.6615   0.6760   0.7194   0.7221
     0.8013   0.8637   0.8665   0.8697   0.8901   0.9417   1.0079   1.0431
     1.0544   1.0732   1.0816   1.0867   1.1008   1.1076   1.1132   1.1173
     1.1245   1.1870   1.1933   1.2179   1.2465   1.2636   1.2992   1.3019
     1.3374   1.3695   1.3822   1.4151   1.4280   1.4382   1.4968   1.5136
     1.5741   1.6027   1.6212   1.6235   1.6370   1.6645   1.6749   1.6965
     1.7018   1.7557   1.8358   1.8772   1.8966   1.9061   1.9068   1.9563
     2.0663   2.1927   2.2409   2.3796   2.9056   2.9103   2.9418   2.9553
     3.2725   3.3245   3.6530   3.6924   3.7675   3.9870   4.8587   5.4352
     6.0848   6.2327   6.3382   6.3426   6.4093   6.4573   6.4731   6.6151
     6.7743   6.9153   7.0300   7.0509   7.6045   7.6358   7.6744   7.7959
     7.8897   8.1246   8.1613   8.2537   8.2874   8.2950   8.4635   8.4726
     8.5303   8.5598   8.6044   8.6968   8.7484   8.7498   8.7838   8.8363
     8.8947   8.9813

          k = 0.0000 0.7854 0.0000 ( 72634 PWs)   bands (ev):

   -38.2514 -37.9310 -35.8860 -35.5275 -24.4883 -24.0767 -22.8968 -22.8717
   -22.8021 -22.7780 -22.7670 -22.6491 -18.8302 -18.5956 -18.5205 -18.4979
   -18.2969 -18.1462 -17.2664 -17.0830 -17.0578 -16.9213 -16.7478 -16.6667
   -15.0835 -15.0060 -14.9585 -14.9190 -14.8928 -14.8233 -14.7700 -14.7660
   -14.7500 -14.6784 -14.5736 -14.5644 -14.5324 -14.4906 -14.3812 -14.3505
   -14.3456 -14.3400 -14.3289 -14.2450 -14.1584 -14.1344 -14.1301 -14.1159
   -14.1023 -14.1016 -14.0521 -13.9147 -13.7940 -13.5644 -10.1465  -9.8676
    -9.7936  -9.4133  -9.3346  -9.0070  -8.8582  -8.8335  -8.6882  -8.5985
    -8.5762  -8.3921  -8.2437  -8.2143  -8.2078  -8.1726  -8.1471  -8.1314
    -8.1074  -8.0298  -7.9840  -7.8119  -7.7889  -7.6344  -4.1966  -4.0584
    -3.7680  -3.5541  -3.4202  -3.4086  -3.3658  -3.3253  -3.1684  -3.0221
    -3.0215  -2.9562  -2.9560  -2.8362  -2.7781  -2.7547  -2.6171  -2.5255
    -2.3732  -2.3704  -2.3497  -2.3413  -2.3212  -2.3078  -2.3019  -2.2964
    -2.2125  -2.0647  -1.9364  -1.9115  -1.8970  -1.8321  -1.7444  -1.7251
    -1.6529  -1.4341  -1.3840  -1.3651  -1.3072  -1.3068  -1.2938  -1.2719
    -1.2536  -1.2502  -1.1779  -1.1752  -1.1547  -1.1327  -1.0745  -1.0426
    -1.0243  -0.9643  -0.9620  -0.9543  -0.9064  -0.9045  -0.8879  -0.8818
    -0.7640  -0.7639  -0.7529  -0.7330  -0.7114  -0.7072  -0.6885  -0.6089
    -0.5769  -0.5290  -0.4819  -0.3742  -0.3695  -0.2782  -0.1717  -0.1162
     0.0143   0.0381   0.0489   0.0524   0.0729   0.0871   0.1260   0.1886
     0.1989   0.2465   0.3523   0.3758   0.4599   0.6091   0.6245   0.6404
     0.6971   0.7014   0.8310   0.8332   0.8573   0.8784   0.8984   0.9512
     0.9650   0.9805   0.9936   1.0379   1.0863   1.0870   1.1463   1.1583
     1.1637   1.1986   1.2213   1.2371   1.2374   1.2786   1.3150   1.3308
     1.3834   1.4001   1.4541   1.4585   1.4920   1.5112   1.5617   1.5738
     1.5771   1.5820   1.5977   1.6168   1.6269   1.6379   1.6516   1.6986
     1.7087   1.7375   1.7707   1.8135   1.8582   1.8791   1.8969   1.9045
     1.9080   1.9442   1.9680   2.0349   2.0700   2.0858   2.0909   2.2034
     2.2987   2.3103   2.3106   2.3820   2.7542   2.7558   2.8551   2.8689
     3.5756   3.6522   4.2983   4.3385   4.3593   4.5791   4.8579   5.5480
     5.9261   5.9383   6.2380   6.3419   6.5602   6.6980   6.7382   7.1539
     7.2658   7.2815   7.4795   7.6327   7.9430   7.9676   8.0017   8.1429
     8.2798   8.4097   8.4791   8.5469   8.6008   8.6486   8.7278   8.7425
     8.8110   8.8620   8.8735   8.9784   8.9951   9.0382   9.0502   9.0890
     9.2303   9.3187

          k = 0.0000-1.0472 0.0000 ( 72746 PWs)   bands (ev):

   -38.2487 -37.9283 -35.8843 -35.5258 -24.4687 -24.0578 -22.8704 -22.8453
   -22.7819 -22.7578 -22.7418 -22.6292 -18.9107 -18.6011 -18.5884 -18.4506
   -18.2896 -18.0986 -17.3168 -17.0787 -17.0221 -16.9715 -16.7433 -16.6304
   -15.0894 -15.0308 -14.8958 -14.8237 -14.7686 -14.7380 -14.7278 -14.7145
   -14.7078 -14.6576 -14.6496 -14.5821 -14.5701 -14.5603 -14.4190 -14.3919
   -14.3712 -14.3532 -14.2991 -14.1927 -14.1557 -14.1046 -14.1037 -14.1031
   -14.0847 -14.0845 -13.9673 -13.8769 -13.8124 -13.5484 -10.3008  -9.9036
    -9.8419  -9.4434  -9.3216  -9.0115  -8.9867  -8.9766  -8.8408  -8.7173
    -8.6948  -8.4955  -8.2518  -8.2196  -8.2156  -8.1667  -8.1590  -8.1402
    -8.1350  -8.0271  -8.0044  -7.7593  -7.7362  -7.5859  -4.3986  -4.2605
    -3.9547  -3.7619  -3.6264  -3.5658  -3.5269  -3.5146  -3.3137  -3.2567
    -3.2553  -3.1863  -3.1863  -2.9840  -2.8068  -2.7839  -2.6517  -2.6399
    -2.4821  -2.3926  -2.3863  -2.3568  -2.3310  -2.3300  -2.3074  -2.2900
    -2.2836  -2.1310  -2.0460  -2.0137  -1.9353  -1.8283  -1.7463  -1.6260
    -1.5171  -1.4986  -1.4707  -1.4500  -1.4135  -1.4043  -1.3688  -1.3654
    -1.3240  -1.3169  -1.2220  -1.2202  -1.2080  -1.2056  -1.1505  -1.1213
    -1.0672  -1.0481  -1.0417  -0.9999  -0.9943  -0.9913  -0.9909  -0.9337
    -0.8532  -0.8530  -0.8125  -0.7662  -0.7307  -0.7192  -0.7041  -0.6654
    -0.6039  -0.5106  -0.4793  -0.3930  -0.3381  -0.3353  -0.2460  -0.1890
     0.0198   0.0493   0.0568   0.0581   0.0786   0.1094   0.1134   0.1198
     0.1391   0.2280   0.3619   0.4089   0.4776   0.6441   0.6949   0.7269
     0.7467   0.8181   0.8592   0.8814   0.8837   0.9709   0.9726   0.9748
     1.0564   1.0717   1.0795   1.1425   1.1435   1.1594   1.1931   1.2192
     1.2363   1.2366   1.2467   1.2485   1.2996   1.3021   1.3164   1.3386
     1.4516   1.4660   1.5263   1.5342   1.5772   1.6218   1.6408   1.6591
     1.6664   1.6695   1.7523   1.7724   1.7889   1.7922   1.8143   1.8151
     1.8489   1.9123   1.9275   1.9639   1.9806   2.0190   2.0269   2.0560
     2.0566   2.0638   2.0639   2.0929   2.1118   2.1347   2.1396   2.2892
     2.2904   2.4736   2.4738   2.5213   2.5228   2.5244   2.6858   2.6993
     3.5896   3.7177   4.5028   4.5535   4.5715   4.7759   4.7970   5.6869
     5.6989   5.7660   6.2508   6.3223   6.4500   6.6532   6.7370   7.3786
     7.3999   7.6656   7.6787   7.8531   7.9994   8.0708   8.2191   8.2732
     8.4373   8.4887   8.6403   8.6477   8.6717   8.7788   8.8035   8.8305
     8.8329   8.9316   8.9699   9.0782   9.1021   9.1124   9.1322   9.1857
     9.2372   9.2439

          k = 0.1250 0.0000 0.0000 ( 72743 PWs)   bands (ev):

   -38.2671 -37.9468 -35.8959 -35.5375 -24.5990 -24.1840 -23.0398 -23.0150
   -22.9207 -22.9049 -22.8965 -22.7646 -18.7414 -18.6345 -18.3927 -18.3364
   -18.2703 -17.9582 -17.2467 -17.1201 -16.9257 -16.8609 -16.7866 -16.5782
   -15.6242 -15.4056 -15.3787 -15.2487 -15.1919 -15.1484 -14.8954 -14.8090
   -14.7683 -14.7504 -14.7045 -14.6904 -14.5546 -14.5233 -14.4419 -14.3593
   -14.3314 -14.2429 -14.2300 -14.2265 -14.2207 -14.2116 -14.1865 -14.1529
   -14.1368 -14.1170 -14.0902 -13.9271 -13.7568 -13.5239  -9.9730  -9.4873
    -9.3287  -9.3172  -8.9824  -8.9532  -8.2851  -8.2550  -8.1959  -8.1734
    -8.1525  -8.1042  -8.0798  -8.0573  -7.9473  -7.9230  -7.8900  -7.8657
    -7.8431  -7.7755  -7.7269  -7.7244  -7.7028  -7.5703  -3.1799  -3.1340
    -3.0266  -2.6018  -2.3964  -2.3822  -2.3339  -2.3261  -2.3222  -2.2884
    -2.2742  -2.1488  -2.1393  -2.0736  -2.0566  -2.0178  -1.9161  -1.9112
    -1.9069  -1.8604  -1.8392  -1.7854  -1.7499  -1.7353  -1.6275  -1.6075
    -1.4905  -1.4794  -1.3886  -1.3592  -1.3134  -1.2831  -1.2819  -1.1948
    -1.1463  -1.1452  -1.1445  -1.1441  -1.1367  -1.1359  -1.0805  -1.0155
    -0.9745  -0.9698  -0.9536  -0.9006  -0.8945  -0.8940  -0.8673  -0.7235
    -0.7104  -0.6740  -0.5645  -0.5374  -0.5124  -0.4496  -0.4384  -0.4120
    -0.4017  -0.3917  -0.3808  -0.3741  -0.3128  -0.2996  -0.2649  -0.2637
    -0.2268  -0.1891  -0.1744  -0.1667  -0.1543  -0.1510  -0.1189  -0.0954
    -0.0597  -0.0587   0.0008   0.0136   0.0323   0.0379   0.0493   0.0494
     0.0850   0.0860   0.1142   0.1419   0.1504   0.1942   0.2090   0.2191
     0.2382   0.3003   0.3498   0.3522   0.3596   0.3646   0.3888   0.4231
     0.4709   0.5522   0.5808   0.5833   0.6806   0.7524   0.7576   0.8496
     0.8520   0.8556   0.8561   0.8916   0.8955   0.9627   0.9652   0.9750
     0.9808   1.0053   1.0165   1.0365   1.0400   1.0835   1.0893   1.1044
     1.1746   1.2152   1.2348   1.2496   1.3010   1.3067   1.3777   1.4127
     1.4329   1.4586   1.5228   1.5582   1.5600   1.5664   1.6073   1.6153
     1.6528   1.6587   1.6773   1.7077   1.7992   1.8074   1.8729   1.8890
     1.9908   2.0004   2.0591   2.0916   2.1329   2.1530   2.2124   2.2981
     2.3935   2.4173   2.4198   2.4982   2.6837   2.7057   4.2876   5.0199
     5.1048   5.1436   5.5247   5.7559   5.9574   6.1599   6.3314   6.5112
     6.5597   6.6705   6.7395   6.7448   7.1684   7.3144   7.4018   7.5633
     7.5678   7.5962   7.7743   7.8685   7.9533   7.9618   8.1062   8.2001
     8.2233   8.2363   8.3186   8.3804   8.3930   8.4488   8.5011   8.6263
     8.6774   8.7064

          k = 0.1250 0.2618 0.0000 ( 72721 PWs)   bands (ev):

   -38.2644 -37.9441 -35.8942 -35.5358 -24.5803 -24.1661 -23.0155 -22.9906
   -22.9014 -22.8814 -22.8772 -22.7457 -18.7028 -18.6273 -18.3812 -18.3539
   -18.3291 -18.0693 -17.2171 -17.1152 -16.9916 -16.8310 -16.7814 -16.6441
   -15.5188 -15.3362 -15.2861 -15.2020 -15.1379 -15.0939 -14.8567 -14.8002
   -14.7159 -14.7029 -14.6945 -14.6797 -14.5077 -14.4607 -14.4110 -14.3359
   -14.3281 -14.2909 -14.2519 -14.2150 -14.2126 -14.2046 -14.2016 -14.1867
   -14.1744 -14.0929 -14.0913 -13.9824 -13.7887 -13.5370  -9.9575  -9.4823
    -9.4207  -9.3619  -9.0854  -9.0277  -8.2778  -8.2486  -8.2044  -8.1902
    -8.1678  -8.1062  -8.0918  -8.0829  -8.0333  -8.0098  -7.9354  -7.9248
    -7.9115  -7.8802  -7.8779  -7.8548  -7.7560  -7.7324  -3.2810  -3.2133
    -3.0855  -2.6466  -2.5304  -2.4864  -2.4686  -2.4044  -2.3887  -2.3177
    -2.3169  -2.2916  -2.2753  -2.2497  -2.2354  -2.2098  -2.1271  -2.1233
    -2.0403  -1.9917  -1.9617  -1.9360  -1.8483  -1.7494  -1.6785  -1.6779
    -1.6312  -1.5900  -1.5887  -1.5658  -1.5636  -1.5554  -1.5330  -1.4922
    -1.4800  -1.4350  -1.3978  -1.2952  -1.1449  -1.0486  -1.0342  -1.0243
    -0.9603  -0.9507  -0.9258  -0.8662  -0.8544  -0.8532  -0.7901  -0.7695
    -0.7526  -0.7389  -0.6440  -0.6059  -0.5622  -0.5546  -0.5421  -0.5129
    -0.4870  -0.4806  -0.4550  -0.4309  -0.3332  -0.3060  -0.3026  -0.2955
    -0.2871  -0.1984  -0.1891  -0.1669  -0.1565  -0.1060  -0.0966  -0.0760
    -0.0545  -0.0154  -0.0009   0.0110   0.0223   0.0992   0.1065   0.1222
     0.1252   0.1488   0.1903   0.2124   0.2127   0.2537   0.2615   0.2827
     0.2909   0.3309   0.3408   0.3489   0.3895   0.4269   0.4713   0.4794
     0.4950   0.5985   0.6811   0.6992   0.7138   0.7485   0.7769   0.7926
     0.8209   0.8575   0.8883   0.9315   0.9477   0.9661   0.9790   1.0193
     1.0595   1.0602   1.0837   1.1134   1.1162   1.1415   1.1499   1.1822
     1.1939   1.2323   1.2359   1.2437   1.2731   1.3459   1.3572   1.4164
     1.4200   1.4513   1.4708   1.5364   1.5606   1.5997   1.6152   1.6305
     1.6411   1.6616   1.6765   1.6947   1.7209   1.8243   1.9571   1.9648
     2.0528   2.1583   2.1592   2.4146   2.5759   2.6239   2.6500   2.6825
     2.7110   2.7112   2.7932   2.8597   2.9919   3.1409   4.4946   5.3361
     5.4738   5.4858   5.6262   5.9689   6.0899   6.3374   6.4910   6.5694
     6.7726   6.7826   6.8326   6.8700   7.2419   7.4474   7.4940   7.5795
     7.6088   7.6506   7.7055   7.7410   7.9429   8.0344   8.1206   8.1352
     8.2550   8.3020   8.4305   8.4900   8.5548   8.5621   8.6804   8.7029
     8.7394   8.7936

          k = 0.1250 0.5236 0.0000 ( 72666 PWs)   bands (ev):

   -38.2579 -37.9375 -35.8901 -35.5316 -24.5345 -24.1221 -22.9554 -22.9304
   -22.8540 -22.8298 -22.8238 -22.6992 -18.6215 -18.6099 -18.6030 -18.3126
   -18.3113 -18.2510 -17.1464 -17.1318 -17.1034 -16.7958 -16.7690 -16.7479
   -15.2798 -15.1458 -15.0925 -15.0780 -14.9956 -14.9496 -14.8499 -14.7624
   -14.7475 -14.6765 -14.6263 -14.5217 -14.4405 -14.3847 -14.3804 -14.3722
   -14.3499 -14.3421 -14.3242 -14.2738 -14.1920 -14.1848 -14.1786 -14.1501
   -14.1495 -14.1096 -14.0900 -14.0226 -13.8103 -13.5607  -9.9171  -9.7784
    -9.5380  -9.4047  -9.3031  -9.0436  -8.4969  -8.4728  -8.3381  -8.2584
    -8.2333  -8.2266  -8.1995  -8.1769  -8.1695  -8.1496  -8.1304  -8.1069
    -8.0656  -8.0512  -7.9757  -7.8811  -7.8579  -7.7067  -3.6766  -3.5526
    -3.3278  -3.0315  -2.9824  -2.9614  -2.8880  -2.8785  -2.8113  -2.6280
    -2.5918  -2.4872  -2.4627  -2.4487  -2.4420  -2.4059  -2.4024  -2.3016
    -2.2934  -2.2640  -2.2611  -2.2524  -2.2518  -2.2170  -2.1239  -2.0068
    -1.9882  -1.9148  -1.8976  -1.8609  -1.8467  -1.8151  -1.6976  -1.6428
    -1.4855  -1.4260  -1.4259  -1.2971  -1.1941  -1.1713  -1.1555  -1.1425
    -1.1045  -1.0762  -1.0499  -1.0211  -1.0108  -0.9662  -0.9189  -0.8883
    -0.8410  -0.8099  -0.8044  -0.7724  -0.7507  -0.7424  -0.7126  -0.6998
    -0.6798  -0.6780  -0.6180  -0.5783  -0.5609  -0.5374  -0.5215  -0.5170
    -0.4716  -0.4354  -0.4336  -0.3175  -0.2815  -0.1393  -0.1056  -0.0347
    -0.0121  -0.0027   0.0256   0.0440   0.0495   0.0719   0.1541   0.1822
     0.2007   0.2215   0.2626   0.3622   0.3779   0.4178   0.4198   0.4871
     0.4955   0.5814   0.5978   0.6047   0.6759   0.7026   0.7587   0.7625
     0.8255   0.8550   0.8596   0.9045   0.9102   0.9471   0.9862   1.0016
     1.0213   1.0376   1.0628   1.0929   1.1135   1.1149   1.1340   1.1420
     1.1847   1.1850   1.1925   1.2112   1.2480   1.2753   1.2892   1.2898
     1.3045   1.3373   1.3751   1.4030   1.4520   1.4555   1.4580   1.5010
     1.5578   1.5815   1.6139   1.6291   1.6505   1.6668   1.6876   1.7135
     1.7318   1.7418   1.8493   1.8572   1.8965   1.9016   2.0280   2.0432
     2.0921   2.1824   2.3329   2.5166   2.9066   2.9116   2.9427   2.9579
     3.2735   3.3233   3.6207   3.6611   3.7389   3.9607   4.8925   5.4682
     6.0533   6.1655   6.3537   6.3582   6.4648   6.4668   6.4879   6.6273
     6.7938   6.9394   7.0543   7.0731   7.5967   7.6843   7.7178   7.7919
     7.8942   8.0796   8.2064   8.2408   8.2572   8.2847   8.3858   8.4606
     8.5141   8.5591   8.6091   8.6238   8.7001   8.7399   8.8004   8.8556
     8.9134   9.0121

          k = 0.1250 0.7854 0.0000 ( 72652 PWs)   bands (ev):

   -38.2514 -37.9310 -35.8860 -35.5275 -24.4879 -24.0772 -22.8937 -22.8685
   -22.8054 -22.7813 -22.7646 -22.6516 -18.8301 -18.5926 -18.5204 -18.4974
   -18.2939 -18.1457 -17.2664 -17.0923 -17.0600 -16.9213 -16.7575 -16.6690
   -15.0672 -14.9953 -14.9427 -14.9174 -14.8927 -14.8241 -14.7730 -14.7521
   -14.7444 -14.6790 -14.5655 -14.5612 -14.5327 -14.4874 -14.3842 -14.3658
   -14.3538 -14.3504 -14.3400 -14.2370 -14.1571 -14.1331 -14.1297 -14.1174
   -14.1030 -14.1026 -14.0580 -13.9324 -13.7911 -13.5654 -10.1316  -9.8676
    -9.7669  -9.4431  -9.3390  -9.0206  -8.8484  -8.8239  -8.6757  -8.5564
    -8.5339  -8.3555  -8.2426  -8.2138  -8.2068  -8.1784  -8.1737  -8.1537
    -8.1487  -8.0471  -8.0089  -7.8269  -7.8038  -7.6515  -4.1598  -4.0228
    -3.7337  -3.5513  -3.4233  -3.4215  -3.3783  -3.2922  -3.1777  -3.0195
    -3.0191  -2.9587  -2.9584  -2.8422  -2.7643  -2.7406  -2.6059  -2.4965
    -2.3721  -2.3695  -2.3294  -2.3248  -2.3234  -2.3065  -2.3006  -2.2939
    -2.1943  -2.0584  -1.9403  -1.9083  -1.8872  -1.8351  -1.7771  -1.7404
    -1.7162  -1.4420  -1.3930  -1.3813  -1.3781  -1.3097  -1.3000  -1.2733
    -1.2535  -1.2441  -1.2162  -1.2001  -1.1630  -1.1382  -1.1249  -1.1109
    -1.0244  -0.9824  -0.9759  -0.9545  -0.9061  -0.8988  -0.8899  -0.8727
    -0.8108  -0.7764  -0.7686  -0.7477  -0.7078  -0.7022  -0.6814  -0.6073
    -0.5702  -0.4909  -0.4656  -0.3852  -0.3804  -0.2798  -0.1052  -0.0541
    -0.0001   0.0112   0.0187   0.0660   0.0752   0.1431   0.1505   0.1775
     0.2320   0.2714   0.3673   0.4029   0.4496   0.4835   0.5775   0.6148
     0.7117   0.7313   0.8274   0.8405   0.8593   0.9082   0.9269   0.9461
     0.9613   0.9681   1.0262   1.0483   1.0870   1.1044   1.1322   1.1538
     1.1726   1.1757   1.2033   1.2132   1.2383   1.2767   1.3214   1.3286
     1.3816   1.4056   1.4215   1.4528   1.4732   1.4875   1.5639   1.5731
     1.5893   1.5916   1.5943   1.6288   1.6398   1.6711   1.6770   1.6918
     1.7119   1.7132   1.7867   1.8027   1.8560   1.8677   1.8783   1.9598
     1.9852   1.9915   2.0060   2.0126   2.0954   2.0970   2.1018   2.2950
     2.3023   2.3046   2.3484   2.4306   2.7560   2.7580   2.8600   2.8770
     3.5827   3.6531   4.2339   4.2758   4.3016   4.5229   4.9000   5.5632
     5.9813   5.9933   6.1858   6.3489   6.5876   6.6900   6.7784   7.1471
     7.2339   7.2485   7.4435   7.6231   7.9027   7.9431   8.0533   8.0916
     8.1784   8.4282   8.4479   8.5023   8.6244   8.6883   8.7445   8.7791
     8.8175   8.8926   8.9099   8.9728   9.0168   9.0476   9.0583   9.1246
     9.2624   9.3536

          k = 0.1250-1.0472 0.0000 ( 72726 PWs)   bands (ev):

   -38.2487 -37.9283 -35.8843 -35.5258 -24.4683 -24.0583 -22.8675 -22.8423
   -22.7849 -22.7609 -22.7396 -22.6316 -18.9107 -18.6010 -18.5854 -18.4501
   -18.2867 -18.0981 -17.3168 -17.0877 -17.0241 -16.9716 -16.7527 -16.6326
   -15.0782 -15.0193 -14.8726 -14.8199 -14.7681 -14.7311 -14.7206 -14.7077
   -14.6885 -14.6782 -14.6712 -14.5744 -14.5623 -14.5555 -14.4129 -14.4054
   -14.3679 -14.3644 -14.3167 -14.1954 -14.1670 -14.1037 -14.1026 -14.0992
   -14.0855 -14.0854 -13.9738 -13.8897 -13.8077 -13.5540 -10.2697  -9.8795
    -9.8416  -9.4746  -9.3217  -9.0087  -8.9812  -8.9565  -8.8117  -8.6868
    -8.6643  -8.4678  -8.2478  -8.2160  -8.2146  -8.1940  -8.1700  -8.1697
    -8.1432  -8.0593  -8.0051  -7.8031  -7.7801  -7.6263  -4.3607  -4.2242
    -3.9210  -3.7591  -3.6281  -3.5816  -3.5410  -3.4823  -3.3251  -3.2543
    -3.2532  -3.1890  -3.1889  -2.9916  -2.7900  -2.7666  -2.6255  -2.6254
    -2.4565  -2.3950  -2.3884  -2.3363  -2.3353  -2.3060  -2.3022  -2.2908
    -2.2841  -2.1255  -2.0172  -1.9780  -1.9332  -1.8195  -1.7584  -1.6595
    -1.6041  -1.5440  -1.5101  -1.4738  -1.4592  -1.4047  -1.3746  -1.3726
    -1.3714  -1.3090  -1.2887  -1.2361  -1.2242  -1.2025  -1.1311  -1.1147
    -1.1004  -1.0833  -1.0365  -1.0046  -0.9968  -0.9855  -0.9744  -0.9458
    -0.9251  -0.8643  -0.8586  -0.7558  -0.7451  -0.7066  -0.6957  -0.6402
    -0.5806  -0.4777  -0.4609  -0.3600  -0.3511  -0.3494  -0.1554  -0.1305
     0.0021   0.0194   0.0483   0.0921   0.0955   0.1163   0.1407   0.1584
     0.1838   0.2189   0.3245   0.4595   0.4662   0.5040   0.6593   0.7547
     0.7749   0.7935   0.8703   0.8738   0.9244   0.9345   0.9805   0.9941
     1.0368   1.0830   1.0957   1.0989   1.1113   1.1643   1.1904   1.1987
     1.2285   1.2430   1.2631   1.2783   1.2910   1.3052   1.3222   1.3397
     1.4422   1.4876   1.5055   1.5273   1.5658   1.6398   1.6532   1.6678
     1.6713   1.6798   1.7634   1.7860   1.7945   1.8148   1.8347   1.8480
     1.8983   1.9030   1.9384   1.9639   1.9682   2.0060   2.0272   2.0400
     2.0524   2.0559   2.0783   2.1284   2.1437   2.1555   2.2644   2.2959
     2.2970   2.4664   2.4664   2.4893   2.5261   2.5269   2.6964   2.7148
     3.5986   3.7269   4.4238   4.4749   4.4974   4.7057   4.8307   5.7499
     5.7551   5.7668   6.2773   6.3455   6.4759   6.6576   6.7294   7.2948
     7.3704   7.5731   7.5866   7.8734   7.9572   8.0442   8.0634   8.1426
     8.4395   8.4476   8.6480   8.7214   8.8160   8.8291   8.8715   8.8880
     8.8958   8.9706   9.0370   9.1099   9.1099   9.1558   9.1775   9.2287
     9.2522   9.2541

          k = 0.2500 0.0000 0.0000 ( 72711 PWs)   bands (ev):

   -38.2671 -37.9468 -35.8959 -35.5375 -24.5972 -24.1862 -23.0272 -23.0022
   -22.9341 -22.9101 -22.8956 -22.7745 -18.7397 -18.6266 -18.3909 -18.3286
   -18.2703 -17.9582 -17.2538 -17.1484 -16.9257 -16.8688 -16.8162 -16.5782
   -15.5505 -15.3810 -15.3108 -15.2610 -15.1565 -15.1118 -14.8985 -14.8624
   -14.8090 -14.7763 -14.7337 -14.7113 -14.5221 -14.5013 -14.4190 -14.3780
   -14.3150 -14.2429 -14.2353 -14.2235 -14.2233 -14.2155 -14.1924 -14.1917
   -14.1486 -14.1265 -14.0837 -13.9485 -13.7541 -13.5219  -9.9791  -9.5131
    -9.3106  -9.2901  -8.9863  -8.9611  -8.2899  -8.2600  -8.2039  -8.1818
    -8.1601  -8.1198  -8.0468  -8.0243  -7.9236  -7.8993  -7.8847  -7.8620
    -7.8562  -7.7538  -7.7531  -7.7318  -7.7292  -7.5942  -3.0793  -3.0326
    -2.9335  -2.5000  -2.4155  -2.3891  -2.3733  -2.3573  -2.3561  -2.2973
    -2.2649  -2.1862  -2.1418  -2.1304  -2.1129  -2.0672  -1.9507  -1.9260
    -1.9061  -1.8636  -1.8227  -1.8071  -1.7297  -1.7075  -1.6776  -1.6497
    -1.5571  -1.4328  -1.4327  -1.3295  -1.2734  -1.2478  -1.1757  -1.1718
    -1.1529  -1.1448  -1.1423  -1.1412  -1.1381  -1.1065  -1.0711  -1.0242
    -1.0095  -0.9828  -0.9043  -0.8834  -0.8424  -0.8416  -0.8358  -0.7135
    -0.6742  -0.6575  -0.6359  -0.5263  -0.5250  -0.5105  -0.5067  -0.4542
    -0.4420  -0.4310  -0.4206  -0.4069  -0.3691  -0.2800  -0.2679  -0.2444
    -0.2126  -0.2112  -0.2057  -0.1850  -0.1793  -0.1647  -0.1624  -0.1319
    -0.0926  -0.0756   0.0460   0.0505   0.0518   0.0728   0.0746   0.0797
     0.1011   0.1076   0.1181   0.1562   0.1842   0.2030   0.2154   0.2358
     0.2786   0.2842   0.2993   0.3381   0.3423   0.3664   0.3977   0.4669
     0.4752   0.5097   0.6275   0.6406   0.6790   0.6991   0.7445   0.7820
     0.7990   0.8041   0.8156   0.8490   0.8721   0.9158   0.9223   0.9515
     0.9529   1.0110   1.0332   1.0459   1.0574   1.1048   1.1171   1.1292
     1.1307   1.2055   1.2395   1.2455   1.3357   1.3512   1.3619   1.3740
     1.4382   1.4591   1.5016   1.5418   1.5487   1.5986   1.5994   1.6049
     1.6402   1.6724   1.6988   1.7001   1.8024   1.8368   1.8574   1.9127
     1.9195   1.9584   2.0364   2.1106   2.1164   2.2115   2.2950   2.2952
     2.3931   2.4432   2.4459   2.5176   2.6624   2.6973   4.4212   5.1728
     5.2428   5.2621   5.3990   5.8380   6.0253   6.2061   6.3536   6.3583
     6.4136   6.6415   6.7084   6.7245   7.2237   7.2828   7.3585   7.6328
     7.7132   7.8098   7.8273   7.8821   7.9646   8.0327   8.1215   8.1886
     8.2280   8.2390   8.3154   8.3767   8.3916   8.4303   8.5138   8.6062
     8.6793   8.7432

          k = 0.2500 0.2618 0.0000 ( 72704 PWs)   bands (ev):

   -38.2644 -37.9441 -35.8942 -35.5358 -24.5786 -24.1681 -23.0034 -22.9784
   -22.9141 -22.8901 -22.8727 -22.7550 -18.7011 -18.6195 -18.3812 -18.3521
   -18.3214 -18.0693 -17.2239 -17.1422 -16.9914 -16.8385 -16.8096 -16.6439
   -15.4466 -15.3152 -15.2222 -15.2126 -15.1070 -15.0635 -14.8463 -14.8276
   -14.7749 -14.7431 -14.7153 -14.6953 -14.4637 -14.4582 -14.3930 -14.3390
   -14.3169 -14.2933 -14.2605 -14.2380 -14.2176 -14.2073 -14.2037 -14.1891
   -14.1806 -14.1137 -14.0915 -13.9964 -13.7835 -13.5338  -9.9606  -9.5122
    -9.4594  -9.3619  -9.0463  -8.9924  -8.2842  -8.2555  -8.2157  -8.2070
    -8.1885  -8.1597  -8.1357  -8.1111  -8.0787  -8.0549  -7.9672  -7.9291
    -7.8619  -7.8382  -7.8189  -7.7956  -7.6934  -7.6715  -3.1773  -3.1080
    -2.9856  -2.5672  -2.5404  -2.5195  -2.4889  -2.3835  -2.3682  -2.3308
    -2.3137  -2.2968  -2.2879  -2.2571  -2.2378  -2.2219  -2.1687  -2.1405
    -2.0974  -2.0703  -2.0305  -2.0152  -1.8453  -1.7782  -1.6919  -1.6465
    -1.6152  -1.6076  -1.5832  -1.5830  -1.5659  -1.5658  -1.4898  -1.4887
    -1.4228  -1.3889  -1.3853  -1.2816  -1.1333  -1.0881  -1.0463  -0.9707
    -0.9550  -0.9313  -0.9264  -0.9007  -0.8895  -0.8531  -0.8428  -0.7960
    -0.7564  -0.7532  -0.7177  -0.6867  -0.6485  -0.6146  -0.5574  -0.5248
    -0.4752  -0.4702  -0.4301  -0.4187  -0.3805  -0.3293  -0.3129  -0.2860
    -0.2656  -0.2075  -0.2032  -0.1678  -0.1640  -0.1170  -0.0849  -0.0748
    -0.0515  -0.0246  -0.0128   0.0041   0.0139   0.0900   0.1209   0.1541
     0.1569   0.1621   0.1955   0.2055   0.2156   0.2378   0.2615   0.2718
     0.3127   0.3396   0.3580   0.3719   0.3822   0.4124   0.4308   0.4753
     0.5106   0.5803   0.6623   0.7134   0.7491   0.7524   0.8030   0.8410
     0.8597   0.8732   0.8987   0.9067   0.9481   0.9633   0.9769   0.9968
     1.0249   1.0357   1.0413   1.0861   1.1163   1.1335   1.1534   1.1680
     1.1760   1.1902   1.2044   1.2675   1.2762   1.3231   1.3584   1.4012
     1.4815   1.4878   1.4975   1.5168   1.5322   1.5640   1.5737   1.5844
     1.6016   1.6146   1.6650   1.6897   1.7580   1.8439   1.9426   2.0964
     2.1399   2.2184   2.3244   2.5845   2.6117   2.6138   2.6424   2.6772
     2.7167   2.7233   2.7830   2.8443   2.9598   3.1294   4.6004   5.4672
     5.4972   5.5827   5.5974   5.9473   6.1924   6.3845   6.4905   6.4955
     6.5464   6.6484   6.9921   7.0271   7.2998   7.3475   7.4639   7.6053
     7.6622   7.6956   7.8701   7.9075   7.9436   8.0320   8.1162   8.2064
     8.2716   8.3027   8.4006   8.4112   8.5017   8.5431   8.6431   8.6704
     8.7256   8.8092

          k = 0.2500 0.5236 0.0000 ( 72642 PWs)   bands (ev):

   -38.2579 -37.9375 -35.8901 -35.5316 -24.5331 -24.1238 -22.9449 -22.9198
   -22.8650 -22.8410 -22.8163 -22.7072 -18.6214 -18.6023 -18.6016 -18.3124
   -18.3040 -18.2496 -17.1510 -17.1341 -17.1267 -16.7990 -16.7919 -16.7537
   -15.2133 -15.1347 -15.0832 -15.0430 -14.9805 -14.9388 -14.8449 -14.7495
   -14.7408 -14.6769 -14.6276 -14.6157 -14.4475 -14.3781 -14.3759 -14.3628
   -14.3368 -14.3364 -14.3291 -14.2590 -14.2160 -14.1809 -14.1761 -14.1541
   -14.1512 -14.1210 -14.0886 -14.0723 -13.8013 -13.5557  -9.9163  -9.7983
    -9.5793  -9.4048  -9.2755  -9.0143  -8.5323  -8.5085  -8.3629  -8.2792
    -8.2555  -8.2422  -8.2134  -8.1833  -8.1763  -8.1545  -8.0985  -8.0934
    -8.0750  -8.0514  -7.9525  -7.8339  -7.8106  -7.6685  -3.5762  -3.4519
    -3.2263  -3.0605  -2.9882  -2.9812  -2.8933  -2.8245  -2.7758  -2.6110
    -2.5761  -2.4771  -2.4690  -2.4534  -2.4449  -2.4038  -2.3986  -2.3095
    -2.2916  -2.2714  -2.2671  -2.2487  -2.2473  -2.2004  -2.0994  -2.0392
    -2.0295  -2.0163  -1.8984  -1.8962  -1.8253  -1.7713  -1.6894  -1.6495
    -1.5765  -1.4582  -1.4449  -1.3170  -1.2414  -1.1816  -1.1682  -1.1550
    -1.1380  -1.1218  -1.0781  -1.0700  -1.0333  -0.9978  -0.9899  -0.9739
    -0.9613  -0.8721  -0.8119  -0.7670  -0.7550  -0.7406  -0.7367  -0.6944
    -0.6627  -0.6616  -0.6381  -0.6013  -0.5844  -0.5613  -0.5389  -0.5062
    -0.4419  -0.4257  -0.4132  -0.2886  -0.2700  -0.2201  -0.1712  -0.0813
    -0.0371   0.0024   0.0445   0.0556   0.0894   0.1171   0.1695   0.2159
     0.2256   0.2334   0.2973   0.3146   0.3282   0.3617   0.4080   0.5242
     0.5644   0.5830   0.6061   0.6201   0.7042   0.7311   0.8000   0.8042
     0.8613   0.8675   0.8771   0.9145   0.9271   0.9325   0.9551   0.9577
     0.9721   0.9929   1.0621   1.0865   1.1054   1.1218   1.1455   1.1519
     1.1733   1.2099   1.2150   1.2261   1.2723   1.2878   1.3037   1.3074
     1.3152   1.3358   1.3716   1.3796   1.4061   1.4331   1.4433   1.4841
     1.5172   1.5469   1.5993   1.6305   1.6661   1.6917   1.6996   1.7165
     1.7623   1.7815   1.8280   1.8708   1.8783   1.9016   1.9489   2.1111
     2.3591   2.4143   2.5817   2.8027   2.9092   2.9146   2.9481   2.9790
     3.2757   3.3198   3.5197   3.5624   3.6482   3.8765   4.9866   5.5577
     5.8723   6.1910   6.3942   6.3996   6.4821   6.4962   6.5114   6.6765
     6.8509   6.9969   7.1162   7.1386   7.5625   7.7955   7.8227   7.8463
     7.9182   7.9792   8.1841   8.1975   8.2084   8.2408   8.2743   8.3777
     8.4451   8.5592   8.5985   8.6206   8.6689   8.7297   8.7863   8.8497
     8.9327   8.9866

          k = 0.2500 0.7854 0.0000 ( 72670 PWs)   bands (ev):

   -38.2514 -37.9310 -35.8860 -35.5275 -24.4868 -24.0785 -22.8848 -22.8595
   -22.8146 -22.7907 -22.7583 -22.6582 -18.8300 -18.5852 -18.5203 -18.4961
   -18.2866 -18.1444 -17.2664 -17.1147 -17.0651 -16.9213 -16.7808 -16.6747
   -15.0263 -14.9661 -14.9142 -14.8985 -14.8884 -14.8361 -14.7949 -14.7277
   -14.7053 -14.6733 -14.5547 -14.5449 -14.5314 -14.4780 -14.4461 -14.3921
   -14.3691 -14.3492 -14.3489 -14.2360 -14.1576 -14.1296 -14.1289 -14.1170
   -14.1055 -14.1044 -14.0728 -13.9771 -13.7845 -13.5684 -10.0842  -9.8671
    -9.7142  -9.5120  -9.3417  -9.0648  -8.8085  -8.7842  -8.6327  -8.4473
    -8.4244  -8.3057  -8.2817  -8.2601  -8.2263  -8.2025  -8.1979  -8.1805
    -8.1549  -8.1441  -8.0199  -7.8830  -7.8599  -7.7084  -4.0571  -3.9245
    -3.6417  -3.5463  -3.4655  -3.4269  -3.4175  -3.2073  -3.2061  -3.0124
    -3.0123  -2.9658  -2.9652  -2.8611  -2.7202  -2.6951  -2.5692  -2.4126
    -2.3808  -2.3757  -2.3350  -2.3029  -2.2953  -2.2926  -2.2676  -2.2458
    -2.1512  -2.0545  -1.9797  -1.9530  -1.9158  -1.8946  -1.8133  -1.7780
    -1.6791  -1.5522  -1.5473  -1.4513  -1.4128  -1.4009  -1.3831  -1.3263
    -1.3075  -1.2600  -1.2502  -1.2359  -1.2313  -1.2071  -1.1413  -1.0754
    -1.0423  -1.0330  -0.9428  -0.9294  -0.9199  -0.9158  -0.8805  -0.8676
    -0.8474  -0.8005  -0.7759  -0.7491  -0.6991  -0.6743  -0.6682  -0.6197
    -0.5188  -0.4680  -0.4270  -0.4181  -0.4106  -0.2948  -0.1272  -0.0614
    -0.0610   0.0632   0.0780   0.0953   0.1464   0.1540   0.2118   0.2398
     0.2918   0.2960   0.3340   0.4252   0.4776   0.4826   0.5416   0.5503
     0.7459   0.7498   0.8229   0.8248   0.8639   0.8825   0.9250   1.0065
     1.0159   1.0385   1.0433   1.0694   1.0836   1.1028   1.1079   1.1398
     1.1551   1.1846   1.2081   1.2120   1.2427   1.2654   1.3211   1.3390
     1.3565   1.3688   1.3919   1.4076   1.4326   1.4453   1.5266   1.5484
     1.5770   1.5788   1.5939   1.6214   1.6375   1.6723   1.6744   1.6898
     1.7138   1.7281   1.7430   1.7714   1.8487   1.8555   1.8625   1.9190
     1.9992   2.0172   2.0298   2.1202   2.1237   2.2596   2.2780   2.2796
     2.3470   2.4064   2.5653   2.7228   2.7617   2.7656   2.8939   2.9483
     3.5992   3.6549   4.0433   4.0896   4.1308   4.3541   5.0225   5.6013
     6.0455   6.1374   6.1494   6.3389   6.6600   6.7285   6.8487   7.1072
     7.1338   7.1420   7.3642   7.5793   7.8183   7.8448   8.0106   8.0845
     8.1357   8.4236   8.4382   8.4945   8.6112   8.7413   8.7592   8.7707
     8.8099   8.9437   9.0064   9.0364   9.0575   9.0936   9.1098   9.2318
     9.2857   9.3024

          k = 0.2500-1.0472 0.0000 ( 72644 PWs)   bands (ev):

   -38.2486 -37.9283 -35.8843 -35.5258 -24.4673 -24.0595 -22.8594 -22.8340
   -22.7933 -22.7695 -22.7338 -22.6376 -18.9106 -18.6009 -18.5781 -18.4490
   -18.2795 -18.0969 -17.3168 -17.1093 -17.0289 -16.9716 -16.7752 -16.6379
   -15.0460 -14.9858 -14.8190 -14.8129 -14.7634 -14.7288 -14.7247 -14.7240
   -14.6839 -14.6781 -14.6386 -14.5657 -14.5462 -14.5438 -14.4445 -14.3959
   -14.3936 -14.3666 -14.3618 -14.2248 -14.1655 -14.1013 -14.1011 -14.0975
   -14.0880 -14.0876 -13.9894 -13.9237 -13.7953 -13.5685 -10.1824  -9.8411
    -9.8131  -9.5619  -9.3217  -9.0949  -8.8944  -8.8698  -8.7288  -8.5981
    -8.5755  -8.3869  -8.2922  -8.2682  -8.2368  -8.2120  -8.2060  -8.1784
    -8.1519  -8.1498  -8.0069  -7.9233  -7.9004  -7.7367  -4.2554  -4.1246
    -3.8315  -3.7521  -3.6327  -3.6292  -3.5840  -3.3980  -3.3605  -3.2473
    -3.2464  -3.1967  -3.1963  -3.0152  -2.7369  -2.7120  -2.5796  -2.5483
    -2.4024  -2.3947  -2.3822  -2.3467  -2.3031  -2.2899  -2.2877  -2.2635
    -2.2322  -2.1126  -1.9512  -1.9264  -1.9073  -1.8430  -1.8045  -1.7968
    -1.7308  -1.7155  -1.6736  -1.6093  -1.5286  -1.4683  -1.4238  -1.4137
    -1.3359  -1.3137  -1.3008  -1.2740  -1.2716  -1.2673  -1.2385  -1.1494
    -1.0757  -1.0440  -1.0187  -1.0088  -1.0010  -0.9955  -0.9657  -0.9514
    -0.8884  -0.8857  -0.8658  -0.7510  -0.7414  -0.7128  -0.6703  -0.6357
    -0.5198  -0.4770  -0.4234  -0.3951  -0.3914  -0.3108  -0.1318  -0.0601
    -0.0312   0.0467   0.0879   0.0926   0.1761   0.1769   0.1990   0.2534
     0.2731   0.2872   0.3092   0.3327   0.4402   0.5694   0.5977   0.7097
     0.8332   0.8349   0.8559   0.8770   0.8972   0.9911   1.0073   1.0303
     1.0502   1.0522   1.0759   1.0993   1.1324   1.1369   1.1737   1.1894
     1.2168   1.2330   1.2490   1.2560   1.2820   1.3270   1.3413   1.3442
     1.4220   1.4438   1.4883   1.4960   1.5376   1.5605   1.6071   1.6160
     1.6299   1.6846   1.7352   1.7365   1.7709   1.8104   1.8106   1.8520
     1.8721   1.8829   1.9531   1.9618   2.0271   2.0291   2.0318   2.0440
     2.0509   2.1192   2.1510   2.2593   2.2984   2.3152   2.3157   2.3983
     2.4389   2.4458   2.4466   2.5371   2.5402   2.5787   2.7724   2.8457
     3.6251   3.7447   4.1948   4.2473   4.2849   4.4988   4.9312   5.6935
     5.9474   5.9586   6.3485   6.3792   6.5491   6.6655   6.7331   7.1232
     7.3017   7.3242   7.3388   7.7651   7.7850   7.8289   8.0452   8.0751
     8.3861   8.4738   8.7007   8.8608   8.9089   8.9136   8.9920   9.0190
     9.0805   9.0919   9.1015   9.1874   9.2137   9.2278   9.2773   9.2993
     9.3997   9.4177

          k = 0.3750 0.0000 0.0000 ( 72766 PWs)   bands (ev):

   -38.2671 -37.9468 -35.8959 -35.5375 -24.5954 -24.1884 -23.0090 -22.9836
   -22.9530 -22.9294 -22.8846 -22.7862 -18.7379 -18.6186 -18.3890 -18.3206
   -18.2703 -17.9582 -17.2608 -17.1759 -16.9258 -16.8765 -16.8450 -16.5782
   -15.4556 -15.3474 -15.2821 -15.2270 -15.1370 -15.0726 -14.9587 -14.8798
   -14.8210 -14.8139 -14.7736 -14.7363 -14.4983 -14.4571 -14.4125 -14.3868
   -14.3011 -14.2463 -14.2375 -14.2329 -14.2281 -14.2223 -14.2191 -14.1968
   -14.1587 -14.1421 -14.0785 -13.9711 -13.7518 -13.5197  -9.9852  -9.5323
    -9.3036  -9.2574  -8.9910  -8.9693  -8.2940  -8.2642  -8.2117  -8.1884
    -8.1659  -8.1322  -8.0066  -7.9845  -7.9135  -7.8904  -7.8887  -7.8640
    -7.8200  -7.7906  -7.7671  -7.7448  -7.7222  -7.6280  -2.9241  -2.8778
    -2.7967  -2.5477  -2.5143  -2.4545  -2.3519  -2.3446  -2.3233  -2.3063
    -2.2549  -2.2321  -2.2195  -2.2028  -2.1342  -2.0590  -1.9501  -1.9458
    -1.9073  -1.8937  -1.8696  -1.8277  -1.7299  -1.7247  -1.7241  -1.6626
    -1.5013  -1.4654  -1.3646  -1.2866  -1.2396  -1.2122  -1.1936  -1.1885
    -1.1418  -1.1404  -1.1382  -1.1368  -1.1009  -1.0546  -1.0524  -1.0176
    -1.0133  -0.9598  -0.9031  -0.8875  -0.8311  -0.7551  -0.7483  -0.7293
    -0.7080  -0.6976  -0.6431  -0.6164  -0.5699  -0.5627  -0.5223  -0.5171
    -0.4817  -0.4606  -0.4360  -0.3655  -0.3538  -0.3158  -0.2914  -0.2538
    -0.2201  -0.2088  -0.2065  -0.1989  -0.1943  -0.1884  -0.1597  -0.1452
    -0.1073  -0.1020   0.0116   0.0318   0.0568   0.0584   0.0707   0.0722
     0.1317   0.1586   0.1707   0.1749   0.1878   0.2097   0.2499   0.2767
     0.3001   0.3067   0.3143   0.3296   0.3682   0.3786   0.4069   0.4532
     0.5309   0.5358   0.6066   0.6326   0.6346   0.6955   0.7012   0.7064
     0.7114   0.7484   0.7966   0.8412   0.8602   0.8709   0.8722   0.9353
     0.9800   1.0035   1.0453   1.0678   1.0957   1.1317   1.1619   1.1774
     1.1861   1.2001   1.2218   1.2497   1.2729   1.3161   1.3191   1.3505
     1.3951   1.4230   1.4553   1.4769   1.5376   1.5772   1.6421   1.6473
     1.6494   1.6985   1.7475   1.7568   1.7882   1.7884   1.8192   1.8258
     1.9093   1.9979   2.0736   2.0786   2.1476   2.2243   2.2920   2.3792
     2.4295   2.4838   2.4862   2.5288   2.6191   2.6690   4.6073   5.1573
     5.4136   5.4481   5.4701   5.9383   6.0070   6.0124   6.0695   6.2327
     6.5405   6.6848   6.9311   6.9795   7.0105   7.2992   7.4280   7.4861
     7.6502   7.6813   7.7970   7.9553   7.9674   8.0911   8.1728   8.2417
     8.2592   8.3076   8.3353   8.3641   8.3822   8.5118   8.5875   8.6807
     8.8003   8.8103

          k = 0.3750 0.2618 0.0000 ( 72708 PWs)   bands (ev):

   -38.2644 -37.9441 -35.8942 -35.5358 -24.5769 -24.1702 -22.9862 -22.9608
   -22.9320 -22.9084 -22.8623 -22.7660 -18.6994 -18.6116 -18.3812 -18.3504
   -18.3135 -18.0693 -17.2306 -17.1685 -16.9913 -16.8459 -16.8370 -16.6438
   -15.3525 -15.2864 -15.2306 -15.1439 -15.0865 -15.0311 -14.8958 -14.8586
   -14.7839 -14.7819 -14.7399 -14.7139 -14.4459 -14.4179 -14.3729 -14.3661
   -14.3108 -14.2957 -14.2728 -14.2480 -14.2200 -14.2117 -14.2062 -14.1925
   -14.1843 -14.1407 -14.0921 -14.0101 -13.7792 -13.5304  -9.9639  -9.5423
    -9.4856  -9.3641  -9.0128  -8.9614  -8.2940  -8.2661  -8.2388  -8.2174
    -8.2143  -8.1864  -8.1614  -8.1348  -8.1023  -8.0782  -7.9840  -7.9627
    -7.8098  -7.7860  -7.7785  -7.7552  -7.6505  -7.6273  -3.0188  -2.9488
    -2.8398  -2.6637  -2.6066  -2.5454  -2.3906  -2.3688  -2.3475  -2.3371
    -2.3093  -2.3043  -2.2983  -2.2667  -2.2461  -2.2338  -2.2179  -2.1988
    -2.1882  -2.1481  -2.0559  -2.0399  -1.8429  -1.8423  -1.8003  -1.6370
    -1.6174  -1.5799  -1.5793  -1.5731  -1.5687  -1.5682  -1.4816  -1.4597
    -1.3483  -1.2808  -1.2787  -1.2343  -1.1472  -1.1277  -1.0549  -1.0483
    -0.9774  -0.9534  -0.9301  -0.9163  -0.9053  -0.8810  -0.8535  -0.8421
    -0.8048  -0.7912  -0.7743  -0.7321  -0.6844  -0.6374  -0.5826  -0.5432
    -0.5400  -0.4466  -0.4173  -0.4139  -0.3631  -0.3507  -0.3120  -0.2917
    -0.2552  -0.2415  -0.2284  -0.1888  -0.1386  -0.1217  -0.0771  -0.0721
    -0.0367  -0.0286  -0.0058   0.0125   0.0193   0.0661   0.0905   0.1487
     0.1699   0.2000   0.2008   0.2068   0.2225   0.2279   0.2746   0.2895
     0.3122   0.3496   0.3544   0.3936   0.4001   0.4368   0.4540   0.4759
     0.5428   0.5599   0.6077   0.7314   0.7592   0.7829   0.8278   0.8286
     0.8507   0.8591   0.8821   0.9093   0.9324   0.9467   0.9611   1.0148
     1.0240   1.0614   1.0704   1.0760   1.0913   1.1265   1.1287   1.1537
     1.1614   1.1814   1.2025   1.2846   1.3169   1.3321   1.3479   1.3704
     1.4025   1.4407   1.4622   1.4706   1.5452   1.5731   1.5793   1.5819
     1.6108   1.6123   1.6701   1.7014   1.7874   1.8122   1.8596   2.0933
     2.3196   2.3774   2.5203   2.5700   2.6187   2.6194   2.6647   2.7232
     2.7277   2.7609   2.8108   2.8256   2.8920   3.0895   4.7540   5.2948
     5.6771   5.7485   5.7562   5.9837   6.2117   6.2169   6.2606   6.3912
     6.6302   6.7550   7.0877   7.2479   7.2700   7.3769   7.4493   7.6102
     7.6556   7.7370   7.8736   7.8784   7.9281   8.0638   8.1295   8.1395
     8.3056   8.3514   8.4081   8.4216   8.4616   8.4871   8.5808   8.7278
     8.7475   8.9041

          k = 0.3750 0.5236 0.0000 ( 72641 PWs)   bands (ev):

   -38.2579 -37.9375 -35.8901 -35.5316 -24.5318 -24.1255 -22.9301 -22.9046
   -22.8803 -22.8567 -22.8074 -22.7165 -18.6213 -18.6002 -18.5947 -18.3123
   -18.2964 -18.2481 -17.1563 -17.1516 -17.1336 -16.8200 -16.7968 -16.7591
   -15.1276 -15.1182 -15.0918 -14.9864 -14.9737 -14.9316 -14.8390 -14.7487
   -14.7283 -14.6906 -14.6778 -14.6423 -14.4535 -14.3747 -14.3682 -14.3634
   -14.3496 -14.3194 -14.3189 -14.2427 -14.2386 -14.1762 -14.1722 -14.1598
   -14.1594 -14.1327 -14.1242 -14.0882 -13.7949 -13.5512  -9.9148  -9.7931
    -9.6615  -9.4044  -9.2080  -9.0102  -8.5305  -8.5068  -8.3929  -8.3695
    -8.3559  -8.2416  -8.2228  -8.2124  -8.1742  -8.1626  -8.1491  -8.0517
    -7.9875  -7.9641  -7.8436  -7.8367  -7.8134  -7.6723  -3.4312  -3.3089
    -3.1369  -3.0862  -3.0486  -2.9747  -2.8996  -2.8562  -2.6429  -2.5782
    -2.5465  -2.4857  -2.4710  -2.4548  -2.4490  -2.3970  -2.3889  -2.3342
    -2.3084  -2.2963  -2.2862  -2.2433  -2.2394  -2.1878  -2.1806  -2.1728
    -2.1331  -1.9095  -1.8488  -1.8173  -1.8083  -1.7485  -1.7109  -1.6511
    -1.5953  -1.5188  -1.4569  -1.3983  -1.3450  -1.3044  -1.2719  -1.2047
    -1.1736  -1.1617  -1.1199  -1.0843  -1.0525  -1.0294  -1.0194  -0.9820
    -0.9523  -0.9021  -0.8462  -0.8285  -0.7698  -0.7596  -0.7393  -0.6898
    -0.6426  -0.6408  -0.6341  -0.6010  -0.5816  -0.5666  -0.5656  -0.4818
    -0.4284  -0.3935  -0.3628  -0.3457  -0.2837  -0.2613  -0.2397  -0.0987
    -0.0595  -0.0435   0.0290   0.0483   0.1099   0.1310   0.1715   0.2182
     0.2624   0.2801   0.3278   0.3525   0.3759   0.3790   0.4264   0.4957
     0.5654   0.6068   0.6553   0.7034   0.7402   0.7579   0.7883   0.7990
     0.8351   0.8776   0.8886   0.9012   0.9099   0.9122   0.9327   0.9435
     0.9551   0.9886   1.0160   1.0964   1.1209   1.1367   1.1496   1.1531
     1.1721   1.2087   1.2242   1.2381   1.2563   1.2569   1.3231   1.3291
     1.3328   1.3810   1.3893   1.3906   1.4043   1.4165   1.4551   1.4705
     1.4874   1.5087   1.6069   1.6167   1.6739   1.6931   1.7358   1.7406
     1.7822   1.8025   1.8083   1.8320   1.8341   1.8719   1.9462   2.0511
     2.7116   2.7499   2.8611   2.9125   2.9159   2.9475   2.9945   3.1903
     3.2776   3.3074   3.3497   3.3874   3.4866   3.7231   5.1166   5.6286
     5.7186   6.1958   6.4425   6.4504   6.4959   6.5091   6.5438   6.7133
     6.9315   7.0428   7.1828   7.2350   7.5265   7.7990   7.8780   7.9382
     8.0006   8.0220   8.0628   8.0958   8.1539   8.1842   8.1961   8.2724
     8.4466   8.5481   8.6053   8.6449   8.7050   8.7470   8.7896   8.9057
     8.9262   8.9740

          k = 0.3750 0.7854 0.0000 ( 72690 PWs)   bands (ev):

   -38.2514 -37.9310 -35.8860 -35.5275 -24.4857 -24.0799 -22.8726 -22.8469
   -22.8272 -22.8037 -22.7511 -22.6658 -18.8300 -18.5777 -18.5203 -18.4948
   -18.2792 -18.1430 -17.2663 -17.1367 -17.0703 -16.9212 -16.8037 -16.6804
   -14.9757 -14.9245 -14.9089 -14.8968 -14.8698 -14.8314 -14.8201 -14.7057
   -14.6561 -14.6477 -14.5613 -14.5563 -14.5097 -14.4943 -14.4647 -14.4377
   -14.4085 -14.3451 -14.3236 -14.2553 -14.1587 -14.1256 -14.1246 -14.1170
   -14.1099 -14.1043 -14.0863 -14.0291 -13.7778 -13.5725 -10.0048  -9.8652
    -9.7445  -9.5135  -9.3378  -9.1331  -8.7271  -8.7030  -8.5539  -8.4547
    -8.4309  -8.3022  -8.2804  -8.2790  -8.2173  -8.2060  -8.1884  -8.1870
    -8.1622  -8.1230  -8.0210  -7.9880  -7.9648  -7.8054  -3.9154  -3.7913
    -3.5762  -3.5359  -3.5003  -3.4874  -3.4255  -3.2609  -3.1026  -3.0019
    -3.0017  -2.9764  -2.9751  -2.8943  -2.6410  -2.6139  -2.5017  -2.4197
    -2.4037  -2.3559  -2.2943  -2.2861  -2.2762  -2.2711  -2.1534  -2.1522
    -2.1382  -2.1226  -2.1110  -2.0426  -1.9742  -1.8635  -1.7880  -1.7777
    -1.7581  -1.6737  -1.6672  -1.6108  -1.5937  -1.5027  -1.3928  -1.3864
    -1.3648  -1.2786  -1.2714  -1.2481  -1.2393  -1.2015  -1.2003  -1.0831
    -1.0695  -0.9915  -0.9381  -0.9364  -0.8918  -0.8643  -0.8557  -0.8396
    -0.8196  -0.8047  -0.7705  -0.7477  -0.6949  -0.6865  -0.6607  -0.6386
    -0.5137  -0.4726  -0.4699  -0.4137  -0.3868  -0.3427  -0.1597  -0.1071
    -0.0762   0.0416   0.0747   0.1112   0.1384   0.2137   0.2343   0.3243
     0.3331   0.3737   0.4199   0.4406   0.4616   0.4862   0.6440   0.6624
     0.7098   0.8015   0.8027   0.8484   0.8493   0.8665   0.9085   0.9777
     0.9838   0.9944   1.0388   1.1006   1.1229   1.1325   1.1521   1.1789
     1.2174   1.2196   1.2419   1.2451   1.2566   1.2752   1.2785   1.3210
     1.3229   1.3336   1.3450   1.3483   1.3789   1.4535   1.4918   1.5179
     1.5219   1.5389   1.5862   1.5974   1.6312   1.6333   1.6532   1.6919
     1.6996   1.7157   1.7375   1.7829   1.7997   1.8178   1.8408   1.8490
     2.0043   2.0092   2.0474   2.1574   2.1597   2.1702   2.2432   2.2448
     2.6987   2.7087   2.7662   2.7730   2.8762   2.9745   3.1056   3.2870
     3.6083   3.6539   3.7425   3.7885   3.8575   4.0771   5.2068   5.6305
     5.8588   6.2969   6.3679   6.3847   6.7439   6.8036   6.9080   6.9434
     6.9526   7.0745   7.3199   7.4782   7.6201   7.8031   7.9645   8.1261
     8.1929   8.4530   8.4782   8.5326   8.5774   8.7165   8.7214   8.7415
     8.7944   8.9089   8.9969   9.0734   9.1324   9.2406   9.2660   9.2963
     9.3140   9.3368

          k = 0.3750-1.0472 0.0000 ( 72674 PWs)   bands (ev):

   -38.2486 -37.9283 -35.8843 -35.5258 -24.4663 -24.0607 -22.8483 -22.8225
   -22.8047 -22.7813 -22.7273 -22.6444 -18.9105 -18.6008 -18.5707 -18.4478
   -18.2721 -18.0957 -17.3169 -17.1307 -17.0337 -16.9716 -16.7974 -16.6432
   -14.9980 -14.9335 -14.8522 -14.7939 -14.7782 -14.7404 -14.7221 -14.7117
   -14.6492 -14.6348 -14.5803 -14.5612 -14.5381 -14.5287 -14.4960 -14.4387
   -14.4362 -14.3662 -14.3576 -14.2691 -14.1507 -14.1044 -14.0984 -14.0981
   -14.0913 -14.0909 -14.0029 -13.9650 -13.7811 -13.5849 -10.0592  -9.8405
    -9.7264  -9.6852  -9.3208  -9.2023  -8.7629  -8.7384  -8.6056  -8.4600
    -8.4372  -8.4349  -8.4110  -8.2804  -8.2655  -8.2212  -8.2086  -8.1935
    -8.1912  -8.1679  -8.0901  -8.0670  -8.0090  -7.8877  -4.1122  -3.9914
    -3.7650  -3.7231  -3.6959  -3.6565  -3.6232  -3.4207  -3.2962  -3.2361
    -3.2355  -3.2083  -3.2066  -3.0546  -2.6457  -2.6193  -2.5008  -2.4304
[...]
    -2.2198  -2.1156  -2.1085  -2.0702  -1.9345  -1.8410  -1.8086  -1.6344
    -1.6042  -1.5784  -1.5759  -1.5751  -1.5698  -1.5409  -1.5076  -1.4491
    -1.2587  -1.2269  -1.2102  -1.1843  -1.1632  -1.1033  -1.0970  -1.0658
    -1.0452  -1.0137  -1.0075  -0.9527  -0.9357  -0.9060  -0.8737  -0.7902
    -0.7774  -0.7671  -0.7301  -0.7259  -0.7235  -0.7030  -0.6457  -0.5620
    -0.5351  -0.4322  -0.4235  -0.4017  -0.3559  -0.3518  -0.3014  -0.2889
    -0.2824  -0.2454  -0.2100  -0.1816  -0.1810  -0.1248  -0.0676  -0.0670
    -0.0427  -0.0355   0.0215   0.0243   0.0268   0.0425   0.0547   0.1495
     0.1752   0.2099   0.2140   0.2166   0.2415   0.2591   0.2898   0.2948
     0.2988   0.3040   0.3397   0.4131   0.4325   0.4442   0.4667   0.4957
     0.5342   0.5803   0.5846   0.7316   0.7709   0.7727   0.7791   0.8442
     0.8617   0.8646   0.8817   0.8917   0.8971   0.9305   0.9508   1.0224
     1.0415   1.0653   1.0899   1.0998   1.1073   1.1319   1.1342   1.1375
     1.1784   1.1843   1.2371   1.2678   1.2701   1.3017   1.3673   1.3809
     1.3950   1.4015   1.4174   1.4291   1.5581   1.5834   1.6020   1.6048
     1.6198   1.6258   1.6893   1.7033   1.7087   1.7958   1.8616   2.0840
     2.4201   2.4713   2.5249   2.5890   2.6328   2.6423   2.6539   2.7411
     2.7428   2.7466   2.7824   2.8208   2.9337   3.0360   4.8650   5.1643
     5.8653   5.9394   5.9530   5.9595   5.9701   5.9749   6.1686   6.4998
     6.6717   6.8629   6.9461   7.2335   7.5222   7.5367   7.5476   7.5650
     7.5843   7.6174   7.7761   7.8303   7.8826   7.9756   8.1058   8.1597
     8.3147   8.3687   8.4297   8.4818   8.4955   8.5519   8.7006   8.7153
     8.7782   8.8171

          k =-0.5000 0.5236 0.0000 ( 72634 PWs)   bands (ev):

   -38.2579 -37.9375 -35.8901 -35.5316 -24.5312 -24.1262 -22.9200 -22.8936
   -22.8906 -22.8679 -22.8031 -22.7210 -18.6212 -18.5996 -18.5914 -18.3122
   -18.2932 -18.2475 -17.1618 -17.1580 -17.1339 -16.8299 -16.7975 -16.7612
   -15.1068 -15.1047 -15.0666 -14.9853 -14.9547 -14.9354 -14.8347 -14.7742
   -14.7173 -14.6981 -14.6807 -14.6571 -14.4549 -14.3804 -14.3742 -14.3488
   -14.3343 -14.3330 -14.3151 -14.2442 -14.2299 -14.1795 -14.1744 -14.1686
   -14.1618 -14.1408 -14.1380 -14.0881 -13.7927 -13.5495  -9.9139  -9.7698
    -9.7167  -9.4042  -9.1709  -9.0181  -8.4965  -8.4725  -8.4674  -8.4443
    -8.3229  -8.2880  -8.2410  -8.2118  -8.1737  -8.1682  -8.1486  -8.0518
    -7.8975  -7.8866  -7.8743  -7.8629  -7.7796  -7.6984  -3.3065  -3.2281
    -3.1792  -3.1410  -3.0078  -2.9550  -2.9093  -2.8959  -2.5528  -2.5408
    -2.5192  -2.5163  -2.5009  -2.4720  -2.4000  -2.3944  -2.3751  -2.3644
    -2.3587  -2.3516  -2.2801  -2.2382  -2.2377  -2.2318  -2.2145  -2.2083
    -2.0569  -1.9585  -1.8900  -1.8103  -1.6913  -1.6822  -1.6387  -1.6116
    -1.5801  -1.5598  -1.5224  -1.5145  -1.4822  -1.4414  -1.2103  -1.1979
    -1.1734  -1.1596  -1.1248  -1.1192  -1.0662  -1.0449  -1.0168  -0.9931
    -0.9906  -0.8731  -0.8651  -0.8240  -0.8101  -0.7647  -0.7382  -0.6915
    -0.6311  -0.6236  -0.6156  -0.6123  -0.6077  -0.5734  -0.5156  -0.4907
    -0.4458  -0.4035  -0.3534  -0.3082  -0.3065  -0.2885  -0.2001  -0.1718
    -0.0871  -0.0783   0.0194   0.0428   0.1095   0.1465   0.1890   0.2811
     0.2853   0.3114   0.3148   0.3201   0.4230   0.4280   0.4359   0.4545
     0.5722   0.6333   0.6521   0.7551   0.7595   0.7675   0.8048   0.8142
     0.8176   0.8485   0.8657   0.8892   0.8961   0.9007   0.9027   0.9082
     0.9670   0.9878   1.0487   1.0661   1.1209   1.1443   1.1550   1.1748
     1.1943   1.1965   1.2055   1.2632   1.2660   1.2674   1.2822   1.3341
     1.3392   1.3498   1.3864   1.3964   1.4007   1.4065   1.4335   1.5347
     1.5484   1.5639   1.5716   1.6021   1.6173   1.7063   1.7386   1.7760
     1.7814   1.7874   1.7932   1.7965   1.8213   1.8728   1.9635   2.0189
     2.8794   2.8879   2.9095   2.9166   3.0543   3.1046   3.1049   3.1675
     3.1878   3.2846   3.2886   3.3234   3.4505   3.5267   5.2017   5.5427
     5.7603   6.1683   6.4697   6.4814   6.4960   6.5056   6.5883   6.7090
     6.9866   7.0415   7.2109   7.2967   7.5072   7.8101   7.8499   7.9063
     7.9946   8.0356   8.1240   8.1245   8.1397   8.1466   8.1627   8.1870
     8.5187   8.5856   8.6043   8.6572   8.7228   8.7412   8.8390   8.8570
     8.8595   8.9461

          k =-0.5000 0.7854 0.0000 ( 72674 PWs)   bands (ev):

   -38.2514 -37.9310 -35.8860 -35.5275 -24.4852 -24.0804 -22.8647 -22.8383
   -22.8352 -22.8124 -22.7477 -22.6693 -18.8299 -18.5746 -18.5202 -18.4943
   -18.2761 -18.1425 -17.2663 -17.1458 -17.0724 -16.9212 -16.8132 -16.6827
   -14.9348 -14.9076 -14.9058 -14.8968 -14.8800 -14.8743 -14.7755 -14.6873
   -14.6459 -14.6133 -14.6103 -14.5672 -14.4919 -14.4771 -14.4625 -14.4574
   -14.4472 -14.3426 -14.2973 -14.2806 -14.1583 -14.1228 -14.1211 -14.1189
   -14.1133 -14.1038 -14.0878 -14.0574 -13.7749 -13.5745  -9.9380  -9.8536
    -9.8256  -9.4802  -9.3305  -9.1771  -8.6231  -8.5983  -8.5846  -8.5616
    -8.4740  -8.3822  -8.2207  -8.2080  -8.2015  -8.1918  -8.1811  -8.1267
    -8.1261  -8.1034  -8.1024  -8.0436  -8.0038  -7.8913  -3.8170  -3.6997
    -3.6410  -3.5513  -3.5222  -3.4697  -3.3927  -3.3149  -3.0457  -2.9905
    -2.9895  -2.9885  -2.9852  -2.9226  -2.5611  -2.5370  -2.4810  -2.4514
    -2.4321  -2.3915  -2.2735  -2.2563  -2.2478  -2.2410  -2.2179  -2.2138
    -2.1273  -2.0229  -2.0138  -2.0076  -1.9898  -1.9423  -1.9142  -1.8873
    -1.7962  -1.7903  -1.6594  -1.5911  -1.5534  -1.5430  -1.4469  -1.3980
    -1.3860  -1.3724  -1.2811  -1.2447  -1.2427  -1.2091  -1.1814  -1.0934
    -1.0294  -0.9455  -0.9318  -0.9227  -0.9159  -0.8726  -0.8483  -0.8331
    -0.8193  -0.8158  -0.7446  -0.7115  -0.7067  -0.6766  -0.6619  -0.6419
    -0.5124  -0.5078  -0.5075  -0.4756  -0.2776  -0.2738  -0.2490  -0.2202
     0.0183   0.0254   0.0371   0.0597   0.1862   0.2304   0.3046   0.3126
     0.3194   0.3609   0.4031   0.5071   0.5667   0.5697   0.5810   0.6626
     0.7614   0.7865   0.8305   0.8782   0.8908   0.9028   0.9210   0.9280
     0.9299   0.9416   0.9808   1.1083   1.1409   1.1557   1.1835   1.1998
     1.2163   1.2221   1.2286   1.2488   1.2681   1.2806   1.2857   1.3153
     1.3252   1.3295   1.3499   1.3835   1.4104   1.4312   1.4335   1.4595
     1.4775   1.5667   1.5814   1.5869   1.6149   1.6239   1.6665   1.6829
     1.6943   1.7038   1.7131   1.7603   1.7793   1.7958   1.8316   1.8364
     2.0016   2.0048   2.0715   2.1156   2.1956   2.1977   2.2058   2.2077
     2.7469   2.7526   2.7717   2.7780   3.2939   3.3400   3.3662   3.4209
     3.4826   3.4875   3.6401   3.6685   3.7083   3.7088   5.3489   5.5904
     5.7697   6.2757   6.6149   6.6305   6.6454   6.6721   6.8377   6.8910
     6.9896   7.0227   7.3331   7.4095   7.5061   7.7915   7.9562   8.1718
     8.2000   8.4932   8.5417   8.5429   8.6081   8.6315   8.6355   8.7347
     8.8398   8.8877   8.9282   9.0805   9.1073   9.3401   9.3486   9.3496
     9.3997   9.4433

          k =-0.5000-1.0472 0.0000 ( 72660 PWs)   bands (ev):

   -38.2486 -37.9283 -35.8843 -35.5258 -24.4659 -24.0612 -22.8414 -22.8150
   -22.8118 -22.7890 -22.7243 -22.6476 -18.9104 -18.6008 -18.5676 -18.4473
   -18.2690 -18.0952 -17.3169 -17.1395 -17.0357 -16.9717 -16.8065 -16.6454
   -14.9602 -14.8903 -14.8739 -14.8599 -14.7757 -14.7377 -14.7206 -14.6595
   -14.6265 -14.6131 -14.5481 -14.5458 -14.5377 -14.5348 -14.5308 -14.4806
   -14.4644 -14.3563 -14.3434 -14.2987 -14.1404 -14.1117 -14.0954 -14.0950
   -14.0946 -14.0942 -14.0035 -13.9889 -13.7744 -13.5924  -9.9706  -9.8402
    -9.7738  -9.6784  -9.3185  -9.2608  -8.6266  -8.6008  -8.5759  -8.5531
    -8.4973  -8.3917  -8.3015  -8.2780  -8.2773  -8.2560  -8.2140  -8.1996
    -8.1951  -8.1714  -8.1708  -8.1603  -8.0088  -8.0013  -4.0180  -3.9052
    -3.8077  -3.7256  -3.7163  -3.6786  -3.5836  -3.4742  -3.2451  -3.2235
    -3.2223  -3.2216  -3.2125  -3.0854  -2.5667  -2.5449  -2.4575  -2.4397
    -2.4302  -2.3698  -2.3377  -2.2649  -2.2295  -2.2082  -2.2047  -2.1813
    -2.1628  -2.1531  -2.1436  -2.0994  -2.0878  -2.0719  -1.9192  -1.8957
    -1.8889  -1.8586  -1.6912  -1.6430  -1.6293  -1.5955  -1.5407  -1.4767
    -1.4625  -1.4405  -1.3371  -1.3125  -1.3077  -1.2914  -1.2193  -1.1065
    -1.0344  -1.0155  -1.0058  -0.9325  -0.9288  -0.9264  -0.9147  -0.9012
    -0.8907  -0.8877  -0.7555  -0.7375  -0.7295  -0.7243  -0.6823  -0.6368
    -0.5541  -0.5480  -0.5269  -0.4980  -0.2784  -0.2505  -0.2410  -0.2211
     0.0315   0.0803   0.0949   0.0987   0.2976   0.3000   0.3150   0.3280
     0.3708   0.3900   0.3998   0.5549   0.5749   0.6117   0.6391   0.6511
     0.7123   0.7406   0.8658   0.9292   0.9479   0.9856   0.9857   1.0047
     1.0374   1.0519   1.0712   1.1321   1.1877   1.1882   1.1883   1.2117
     1.2571   1.2639   1.2753   1.3001   1.3040   1.3307   1.3361   1.3515
     1.3660   1.3884   1.4211   1.4291   1.4435   1.4453   1.4700   1.4725
     1.5937   1.6518   1.6820   1.6868   1.6896   1.7191   1.7246   1.7426
     1.7588   1.8383   1.9044   1.9762   2.0004   2.0155   2.0271   2.0275
     2.0297   2.1164   2.1888   2.2303   2.3751   2.3757   2.3840   2.3855
     2.5445   2.5503   2.5591   2.5654   3.3068   3.3801   3.3936   3.4893
     3.4907   3.5646   3.7017   3.7185   3.7631   3.7764   5.2121   5.4714
     6.3158   6.4886   6.5578   6.5695   6.5946   6.6401   6.6492   6.7939
     6.8995   6.9014   7.2180   7.4251   7.4430   7.6309   8.1031   8.2273
     8.2329   8.5140   8.7622   8.9880   9.0226   9.0966   9.1856   9.2245
     9.2549   9.2596   9.2740   9.3109   9.3196   9.3793   9.5144   9.5199
     9.5422   9.5838

     the Fermi energy is     2.5559 ev

!    total energy              =   -3711.60954622 Ry
     Harris-Foulkes estimate   =   -3711.60954623 Ry
     estimated scf accuracy    <          2.0E-09 Ry

     The total energy is the sum of the following terms:

     one-electron contribution =  -55213.45869647 Ry
     hartree contribution      =   27909.11469683 Ry
     xc contribution           =   -1263.75471682 Ry
     ewald contribution        =   24856.50361181 Ry
     smearing contrib. (-TS)   =      -0.01444157 Ry

     convergence has been achieved in  36 iterations

     negative rho (up, down):  9.199E-02 0.000E+00

     Forces acting on atoms (cartesian axes, Ry/au):

     atom    1 type  4   force =    -0.00000453    0.00000000   -0.00011078
     atom    2 type  4   force =     0.00000453    0.00000000   -0.00011078
     atom    3 type  3   force =    -0.00001041    0.00000000   -0.00007766
     atom    4 type  3   force =     0.00001041    0.00000000   -0.00007766
     atom    5 type  4   force =     0.00000472    0.00000000   -0.00004835
     atom    6 type  4   force =    -0.00000472    0.00000000   -0.00004835
     atom    7 type  1   force =     0.00000000    0.00000000   -0.00019776
     atom    8 type  1   force =     0.00000000    0.00000000   -0.00018439
     atom    9 type  3   force =     0.00003911    0.00000000   -0.00002347
     atom   10 type  3   force =    -0.00003911    0.00000000   -0.00002347
     atom   11 type  4   force =     0.00000000    0.00000000    0.00027705
     atom   12 type  4   force =     0.00000410    0.00000000    0.00028198
     atom   13 type  4   force =    -0.00000410    0.00000000    0.00028198
     atom   14 type  4   force =     0.00000000    0.00000000    0.00042652
     atom   15 type  2   force =     0.00000000    0.00000000   -0.00109904
     atom   16 type  5   force =     0.00000000    0.00000000   -0.00167043
     atom   17 type  4   force =     0.00018890    0.00000000    0.00196403
     atom   18 type  4   force =    -0.00018890    0.00000000    0.00196403
     atom   19 type  4   force =     0.00000000    0.00000000    0.00222503
     atom   20 type  4   force =     0.00000000    0.00000000    0.00276272
     atom   21 type  3   force =    -0.00012179    0.00000000   -0.00222026
     atom   22 type  3   force =     0.00012179    0.00000000   -0.00222026
     atom   23 type  1   force =     0.00000000    0.00000000   -0.00660108
     atom   24 type  1   force =     0.00000000    0.00000000   -0.00754048
     atom   25 type  4   force =    -0.00097506    0.00000000    0.00655362
     atom   26 type  4   force =     0.00097506    0.00000000    0.00655362
     atom   27 type  4   force =    -0.00048608    0.00000000    0.01657392
     atom   28 type  4   force =     0.00048608    0.00000000    0.01657392
     atom   29 type  3   force =     0.00360777    0.00000000   -0.01710439
     atom   30 type  3   force =    -0.00360777    0.00000000   -0.01710439
     atom   31 type  4   force =    -0.01043527    0.00000000    0.03434896
     atom   32 type  4   force =     0.01043527    0.00000000    0.03434896
     atom   33 type  1   force =     0.00000000    0.00000000   -0.03380969
     atom   34 type  1   force =     0.00000000    0.00000000   -0.02099828
     atom   35 type  3   force =    -0.00946050    0.00000000   -0.00379627
     atom   36 type  3   force =     0.00946050    0.00000000   -0.00379627
     atom   37 type  4   force =     0.00000000    0.00000000    0.01157380
     atom   38 type  4   force =     0.00000000    0.00000000    0.01586814
     atom   39 type  4   force =     0.00213080    0.00000000    0.00806462
     atom   40 type  4   force =    -0.00213080    0.00000000    0.00806462
     atom   41 type  5   force =     0.00000000    0.00000000   -0.03814291
     atom   42 type  2   force =     0.00000000    0.00000000   -0.02943431
     atom   43 type  4   force =     0.00000000    0.00000000    0.00591458
     atom   44 type  4   force =     0.00047543    0.00000000    0.00294593
     atom   45 type  4   force =    -0.00047543    0.00000000    0.00294593
     atom   46 type  4   force =     0.00000000    0.00000000    0.00430958
     atom   47 type  3   force =     0.00056326    0.00000000    0.00111244
     atom   48 type  3   force =    -0.00056326    0.00000000    0.00111244
     atom   49 type  1   force =     0.00000000    0.00000000   -0.00091523
     atom   50 type  1   force =     0.00000000    0.00000000   -0.00108677
     atom   51 type  4   force =     0.00008413    0.00000000    0.00081327
     atom   52 type  4   force =    -0.00008413    0.00000000    0.00081327
     atom   53 type  3   force =    -0.00004470    0.00000000   -0.00036551
     atom   54 type  3   force =     0.00004470    0.00000000   -0.00036551
     atom   55 type  4   force =     0.00000049    0.00000000    0.00024937
     atom   56 type  4   force =    -0.00000049    0.00000000    0.00024937

     Total force =     0.093155     Total SCF correction =     0.000252


     Computing stress (Cartesian axis) and pressure


     negative rho (up, down):  9.199E-02 0.000E+00
          total   stress  (Ry/bohr**3)                   (kbar)     P=       -7.13
  -0.00008065   0.00000000   0.00000000          -11.86        0.00        0.00
   0.00000000  -0.00003723   0.00000000            0.00       -5.48        0.00
   0.00000000   0.00000000  -0.00002745            0.00        0.00       -4.04

 
     init_run     :     25.93s CPU     27.13s WALL (       1 calls)
     electrons    :   1794.75s CPU   1886.02s WALL (       1 calls)
     forces       :     10.77s CPU     11.47s WALL (       1 calls)
     stress       :     99.73s CPU    101.67s WALL (       1 calls)

     Called by init_run:
     wfcinit      :     21.27s CPU     21.76s WALL (       1 calls)
     potinit      :      1.02s CPU      1.05s WALL (       1 calls)
     hinit0       :      1.78s CPU      1.81s WALL (       1 calls)

     Called by electrons:
     c_bands      :   1495.16s CPU   1540.03s WALL (      36 calls)
     sum_band     :    231.23s CPU    256.68s WALL (      36 calls)
     v_of_rho     :      4.05s CPU      4.14s WALL (      37 calls)
     newd         :     29.51s CPU     50.55s WALL (      37 calls)
     mix_rho      :     35.24s CPU     35.62s WALL (      36 calls)

     Called by c_bands:
     init_us_2    :      9.05s CPU      9.13s WALL (    1875 calls)
     cegterg      :   1430.95s CPU   1474.61s WALL (     900 calls)

     Called by sum_band:
     sum_band:bec :      0.98s CPU      0.99s WALL (     900 calls)
     addusdens    :     33.29s CPU     56.37s WALL (      36 calls)

     Called by *egterg:
     h_psi        :    725.66s CPU    740.75s WALL (    4278 calls)
     s_psi        :    105.07s CPU    105.65s WALL (    4278 calls)
     g_psi        :      1.52s CPU      1.55s WALL (    3353 calls)
     cdiaghg      :    293.32s CPU    294.46s WALL (    4253 calls)

     Called by h_psi:
     h_psi:calbec :    115.73s CPU    116.29s WALL (    4278 calls)
     vloc_psi     :    501.61s CPU    508.58s WALL (    4278 calls)
     add_vuspsi   :    105.24s CPU    105.81s WALL (    4278 calls)

     General routines
     calbec       :    184.69s CPU    185.51s WALL (    5303 calls)
     fft          :      3.66s CPU      3.70s WALL (     504 calls)
     ffts         :     19.75s CPU     19.99s WALL (   20198 calls)
     fftw         :    576.82s CPU    584.64s WALL ( 1279814 calls)
     interpolate  :      0.32s CPU      0.33s WALL (      37 calls)
 
     Parallel routines
     fft_scatt_xy :     65.24s CPU     66.26s WALL ( 1300516 calls)
     fft_scatt_yz :    373.10s CPU    378.28s WALL ( 1300516 calls)
 
     PWSCF        :  32m12.54s CPU  33m47.73s WALL

 
   This run was terminated on:  17:11:28  25May2021            

=------------------------------------------------------------------------------=
   JOB DONE.
=------------------------------------------------------------------------------=
[1621977089.021633] [holy7c08511:159688:0]          mpool.c:43   UCX  WARN  object 0x33de600 was not returned to mpool ucp_requests
[1621977089.022163] [holy7c08511:159687:0]          mpool.c:43   UCX  WARN  object 0x32bda00 was not returned to mpool ucp_requests
[1621977089.022873] [holy7c08511:159685:0]          mpool.c:43   UCX  WARN  object 0x3163180 was not returned to mpool ucp_requests
[1621977089.022892] [holy7c08511:159685:0]          mpool.c:43   UCX  WARN  object 0x31636c0 was not returned to mpool ucp_requests
[1621977089.029995] [holy7c08504:91429:0]          mpool.c:43   UCX  WARN  object 0x347ad00 was not returned to mpool ucp_requests
[1621977089.029553] [holy7c08507:249057:0]          mpool.c:43   UCX  WARN  object 0x409bf00 was not returned to mpool ucp_requests
[1621977089.030485] [holy7c08504:91428:0]          mpool.c:43   UCX  WARN  object 0x3c17700 was not returned to mpool ucp_requests
[1621977089.030506] [holy7c08504:91428:0]          mpool.c:43   UCX  WARN  object 0x3c17a80 was not returned to mpool ucp_requests
[1621977089.028908] [holy7c08501:222216:0]          mpool.c:43   UCX  WARN  object 0x3b96a00 was not returned to mpool ucp_requests
[1621977089.028059] [holy7c08509:36944:0]          mpool.c:43   UCX  WARN  object 0x429e600 was not returned to mpool ucp_requests
[1621977089.031033] [holy7c08501:222218:0]          mpool.c:43   UCX  WARN  object 0x43e8b40 was not returned to mpool ucp_requests
[1621977089.031057] [holy7c08501:222218:0]          mpool.c:43   UCX  WARN  object 0x43e9240 was not returned to mpool ucp_requests
[1621977089.035790] [holy7c08507:249054:0]          mpool.c:43   UCX  WARN  object 0x292e5c0 was not returned to mpool ucp_requests
[1621977089.035809] [holy7c08507:249054:0]          mpool.c:43   UCX  WARN  object 0x292ecc0 was not returned to mpool ucp_requests
[1621977089.035129] [holy7c08509:36943:0]          mpool.c:43   UCX  WARN  object 0x43f8d40 was not returned to mpool ucp_requests
[1621977089.038998] [holy7c08509:36941:0]          mpool.c:43   UCX  WARN  object 0x3212a00 was not returned to mpool ucp_requests
[1621977089.039016] [holy7c08509:36941:0]          mpool.c:43   UCX  WARN  object 0x3213100 was not returned to mpool ucp_requests
[1621977089.044000] [holy7c08501:222217:0]          mpool.c:43   UCX  WARN  object 0x28390c0 was not returned to mpool ucp_requests
