
     Program PWSCF v.6.5 starts on 25May2021 at 14:24:48 

     This program is part of the open-source Quantum ESPRESSO suite
     for quantum simulation of materials; please cite
         "P. Giannozzi et al., J. Phys.:Condens. Matter 21 395502 (2009);
         "P. Giannozzi et al., J. Phys.:Condens. Matter 29 465901 (2017);
          URL http://www.quantum-espresso.org", 
     in publications or presentations arising from this work. More details at
     http://www.quantum-espresso.org/quote

     Parallel version (MPI), running on    32 processors

     MPI processes distributed on     5 nodes
     R & G space division:  proc/nbgrp/npool/nimage =      32
     Reading input from YCBCO50_212_BaO_cleave_1.0_sep.pwi
Warning: card &IONS ignored
Warning: card     ION_DYNAMICS = 'BFGS' ignored
Warning: card / ignored
Warning: card &CELL ignored
Warning: card     CELL_DYNAMICS = 'BFGS' ignored
Warning: card     PRESS_CONV_THR = 5 ignored
Warning: card / ignored

     Current dimensions of program PWSCF are:
     Max number of different atomic species (ntypx) = 10
     Max number of k-points (npk) =  40000
     Max angular momentum in pseudopotentials (lmaxx) =  3

     Subspace diagonalization in iterative solution of the eigenvalue problem:
     one sub-group per band group will be used
     scalapack distributed-memory algorithm (size of sub-group:  5*  5 procs)

     Message from routine setup:
     using ibrav=0 with symmetry is DISCOURAGED, use correct ibrav instead
 
     Parallelization info
     --------------------
     sticks:   dense  smooth     PW     G-vecs:    dense   smooth      PW
     Min         188      62     17                90874    17478    2607
     Max         189      63     18                90902    17523    2646
     Sum        6019    2003    565              2908509   560041   84211
 


     bravais-lattice index     =            0
     lattice parameter (alat)  =      14.8133  a.u.
     unit-cell volume          =    8915.2456 (a.u.)^3
     number of atoms/cell      =           56
     number of atomic types    =            5
     number of electrons       =       456.00
     number of Kohn-Sham states=          274
     kinetic-energy cutoff     =      60.0000  Ry
     charge density cutoff     =     720.0000  Ry
     convergence threshold     =      1.0E-08
     mixing beta               =       0.5000
     number of iterations used =           10  local-TF  mixing
     Exchange-correlation= SLA PW PBE PBE
                           (   1   4   3   4   0   0   0)

     celldm(1)=  14.813271  celldm(2)=   0.000000  celldm(3)=   0.000000
     celldm(4)=   0.000000  celldm(5)=   0.000000  celldm(6)=   0.000000

     crystal axes: (cart. coord. in units of alat)
               a(1) = (   1.000000   0.000000   0.000000 )  
               a(2) = (   0.000000   0.477453   0.000000 )  
               a(3) = (   0.000000   0.000000   5.744471 )  

     reciprocal axes: (cart. coord. in units 2 pi/alat)
               b(1) = (  1.000000  0.000000  0.000000 )  
               b(2) = (  0.000000  2.094448  0.000000 )  
               b(3) = (  0.000000  0.000000  0.174080 )  


     PseudoPot. # 1 for Ba read from file:
     ./pseudo/Ba.pbe-nsp-van.UPF
     MD5 check sum: 2b9c31dd849566dd297d80989662b7a0
     Pseudo is Ultrasoft + core correction, Zval = 10.0
     Generated by new atomic code, or converted to UPF format
     Using radial grid of  907 points,  6 beta functions with: 
                l(1) =   0
                l(2) =   0
                l(3) =   1
                l(4) =   1
                l(5) =   2
                l(6) =   2
     Q(r) pseudized with  6 coefficients,  rinner =    1.200   1.200   1.200
                                                       1.200   1.200

     PseudoPot. # 2 for Ca read from file:
     ./pseudo/Ca.pbe-nsp-van.UPF
     MD5 check sum: 6471098428ff4fa451746d08035ff179
     Pseudo is Ultrasoft + core correction, Zval = 10.0
     Generated by new atomic code, or converted to UPF format
     Using radial grid of  845 points,  6 beta functions with: 
                l(1) =   0
                l(2) =   0
                l(3) =   1
                l(4) =   1
                l(5) =   2
                l(6) =   2
     Q(r) pseudized with  6 coefficients,  rinner =    1.200   1.200   1.200
                                                       1.200   1.200

     PseudoPot. # 3 for Cu read from file:
     ./pseudo/Cu.pbe-n-van_ak.UPF
     MD5 check sum: 34e3282627ffb533726feb647e090d62
     Pseudo is Ultrasoft + core correction, Zval = 11.0
     Generated by new atomic code, or converted to UPF format
     Using radial grid of  867 points,  6 beta functions with: 
                l(1) =   0
                l(2) =   0
                l(3) =   1
                l(4) =   1
                l(5) =   2
                l(6) =   2
     Q(r) pseudized with  8 coefficients,  rinner =    1.400   1.400   1.400
                                                       1.400   1.400

     PseudoPot. # 4 for O  read from file:
     ./pseudo/O.pbe-van_ak.UPF
     MD5 check sum: 783ce7fe4c79b6a4916957118fed0856
     Pseudo is Ultrasoft, Zval =  6.0
     Generated by new atomic code, or converted to UPF format
     Using radial grid of  737 points,  4 beta functions with: 
                l(1) =   0
                l(2) =   0
                l(3) =   1
                l(4) =   1
     Q(r) pseudized with  8 coefficients,  rinner =    0.800   0.800   0.800


     PseudoPot. # 5 for Y  read from file:
     ./pseudo/Y.pbe-nsp-van.UPF
     MD5 check sum: 4412fed3ab108fed87a1b7d6a69a4a38
     Pseudo is Ultrasoft + core correction, Zval = 11.0
     Generated by new atomic code, or converted to UPF format
     Using radial grid of  885 points,  6 beta functions with: 
                l(1) =   0
                l(2) =   0
                l(3) =   1
                l(4) =   1
                l(5) =   2
                l(6) =   2
     Q(r) pseudized with  6 coefficients,  rinner =    1.200   1.200   1.200
                                                       1.200   1.200

     atomic species   valence    mass     pseudopotential
        Ba            10.00   137.32700     Ba( 1.00)
        Ca            10.00    40.07800     Ca( 1.00)
        Cu            11.00    63.54600     Cu( 1.00)
        O              6.00    15.99900     O ( 1.00)
        Y             11.00    88.90584     Y ( 1.00)

      4 Sym. Ops. (no inversion) found ( 2 have fractional translation)



   Cartesian axes

     site n.     atom                  positions (alat units)
         1           O   tau(   1) = (  -0.0008343   0.2387265  -0.0222443  )
         2           O   tau(   2) = (   0.5008340   0.2387265  -0.0222443  )
         3           Cu  tau(   3) = (   0.5017257   0.0000000   0.0109608  )
         4           Cu  tau(   4) = (  -0.0017260   0.0000000   0.0109608  )
         5           O   tau(   5) = (  -0.0028933   0.0000000   0.2506504  )
         6           O   tau(   6) = (   0.5028929   0.0000000   0.2506504  )
         7           Ba  tau(   7) = (   0.7499995   0.2387265   0.2749435  )
         8           Ba  tau(   8) = (   0.2499998   0.2387265   0.2755214  )
         9           Cu  tau(   9) = (   0.4980963   0.0000000   0.5208446  )
        10           Cu  tau(  10) = (   0.0019033   0.0000000   0.5208446  )
        11           O   tau(  11) = (   0.2499998   0.0000000   0.5341884  )
        12           O   tau(  12) = (   0.5083351   0.2387265   0.5569851  )
        13           O   tau(  13) = (  -0.0083354   0.2387265   0.5569851  )
        14           O   tau(  14) = (   0.7499995   0.0000000   0.5573831  )
        15           Ca  tau(  15) = (   0.2499998   0.2387265   0.7436937  )
        16           Y   tau(  16) = (   0.7499995   0.2387265   0.7469544  )
        17           O   tau(  17) = (  -0.0063798   0.2387265   0.9248530  )
        18           O   tau(  18) = (   0.5063794   0.2387265   0.9248530  )
        19           O   tau(  19) = (   0.7499995   0.0000000   0.9338544  )
        20           O   tau(  20) = (   0.2499998   0.0000000   0.9461329  )
        21           Cu  tau(  21) = (   0.0015717   0.0000000   0.9686860  )
        22           Cu  tau(  22) = (   0.4984280   0.0000000   0.9686860  )
        23           Ba  tau(  23) = (   0.2499998   0.2387265   1.2085224  )
        24           Ba  tau(  24) = (   0.7499995   0.2387265   1.2233294  )
        25           O   tau(  25) = (   0.0063772   0.0000000   1.2547537  )
        26           O   tau(  26) = (   0.4936224   0.0000000   1.2547537  )
        27           O   tau(  27) = (   0.5384045   0.2387265   1.4952521  )
        28           O   tau(  28) = (  -0.0384049   0.2387265   1.4952521  )
        29           Cu  tau(  29) = (   0.5006120   0.0000000   1.4952546  )
        30           Cu  tau(  30) = (  -0.0006123   0.0000000   1.4952546  )
        31           O   tau(  31) = (   0.4936212   0.0000000   1.7357531  )
        32           O   tau(  32) = (   0.0063785   0.0000000   1.7357531  )
        33           Ba  tau(  33) = (   0.7499995   0.2387265   1.7671824  )
        34           Ba  tau(  34) = (   0.2499998   0.2387265   1.7819920  )
        35           Cu  tau(  35) = (   0.4984280   0.0000000   2.1493930  )
        36           Cu  tau(  36) = (   0.0015717   0.0000000   2.1493930  )
        37           O   tau(  37) = (   0.2499998   0.0000000   2.1719512  )
        38           O   tau(  38) = (   0.7499995   0.0000000   2.1842209  )
        39           O   tau(  39) = (   0.5063781   0.2387265   2.1932260  )
        40           O   tau(  40) = (  -0.0063785   0.2387265   2.1932260  )
        41           Y   tau(  41) = (   0.7499995   0.2387265   2.3711196  )
        42           Ca  tau(  42) = (   0.2499998   0.2387265   2.3743892  )
        43           O   tau(  43) = (   0.7499995   0.0000000   2.5606870  )
        44           O   tau(  44) = (  -0.0083354   0.2387265   2.5610889  )
        45           O   tau(  45) = (   0.5083351   0.2387265   2.5610889  )
        46           O   tau(  46) = (   0.2499998   0.0000000   2.5838869  )
        47           Cu  tau(  47) = (   0.0019059   0.0000000   2.5972205  )
        48           Cu  tau(  48) = (   0.4980938   0.0000000   2.5972205  )
        49           Ba  tau(  49) = (   0.2499998   0.2387265   2.8425602  )
        50           Ba  tau(  50) = (   0.7499995   0.2387265   2.8431023  )
        51           O   tau(  51) = (  -0.0028895   0.0000000   2.8674095  )
        52           O   tau(  52) = (   0.5028891   0.0000000   2.8674095  )
        53           Cu  tau(  53) = (   0.5017844   0.0000000   3.1070940  )
        54           Cu  tau(  54) = (  -0.0017847   0.0000000   3.1070940  )
        55           O   tau(  55) = (   0.5008990   0.2387265   3.1403004  )
        56           O   tau(  56) = (  -0.0008994   0.2387265   3.1403004  )

     number of k points=    25  Gaussian smearing, width (Ry)=  0.0100
                       cart. coord. in units 2pi/alat
        k(    1) = (   0.0000000   0.0000000   0.0000000), wk =   0.0312500
        k(    2) = (   0.0000000   0.2618060   0.0000000), wk =   0.0625000
        k(    3) = (   0.0000000   0.5236121   0.0000000), wk =   0.0625000
        k(    4) = (   0.0000000   0.7854181   0.0000000), wk =   0.0625000
        k(    5) = (   0.0000000  -1.0472241   0.0000000), wk =   0.0312500
        k(    6) = (   0.1250000   0.0000000   0.0000000), wk =   0.0625000
        k(    7) = (   0.1250000   0.2618060   0.0000000), wk =   0.1250000
        k(    8) = (   0.1250000   0.5236121   0.0000000), wk =   0.1250000
        k(    9) = (   0.1250000   0.7854181   0.0000000), wk =   0.1250000
        k(   10) = (   0.1250000  -1.0472241   0.0000000), wk =   0.0625000
        k(   11) = (   0.2500000   0.0000000   0.0000000), wk =   0.0625000
        k(   12) = (   0.2500000   0.2618060   0.0000000), wk =   0.1250000
        k(   13) = (   0.2500000   0.5236121   0.0000000), wk =   0.1250000
        k(   14) = (   0.2500000   0.7854181   0.0000000), wk =   0.1250000
        k(   15) = (   0.2500000  -1.0472241   0.0000000), wk =   0.0625000
        k(   16) = (   0.3750000   0.0000000   0.0000000), wk =   0.0625000
        k(   17) = (   0.3750000   0.2618060   0.0000000), wk =   0.1250000
        k(   18) = (   0.3750000   0.5236121   0.0000000), wk =   0.1250000
        k(   19) = (   0.3750000   0.7854181   0.0000000), wk =   0.1250000
        k(   20) = (   0.3750000  -1.0472241   0.0000000), wk =   0.0625000
        k(   21) = (  -0.5000000   0.0000000   0.0000000), wk =   0.0312500
        k(   22) = (  -0.5000000   0.2618060   0.0000000), wk =   0.0625000
        k(   23) = (  -0.5000000   0.5236121   0.0000000), wk =   0.0625000
        k(   24) = (  -0.5000000   0.7854181   0.0000000), wk =   0.0625000
        k(   25) = (  -0.5000000  -1.0472241   0.0000000), wk =   0.0312500

     Dense  grid:  2908509 G-vectors     FFT dimensions: ( 128,  64, 729)

     Smooth grid:   560041 G-vectors     FFT dimensions: (  80,  36, 432)

     Estimated max dynamical RAM per process >     842.52 MB

     Estimated total dynamical RAM >      26.33 GB

     Initial potential from superposition of free atoms

     starting charge  455.69457, renormalised to  456.00000

     negative rho (up, down):  9.336E-02 0.000E+00
     Starting wfcs are  396 randomized atomic wfcs

     total cpu time spent up to now is       26.7 secs

     Self-consistent Calculation

     iteration #  1     ecut=    60.00 Ry     beta= 0.50
     Davidson diagonalization with overlap
     ethr =  1.00E-02,  avg # of iterations =  2.0

     negative rho (up, down):  8.620E-02 0.000E+00

     total cpu time spent up to now is       72.7 secs

     total energy              =   -3708.32450726 Ry
     Harris-Foulkes estimate   =   -3716.48125455 Ry
     estimated scf accuracy    <      31.05704898 Ry

     iteration #  2     ecut=    60.00 Ry     beta= 0.50
     Davidson diagonalization with overlap
     ethr =  6.81E-03,  avg # of iterations =  2.0

     negative rho (up, down):  8.594E-02 0.000E+00

     total cpu time spent up to now is      118.6 secs

     total energy              =   -3711.10279618 Ry
     Harris-Foulkes estimate   =   -3712.39969016 Ry
     estimated scf accuracy    <       7.88337465 Ry

     iteration #  3     ecut=    60.00 Ry     beta= 0.50
     Davidson diagonalization with overlap
     ethr =  1.73E-03,  avg # of iterations =  1.6

     negative rho (up, down):  8.641E-02 0.000E+00

     total cpu time spent up to now is      162.0 secs

     total energy              =   -3711.67077399 Ry
     Harris-Foulkes estimate   =   -3711.98147508 Ry
     estimated scf accuracy    <       6.63810244 Ry

     iteration #  4     ecut=    60.00 Ry     beta= 0.50
     Davidson diagonalization with overlap
     ethr =  1.46E-03,  avg # of iterations =  1.0

     negative rho (up, down):  8.725E-02 0.000E+00

     total cpu time spent up to now is      203.8 secs

     total energy              =   -3711.72460477 Ry
     Harris-Foulkes estimate   =   -3711.83183222 Ry
     estimated scf accuracy    <       1.34435796 Ry

     iteration #  5     ecut=    60.00 Ry     beta= 0.50
     Davidson diagonalization with overlap
     ethr =  2.95E-04,  avg # of iterations =  4.6

     negative rho (up, down):  8.845E-02 0.000E+00

     total cpu time spent up to now is      255.7 secs

     total energy              =   -3711.71043280 Ry
     Harris-Foulkes estimate   =   -3711.80181046 Ry
     estimated scf accuracy    <       3.36609340 Ry

     iteration #  6     ecut=    60.00 Ry     beta= 0.50
     Davidson diagonalization with overlap
     ethr =  2.95E-04,  avg # of iterations =  1.4

     negative rho (up, down):  8.912E-02 0.000E+00

     total cpu time spent up to now is      299.1 secs

     total energy              =   -3711.73025225 Ry
     Harris-Foulkes estimate   =   -3711.74802561 Ry
     estimated scf accuracy    <       1.12325037 Ry

     iteration #  7     ecut=    60.00 Ry     beta= 0.50
     Davidson diagonalization with overlap
     ethr =  2.46E-04,  avg # of iterations =  2.0

     negative rho (up, down):  8.984E-02 0.000E+00

     total cpu time spent up to now is      344.6 secs

     total energy              =   -3711.72524380 Ry
     Harris-Foulkes estimate   =   -3711.74112097 Ry
     estimated scf accuracy    <       0.85777216 Ry

     iteration #  8     ecut=    60.00 Ry     beta= 0.50
     Davidson diagonalization with overlap
     ethr =  1.88E-04,  avg # of iterations =  4.0

     negative rho (up, down):  9.039E-02 0.000E+00

     total cpu time spent up to now is      395.1 secs

     total energy              =   -3711.71856388 Ry
     Harris-Foulkes estimate   =   -3711.73512360 Ry
     estimated scf accuracy    <       0.83202308 Ry

     iteration #  9     ecut=    60.00 Ry     beta= 0.50
     Davidson diagonalization with overlap
     ethr =  1.82E-04,  avg # of iterations =  2.2

     negative rho (up, down):  9.046E-02 0.000E+00

     total cpu time spent up to now is      440.1 secs

     total energy              =   -3711.71584701 Ry
     Harris-Foulkes estimate   =   -3711.72424682 Ry
     estimated scf accuracy    <       0.27309872 Ry

     iteration # 10     ecut=    60.00 Ry     beta= 0.50
     Davidson diagonalization with overlap
     ethr =  5.99E-05,  avg # of iterations = 10.5

     negative rho (up, down):  9.025E-02 0.000E+00

     total cpu time spent up to now is      511.5 secs

     total energy              =   -3711.70751687 Ry
     Harris-Foulkes estimate   =   -3711.71799445 Ry
     estimated scf accuracy    <       0.17484722 Ry

     iteration # 11     ecut=    60.00 Ry     beta= 0.50
     Davidson diagonalization with overlap
     ethr =  3.83E-05,  avg # of iterations =  5.0

     negative rho (up, down):  8.992E-02 0.000E+00

     total cpu time spent up to now is      564.7 secs

     total energy              =   -3711.70767441 Ry
     Harris-Foulkes estimate   =   -3711.70994341 Ry
     estimated scf accuracy    <       0.06062711 Ry

     iteration # 12     ecut=    60.00 Ry     beta= 0.50
     Davidson diagonalization with overlap
     ethr =  1.33E-05,  avg # of iterations =  7.4

     negative rho (up, down):  8.973E-02 0.000E+00

     total cpu time spent up to now is      625.1 secs

     total energy              =   -3711.70700160 Ry
     Harris-Foulkes estimate   =   -3711.70834077 Ry
     estimated scf accuracy    <       0.05415432 Ry

     iteration # 13     ecut=    60.00 Ry     beta= 0.50
     Davidson diagonalization with overlap
     ethr =  1.19E-05,  avg # of iterations =  1.9

     negative rho (up, down):  9.434E-02 0.000E+00

     total cpu time spent up to now is      669.2 secs

     total energy              =   -3711.70465858 Ry
     Harris-Foulkes estimate   =   -3711.70724706 Ry
     estimated scf accuracy    <       0.04962479 Ry

     iteration # 14     ecut=    60.00 Ry     beta= 0.50
     Davidson diagonalization with overlap
     ethr =  1.09E-05,  avg # of iterations =  4.5

     negative rho (up, down):  9.754E-02 0.000E+00

     total cpu time spent up to now is      720.1 secs

     total energy              =   -3711.70333578 Ry
     Harris-Foulkes estimate   =   -3711.70496005 Ry
     estimated scf accuracy    <       0.04188887 Ry

     iteration # 15     ecut=    60.00 Ry     beta= 0.50
     Davidson diagonalization with overlap
     c_bands:  4 eigenvalues not converged
     ethr =  9.19E-06,  avg # of iterations =  5.7

     negative rho (up, down):  1.101E-01 0.000E+00

     total cpu time spent up to now is      774.3 secs

     total energy              =   -3711.70140672 Ry
     Harris-Foulkes estimate   =   -3711.70354507 Ry
     estimated scf accuracy    <       0.03692230 Ry

     iteration # 16     ecut=    60.00 Ry     beta= 0.50
     Davidson diagonalization with overlap
     ethr =  8.10E-06,  avg # of iterations =  8.8

     negative rho (up, down):  1.238E-01 0.000E+00

     total cpu time spent up to now is      840.0 secs

     total energy              =   -3711.69946029 Ry
     Harris-Foulkes estimate   =   -3711.70152454 Ry
     estimated scf accuracy    <       0.02680181 Ry

     iteration # 17     ecut=    60.00 Ry     beta= 0.50
     Davidson diagonalization with overlap
     ethr =  5.88E-06,  avg # of iterations = 10.0

     negative rho (up, down):  1.236E-01 0.000E+00

     total cpu time spent up to now is      909.8 secs

     total energy              =   -3711.69862902 Ry
     Harris-Foulkes estimate   =   -3711.69960462 Ry
     estimated scf accuracy    <       0.01890844 Ry

     iteration # 18     ecut=    60.00 Ry     beta= 0.50
     Davidson diagonalization with overlap
     c_bands:  1 eigenvalues not converged
     ethr =  4.15E-06,  avg # of iterations =  9.8

     negative rho (up, down):  1.111E-01 0.000E+00

     total cpu time spent up to now is      979.1 secs

     total energy              =   -3711.69837378 Ry
     Harris-Foulkes estimate   =   -3711.69880670 Ry
     estimated scf accuracy    <       0.00643117 Ry

     iteration # 19     ecut=    60.00 Ry     beta= 0.50
     Davidson diagonalization with overlap
     ethr =  1.41E-06,  avg # of iterations =  6.4

     negative rho (up, down):  9.740E-02 0.000E+00

     total cpu time spent up to now is     1036.6 secs

     total energy              =   -3711.69812839 Ry
     Harris-Foulkes estimate   =   -3711.69844546 Ry
     estimated scf accuracy    <       0.00184112 Ry

     iteration # 20     ecut=    60.00 Ry     beta= 0.50
     Davidson diagonalization with overlap
     c_bands:  1 eigenvalues not converged
     c_bands:  1 eigenvalues not converged
     c_bands:  1 eigenvalues not converged
     c_bands:  1 eigenvalues not converged
     ethr =  4.04E-07,  avg # of iterations = 10.7

     negative rho (up, down):  9.206E-02 0.000E+00

     total cpu time spent up to now is     1108.0 secs

     total energy              =   -3711.69814591 Ry
     Harris-Foulkes estimate   =   -3711.69817808 Ry
     estimated scf accuracy    <       0.00134246 Ry

     iteration # 21     ecut=    60.00 Ry     beta= 0.50
     Davidson diagonalization with overlap
     c_bands:  1 eigenvalues not converged
     c_bands:  1 eigenvalues not converged
     c_bands:  1 eigenvalues not converged
     c_bands:  1 eigenvalues not converged
     c_bands:  1 eigenvalues not converged
     c_bands:  2 eigenvalues not converged
     ethr =  2.94E-07,  avg # of iterations = 11.8

     negative rho (up, down):  9.390E-02 0.000E+00

     total cpu time spent up to now is     1181.2 secs

     total energy              =   -3711.69814511 Ry
     Harris-Foulkes estimate   =   -3711.69817394 Ry
     estimated scf accuracy    <       0.00047175 Ry

     iteration # 22     ecut=    60.00 Ry     beta= 0.50
     Davidson diagonalization with overlap
     ethr =  1.03E-07,  avg # of iterations =  6.5

     negative rho (up, down):  9.304E-02 0.000E+00

     total cpu time spent up to now is     1238.5 secs

     total energy              =   -3711.69815946 Ry
     Harris-Foulkes estimate   =   -3711.69815597 Ry
     estimated scf accuracy    <       0.00006187 Ry

     iteration # 23     ecut=    60.00 Ry     beta= 0.50
     Davidson diagonalization with overlap
     c_bands:  1 eigenvalues not converged
     ethr =  1.36E-08,  avg # of iterations =  5.6

     negative rho (up, down):  9.198E-02 0.000E+00

     total cpu time spent up to now is     1292.7 secs

     total energy              =   -3711.69815038 Ry
     Harris-Foulkes estimate   =   -3711.69816459 Ry
     estimated scf accuracy    <       0.00011971 Ry

     iteration # 24     ecut=    60.00 Ry     beta= 0.50
     Davidson diagonalization with overlap
     c_bands:  1 eigenvalues not converged
     ethr =  1.36E-08,  avg # of iterations =  5.9

     negative rho (up, down):  9.204E-02 0.000E+00

     total cpu time spent up to now is     1347.5 secs

     total energy              =   -3711.69815154 Ry
     Harris-Foulkes estimate   =   -3711.69815267 Ry
     estimated scf accuracy    <       0.00004827 Ry

     iteration # 25     ecut=    60.00 Ry     beta= 0.50
     Davidson diagonalization with overlap
     ethr =  1.06E-08,  avg # of iterations =  1.2

     negative rho (up, down):  9.206E-02 0.000E+00

     total cpu time spent up to now is     1389.4 secs

     total energy              =   -3711.69815038 Ry
     Harris-Foulkes estimate   =   -3711.69815258 Ry
     estimated scf accuracy    <       0.00003021 Ry

     iteration # 26     ecut=    60.00 Ry     beta= 0.50
     Davidson diagonalization with overlap
     ethr =  6.63E-09,  avg # of iterations =  1.0

     negative rho (up, down):  9.191E-02 0.000E+00

     total cpu time spent up to now is     1431.0 secs

     total energy              =   -3711.69815105 Ry
     Harris-Foulkes estimate   =   -3711.69815132 Ry
     estimated scf accuracy    <       0.00000472 Ry

     iteration # 27     ecut=    60.00 Ry     beta= 0.50
     Davidson diagonalization with overlap
     ethr =  1.04E-09,  avg # of iterations =  1.8

     negative rho (up, down):  9.195E-02 0.000E+00

     total cpu time spent up to now is     1475.0 secs

     total energy              =   -3711.69815136 Ry
     Harris-Foulkes estimate   =   -3711.69815137 Ry
     estimated scf accuracy    <       0.00000379 Ry

     iteration # 28     ecut=    60.00 Ry     beta= 0.50
     Davidson diagonalization with overlap
     ethr =  8.31E-10,  avg # of iterations =  1.0

     negative rho (up, down):  9.205E-02 0.000E+00

     total cpu time spent up to now is     1516.6 secs

     total energy              =   -3711.69815142 Ry
     Harris-Foulkes estimate   =   -3711.69815147 Ry
     estimated scf accuracy    <       0.00000308 Ry

     iteration # 29     ecut=    60.00 Ry     beta= 0.50
     Davidson diagonalization with overlap
     ethr =  6.76E-10,  avg # of iterations =  1.0

     negative rho (up, down):  9.201E-02 0.000E+00

     total cpu time spent up to now is     1558.1 secs

     total energy              =   -3711.69815151 Ry
     Harris-Foulkes estimate   =   -3711.69815148 Ry
     estimated scf accuracy    <       0.00000070 Ry

     iteration # 30     ecut=    60.00 Ry     beta= 0.50
     Davidson diagonalization with overlap
     ethr =  1.55E-10,  avg # of iterations =  1.9

     negative rho (up, down):  9.197E-02 0.000E+00

     total cpu time spent up to now is     1601.8 secs

     total energy              =   -3711.69815158 Ry
     Harris-Foulkes estimate   =   -3711.69815153 Ry
     estimated scf accuracy    <       0.00000068 Ry

     iteration # 31     ecut=    60.00 Ry     beta= 0.50
     Davidson diagonalization with overlap
     ethr =  1.49E-10,  avg # of iterations =  1.0

     negative rho (up, down):  9.196E-02 0.000E+00

     total cpu time spent up to now is     1643.5 secs

     total energy              =   -3711.69815160 Ry
     Harris-Foulkes estimate   =   -3711.69815159 Ry
     estimated scf accuracy    <       0.00000025 Ry

     iteration # 32     ecut=    60.00 Ry     beta= 0.50
     Davidson diagonalization with overlap
     ethr =  5.50E-11,  avg # of iterations =  1.6

     negative rho (up, down):  9.198E-02 0.000E+00

     total cpu time spent up to now is     1686.5 secs

     total energy              =   -3711.69815157 Ry
     Harris-Foulkes estimate   =   -3711.69815160 Ry
     estimated scf accuracy    <       0.00000011 Ry

     iteration # 33     ecut=    60.00 Ry     beta= 0.50
     Davidson diagonalization with overlap
     ethr =  2.34E-11,  avg # of iterations =  1.3

     negative rho (up, down):  9.200E-02 0.000E+00

     total cpu time spent up to now is     1729.0 secs

     total energy              =   -3711.69815155 Ry
     Harris-Foulkes estimate   =   -3711.69815157 Ry
     estimated scf accuracy    <       0.00000002 Ry

     iteration # 34     ecut=    60.00 Ry     beta= 0.50
     Davidson diagonalization with overlap
     ethr =  3.48E-12,  avg # of iterations =  3.4

     negative rho (up, down):  9.200E-02 0.000E+00

     total cpu time spent up to now is     1781.6 secs

     total energy              =   -3711.69815155 Ry
     Harris-Foulkes estimate   =   -3711.69815155 Ry
     estimated scf accuracy    <       0.00000002 Ry

     iteration # 35     ecut=    60.00 Ry     beta= 0.50
     Davidson diagonalization with overlap
     ethr =  3.48E-12,  avg # of iterations =  1.0

     negative rho (up, down):  9.198E-02 0.000E+00

     total cpu time spent up to now is     1822.5 secs

     End of self-consistent calculation

          k = 0.0000 0.0000 0.0000 ( 70025 PWs)   bands (ev):

   -38.0620 -37.8594 -35.6891 -35.4553 -23.4892 -23.2104 -22.8507 -22.8354
   -22.7224 -22.7075 -22.6277 -22.4769 -18.5373 -18.4330 -18.3073 -18.2443
   -18.0651 -17.8706 -17.0372 -16.9019 -16.7752 -16.7187 -16.6844 -16.4957
   -15.4481 -15.2749 -15.0287 -14.9888 -14.9802 -14.8590 -14.6944 -14.5931
   -14.5826 -14.5158 -14.5073 -14.4882 -14.3822 -14.3480 -14.2768 -14.1371
   -14.0803 -14.0639 -14.0305 -14.0220 -14.0155 -14.0111 -14.0037 -13.9723
   -13.9241 -13.7284 -13.7018 -13.6195 -13.5221 -13.5129  -8.8154  -8.4898
    -8.3122  -8.2435  -8.0887  -8.0700  -8.0559  -7.9810  -7.9805  -7.9641
    -7.9002  -7.9002  -7.8863  -7.8102  -7.7620  -7.7471  -7.6657  -7.6517
    -7.6214  -7.5240  -7.5091  -7.5021  -7.4355  -7.2801  -3.0187  -2.9902
    -2.8485  -2.5689  -2.2072  -2.1992  -2.1202  -2.1162  -2.0766  -1.9840
    -1.9780  -1.9651  -1.9073  -1.8724  -1.8356  -1.8116  -1.7355  -1.6989
    -1.6654  -1.6490  -1.6121  -1.5775  -1.5651  -1.5295  -1.4981  -1.3805
    -1.3641  -1.2340  -1.2125  -1.1394  -1.0639  -1.0423  -0.9564  -0.9558
    -0.9551  -0.9536  -0.9528  -0.9466  -0.9119  -0.8522  -0.8199  -0.8034
    -0.7872  -0.7537  -0.7282  -0.7249  -0.6670  -0.6532  -0.6401  -0.5803
    -0.4969  -0.3893  -0.3643  -0.3162  -0.2888  -0.2859  -0.2182  -0.1879
    -0.1696  -0.1658  -0.1652  -0.1619  -0.1322  -0.1009  -0.0357  -0.0274
     0.0139   0.0193   0.0236   0.0275   0.0580   0.0669   0.0793   0.1431
     0.1437   0.1491   0.1564   0.1757   0.2109   0.2378   0.2395   0.2640
     0.2655   0.2768   0.2787   0.3528   0.3798   0.3821   0.3917   0.4886
     0.5306   0.5503   0.5541   0.5552   0.5658   0.5715   0.5813   0.5913
     0.6384   0.7046   0.7079   0.7972   0.9001   0.9315   0.9907   1.0083
     1.0208   1.0602   1.0636   1.0812   1.0980   1.1575   1.1700   1.2153
     1.2319   1.2412   1.2544   1.2979   1.3150   1.3573   1.3584   1.4137
     1.4193   1.4284   1.4369   1.4458   1.5204   1.5737   1.6073   1.6347
     1.6360   1.7346   1.7378   1.7875   1.7988   1.8093   1.8231   1.8518
     1.8754   1.9208   1.9535   2.0009   2.0295   2.0331   2.0817   2.0838
     2.1631   2.1896   2.2786   2.2904   2.3184   2.3286   2.3508   2.4703
     2.5973   2.6014   2.6273   2.6328   2.8788   2.8908   5.1590   5.2501
     5.3471   5.9082   5.9656   6.1968   6.6398   6.6701   6.7260   7.1154
     7.2685   7.2978   7.3089   7.3901   7.3914   7.5660   7.7680   7.9962
     8.0811   8.1262   8.1621   8.1652   8.3182   8.3358   8.4525   8.5015
     8.5216   8.6020   8.6423   8.7179   8.8492   8.9985   9.0521   9.1758
     9.1905   9.2254

          k = 0.0000 0.2618 0.0000 ( 69989 PWs)   bands (ev):

   -38.0593 -37.8567 -35.6874 -35.4536 -23.4698 -23.1926 -22.8262 -22.8108
   -22.7033 -22.6884 -22.6042 -22.4582 -18.4986 -18.4257 -18.2684 -18.2370
   -18.1760 -17.9816 -17.0077 -16.8975 -16.7848 -16.7454 -16.6800 -16.5616
   -15.3420 -15.1763 -14.9679 -14.9252 -14.9229 -14.8113 -14.6559 -14.5912
   -14.5471 -14.5126 -14.4793 -14.4291 -14.3180 -14.3111 -14.2513 -14.1330
   -14.0855 -14.0745 -14.0460 -14.0190 -14.0077 -14.0039 -13.9879 -13.9622
   -13.9351 -13.7700 -13.7026 -13.6741 -13.5813 -13.5386  -8.8014  -8.4771
    -8.3242  -8.3175  -8.1529  -8.1260  -8.0820  -8.0638  -7.9935  -7.9776
    -7.9109  -7.8565  -7.8429  -7.8057  -7.7981  -7.7975  -7.7891  -7.7833
    -7.7312  -7.7167  -7.6054  -7.5439  -7.5280  -7.4935  -3.1187  -3.0739
    -2.9105  -2.6199  -2.3253  -2.2988  -2.2279  -2.2195  -2.2095  -2.0958
    -2.0853  -2.0364  -1.9950  -1.9839  -1.9493  -1.9467  -1.9297  -1.9204
    -1.8675  -1.7971  -1.7288  -1.6656  -1.6447  -1.6087  -1.5639  -1.4907
    -1.4057  -1.4005  -1.3906  -1.3830  -1.3704  -1.3685  -1.3556  -1.3193
    -1.2854  -1.2712  -1.0760  -1.0095  -0.9963  -0.8145  -0.8140  -0.7743
    -0.7408  -0.7047  -0.6786  -0.6720  -0.6250  -0.5859  -0.5457  -0.5252
    -0.4927  -0.4344  -0.4000  -0.3806  -0.3759  -0.3303  -0.3142  -0.3058
    -0.2827  -0.2781  -0.2252  -0.1730  -0.1435  -0.1327  -0.1221  -0.0983
    -0.0569  -0.0195   0.0107   0.0265   0.0284   0.0901   0.1191   0.1427
     0.1762   0.1849   0.2029   0.2076   0.2655   0.2803   0.3026   0.3028
     0.3528   0.3568   0.3740   0.4071   0.4075   0.4188   0.4279   0.4535
     0.4775   0.4901   0.5766   0.5770   0.5963   0.6824   0.6830   0.7067
     0.7472   0.8070   0.8395   0.8694   0.8894   0.9374   0.9999   1.0157
     1.0593   1.0616   1.1520   1.1602   1.1677   1.1965   1.2049   1.2317
     1.2525   1.2787   1.3111   1.3390   1.3740   1.4052   1.4188   1.4429
     1.4702   1.4795   1.4984   1.5079   1.5320   1.5632   1.5668   1.5732
     1.6390   1.7181   1.7336   1.7541   1.7619   1.7807   1.8494   1.8553
     1.8778   1.9134   1.9183   1.9528   1.9920   2.0011   2.0729   2.1397
     2.1806   2.1974   2.3515   2.4116   2.8255   2.8384   2.8632   2.8965
     2.9276   2.9767   3.0136   3.0389   3.2125   3.2725   5.4834   5.6313
     5.6548   6.2016   6.2431   6.3121   6.8878   6.9714   6.9981   7.1321
     7.1393   7.2170   7.3036   7.6094   7.6801   7.7476   7.7853   7.9234
     7.9512   7.9809   8.2111   8.2923   8.3325   8.4627   8.5172   8.6472
     8.7217   8.7610   8.8470   8.8821   8.9087   9.1069   9.1282   9.1723
     9.2775   9.2889

          k = 0.0000 0.5236 0.0000 ( 69935 PWs)   bands (ev):

   -38.0528 -37.8502 -35.6833 -35.4494 -23.4223 -23.1488 -22.7656 -22.7502
   -22.6565 -22.6416 -22.5462 -22.4121 -18.4162 -18.4082 -18.3989 -18.2221
   -18.2195 -18.1679 -16.9375 -16.9247 -16.8871 -16.7084 -16.6693 -16.6673
   -15.1017 -14.9639 -14.8131 -14.7723 -14.7439 -14.6858 -14.6493 -14.5713
   -14.5629 -14.4763 -14.4642 -14.2624 -14.2573 -14.2204 -14.2020 -14.2007
   -14.1270 -14.0588 -14.0534 -13.9931 -13.9917 -13.9673 -13.9563 -13.9289
   -13.8452 -13.8020 -13.7993 -13.7460 -13.7175 -13.5686  -8.7648  -8.7166
    -8.5271  -8.4254  -8.3106  -8.2696  -8.2544  -8.1193  -8.1100  -8.0963
    -8.0452  -8.0309  -8.0271  -7.9745  -7.9590  -7.8712  -7.8683  -7.8541
    -7.8377  -7.7638  -7.7396  -7.7255  -7.6283  -7.4605  -3.5105  -3.4221
    -3.1561  -2.8574  -2.8119  -2.7746  -2.6813  -2.5874  -2.5707  -2.4382
    -2.4154  -2.3680  -2.2867  -2.2552  -2.2521  -2.2148  -2.2132  -2.1101
    -2.0711  -2.0700  -2.0610  -2.0590  -1.9708  -1.9565  -1.9472  -1.8528
    -1.7655  -1.6796  -1.6718  -1.6337  -1.5775  -1.5043  -1.4619  -1.4465
    -1.4212  -1.2936  -1.2108  -1.1426  -0.9653  -0.9411  -0.9258  -0.8791
    -0.8612  -0.8212  -0.8188  -0.7916  -0.7725  -0.6779  -0.6382  -0.6331
    -0.6247  -0.6213  -0.5618  -0.5438  -0.5249  -0.4951  -0.4948  -0.4939
    -0.4442  -0.4088  -0.3833  -0.3811  -0.3646  -0.3368  -0.3236  -0.3230
    -0.3047  -0.2518  -0.2308  -0.1848  -0.1811   0.0762   0.1489   0.1657
     0.2164   0.2208   0.2364   0.2398   0.2557   0.3027   0.3037   0.3431
     0.3835   0.4324   0.5651   0.5723   0.6235   0.6271   0.6524   0.6629
     0.7840   0.8080   0.8245   0.8381   0.8550   0.8614   0.9510   1.0420
     1.0550   1.0590   1.0975   1.1505   1.1782   1.2221   1.2354   1.2548
     1.2700   1.2735   1.2805   1.2848   1.2880   1.2881   1.3170   1.3378
     1.3726   1.4123   1.4238   1.4529   1.4598   1.4656   1.5096   1.5203
     1.5396   1.5994   1.6005   1.6587   1.6693   1.6854   1.6887   1.7333
     1.7664   1.8346   1.8439   1.8552   1.8676   1.8950   1.9340   1.9495
     1.9796   1.9808   2.0366   2.0395   2.0977   2.0980   2.1109   2.1226
     2.1531   2.2167   2.4594   2.5242   3.0980   3.1011   3.1364   3.1430
     3.6104   3.6616   3.8488   3.8745   3.9716   4.1054   5.7043   6.5176
     6.5304   6.5326   6.6512   6.6578   6.9137   6.9326   6.9867   7.1240
     7.4331   7.6308   7.7306   7.8321   7.8546   7.9428   8.1967   8.2780
     8.4475   8.4627   8.5451   8.6597   8.6978   8.7154   8.7674   8.7912
     8.8088   8.9361   8.9556   9.0267   9.0805   9.1702   9.3299   9.3499
     9.4283   9.5244

          k = 0.0000 0.7854 0.0000 ( 69898 PWs)   bands (ev):

   -38.0463 -37.8436 -35.6792 -35.4453 -23.3739 -23.1040 -22.7032 -22.6877
   -22.6085 -22.5937 -22.4866 -22.3649 -18.6251 -18.4313 -18.3908 -18.2930
   -18.2020 -18.0613 -17.0594 -16.8767 -16.8513 -16.8362 -16.6587 -16.5870
   -14.8859 -14.8316 -14.7537 -14.6307 -14.6119 -14.5836 -14.5519 -14.5164
   -14.5102 -14.4727 -14.3996 -14.3613 -14.3239 -14.1885 -14.1532 -14.1428
   -14.1304 -14.0365 -13.9777 -13.9600 -13.9440 -13.9404 -13.9111 -13.9101
   -13.8612 -13.8503 -13.8299 -13.7624 -13.7014 -13.5717  -9.1235  -8.7933
    -8.7128  -8.6646  -8.6495  -8.4320  -8.4073  -8.4051  -8.3913  -8.3498
    -8.1406  -8.0490  -8.0312  -7.9934  -7.9801  -7.9634  -7.9379  -7.9231
    -7.9194  -7.7430  -7.7005  -7.6184  -7.6042  -7.3498  -3.9950  -3.8954
    -3.5600  -3.2629  -3.2400  -3.2037  -3.1846  -3.1085  -2.9613  -2.8314
    -2.8299  -2.7652  -2.7641  -2.7388  -2.5841  -2.5699  -2.4127  -2.3201
    -2.2305  -2.2148  -2.1780  -2.1718  -2.1110  -2.1069  -1.9852  -1.9667
    -1.8922  -1.8501  -1.7286  -1.7103  -1.6851  -1.6321  -1.5661  -1.5539
    -1.4474  -1.2003  -1.1789  -1.1659  -1.1275  -1.1117  -1.1114  -1.0345
    -1.0090  -0.9924  -0.9709  -0.9605  -0.9370  -0.9287  -0.9043  -0.8336
    -0.7887  -0.7734  -0.7509  -0.7173  -0.7120  -0.6770  -0.6720  -0.6563
    -0.6110  -0.5866  -0.5718  -0.5714  -0.5534  -0.5257  -0.5104  -0.4017
    -0.3660  -0.3347  -0.1849  -0.1798  -0.1696   0.0372   0.0941   0.0975
     0.1632   0.2080   0.2264   0.2445   0.2609   0.3220   0.3647   0.3695
     0.3993   0.5553   0.6437   0.6978   0.7646   0.7902   0.7975   0.8245
     0.8589   0.9230   1.0196   1.0272   1.0629   1.0714   1.0937   1.1246
     1.1517   1.1806   1.2753   1.2813   1.3447   1.3649   1.3787   1.3856
     1.3973   1.3988   1.4383   1.4540   1.4980   1.5397   1.5552   1.5760
     1.6091   1.6347   1.6821   1.6899   1.6950   1.7193   1.7620   1.7675
     1.7760   1.7887   1.8036   1.8416   1.8500   1.8565   1.8664   1.9203
     1.9315   1.9933   1.9975   2.0268   2.0557   2.0575   2.0764   2.0822
     2.0861   2.1684   2.2205   2.2544   2.2783   2.2786   2.3131   2.3983
     2.4162   2.4573   2.5015   2.5024   2.9434   2.9492   3.0490   3.0552
     3.9515   3.9821   4.4951   4.5210   4.5605   4.6973   5.4705   6.1191
     6.1260   6.5709   6.7736   7.0337   7.1000   7.4575   7.4704   7.7848
     7.8084   7.9190   8.0758   8.2189   8.3397   8.4814   8.5091   8.6184
     8.6571   8.7017   8.8170   8.8600   8.8778   8.9480   8.9698   9.0734
     9.2014   9.2082   9.2454   9.2880   9.3189   9.4920   9.4983   9.5414
     9.6018   9.6582

          k = 0.0000-1.0472 0.0000 ( 70018 PWs)   bands (ev):

   -38.0436 -37.8409 -35.6775 -35.4436 -23.3535 -23.0851 -22.6769 -22.6613
   -22.5883 -22.5735 -22.4614 -22.3450 -18.7056 -18.5118 -18.3836 -18.2457
   -18.1948 -18.0138 -17.1098 -16.8864 -16.8724 -16.8156 -16.6543 -16.5510
   -14.8927 -14.8511 -14.6913 -14.6115 -14.5561 -14.5274 -14.4653 -14.4602
   -14.4249 -14.4113 -14.4050 -14.3733 -14.3621 -14.2147 -14.2083 -14.1486
   -14.0944 -14.0583 -13.9671 -13.9208 -13.9109 -13.8947 -13.8933 -13.8923
   -13.8901 -13.8895 -13.8122 -13.7807 -13.6627 -13.5504  -9.2827  -8.9063
    -8.8179  -8.8027  -8.6837  -8.5594  -8.5238  -8.5100  -8.4642  -8.3394
    -8.2296  -8.0547  -8.0363  -7.9740  -7.9697  -7.9655  -7.9567  -7.9507
    -7.9290  -7.7450  -7.7162  -7.5658  -7.5515  -7.3014  -4.1972  -4.0975
    -3.7466  -3.4503  -3.4419  -3.3685  -3.3447  -3.3159  -3.1083  -3.0665
    -3.0623  -2.9954  -2.9943  -2.8855  -2.6128  -2.5991  -2.4460  -2.4346
    -2.3428  -2.2475  -2.2003  -2.1966  -2.0982  -2.0942  -1.9972  -1.9934
    -1.9658  -1.9198  -1.8404  -1.8263  -1.7666  -1.5997  -1.5460  -1.4562
    -1.2944  -1.2686  -1.2516  -1.2270  -1.2020  -1.1773  -1.1711  -1.1696
    -1.0502  -1.0291  -1.0253  -1.0224  -1.0224  -0.9785  -0.9692  -0.9421
    -0.9397  -0.8655  -0.8038  -0.8036  -0.7943  -0.7835  -0.7799  -0.7169
    -0.6729  -0.6631  -0.6609  -0.6395  -0.6322  -0.5606  -0.4594  -0.3621
    -0.3482  -0.3368  -0.1767  -0.1452  -0.1448  -0.0392   0.0050   0.0255
     0.1513   0.1666   0.2411   0.2508   0.2775   0.3122   0.3175   0.4058
     0.4384   0.6141   0.6559   0.6560   0.7025   0.7811   0.8899   0.9149
     0.9150   0.9262   0.9375   1.0797   1.1151   1.1588   1.2299   1.2522
     1.2683   1.3004   1.3179   1.3579   1.3939   1.4079   1.4248   1.4273
     1.4321   1.4578   1.4770   1.4999   1.5163   1.5607   1.6062   1.6217
     1.6367   1.7455   1.7528   1.7717   1.8128   1.8345   1.8532   1.8635
     1.8765   1.9024   1.9486   1.9683   1.9871   1.9901   2.0033   2.0064
     2.0183   2.0671   2.1500   2.2068   2.2130   2.2160   2.2217   2.2455
     2.2515   2.2580   2.2610   2.2628   2.3088   2.3851   2.4732   2.4808
     2.4813   2.5602   2.6647   2.6657   2.7083   2.7181   2.8796   2.8857
     3.9937   4.0394   4.7015   4.7346   4.7709   4.8961   5.3875   5.8797
     5.8866   6.4439   6.6629   6.9963   7.4411   7.7527   7.8315   7.8588
     7.8654   7.9475   8.2550   8.3542   8.4256   8.5157   8.6401   8.6615
     8.8529   8.8560   8.9342   8.9514   9.0375   9.1622   9.1970   9.2348
     9.2435   9.2768   9.2835   9.3606   9.3669   9.4228   9.4305   9.6237
     9.6307   9.7983

          k = 0.1250 0.0000 0.0000 ( 70027 PWs)   bands (ev):

   -38.0620 -37.8594 -35.6891 -35.4553 -23.4880 -23.2119 -22.8463 -22.8309
   -22.7272 -22.7123 -22.6244 -22.4806 -18.5366 -18.4298 -18.3065 -18.2411
   -18.0651 -17.8706 -17.0402 -16.9139 -16.7784 -16.7187 -16.6967 -16.4957
   -15.4206 -15.2485 -15.0152 -14.9797 -14.9664 -14.8622 -14.6868 -14.6055
   -14.5847 -14.5628 -14.5187 -14.4960 -14.3925 -14.3154 -14.2852 -14.1316
   -14.0861 -14.0529 -14.0325 -14.0231 -14.0176 -14.0142 -14.0038 -13.9603
   -13.9286 -13.7276 -13.7012 -13.6311 -13.5223 -13.5216  -8.8185  -8.5002
    -8.2966  -8.2391  -8.0910  -8.0723  -8.0573  -7.9860  -7.9848  -7.9685
    -7.9043  -7.8864  -7.8725  -7.8179  -7.7537  -7.7388  -7.6722  -7.6583
    -7.6065  -7.5334  -7.5185  -7.4945  -7.4376  -7.2885  -2.9839  -2.9552
    -2.8155  -2.5336  -2.2032  -2.1944  -2.1388  -2.1332  -2.0730  -1.9987
    -1.9812  -1.9698  -1.9178  -1.8700  -1.8520  -1.8465  -1.7246  -1.7064
    -1.7036  -1.6476  -1.6194  -1.5746  -1.5452  -1.5302  -1.4853  -1.4307
    -1.4068  -1.2652  -1.1906  -1.0837  -1.0325  -1.0201  -0.9728  -0.9550
    -0.9534  -0.9531  -0.9521  -0.9407  -0.8870  -0.8561  -0.8248  -0.8173
    -0.7732  -0.7181  -0.7081  -0.7053  -0.6672  -0.6546  -0.6272  -0.5394
    -0.5016  -0.3901  -0.3480  -0.3390  -0.3323  -0.2968  -0.2263  -0.2189
    -0.2127  -0.1883  -0.1845  -0.1704  -0.1345  -0.0933  -0.0923  -0.0185
     0.0106   0.0169   0.0202   0.0232   0.0346   0.0526   0.0668   0.1180
     0.1305   0.1772   0.1955   0.2175   0.2402   0.2413   0.2451   0.2593
     0.2765   0.2779   0.2908   0.3361   0.3888   0.3998   0.4183   0.4734
     0.4938   0.5425   0.5451   0.5490   0.5512   0.5793   0.5967   0.6205
     0.6685   0.7059   0.7452   0.7796   0.8820   0.9146   0.9623   0.9901
     0.9993   1.0583   1.0663   1.0901   1.1183   1.1411   1.1587   1.1647
     1.1989   1.2176   1.2558   1.2736   1.2953   1.3357   1.4117   1.4233
     1.4260   1.4350   1.4495   1.4680   1.5332   1.5343   1.5968   1.6290
     1.7019   1.7384   1.7498   1.7520   1.7956   1.8228   1.8267   1.8672
     1.8764   1.9027   1.9717   2.0002   2.0081   2.0686   2.0709   2.0724
     2.1758   2.1929   2.2679   2.2724   2.3094   2.3265   2.3618   2.4718
     2.6048   2.6087   2.6300   2.6419   2.8759   2.8850   5.2199   5.2994
     5.3884   5.9648   6.0214   6.2103   6.6867   6.7217   6.7596   6.9317
     6.9340   7.1341   7.2814   7.5529   7.7173   7.7572   7.7705   7.9609
     8.0580   8.1195   8.1645   8.1664   8.2835   8.3369   8.4062   8.5260
     8.5498   8.6343   8.6705   8.7661   8.8323   8.9376   9.0533   9.1546
     9.1964   9.2412

          k = 0.1250 0.2618 0.0000 ( 69979 PWs)   bands (ev):

   -38.0593 -37.8567 -35.6874 -35.4536 -23.4686 -23.1939 -22.8219 -22.8065
   -22.7078 -22.6929 -22.6010 -22.4616 -18.4979 -18.4225 -18.2677 -18.2339
   -18.1760 -17.9816 -17.0105 -16.9089 -16.7847 -16.7484 -16.6916 -16.5615
   -15.3153 -15.1512 -14.9552 -14.9179 -14.9118 -14.8140 -14.6493 -14.5972
   -14.5480 -14.5204 -14.4889 -14.4833 -14.3265 -14.2730 -14.2581 -14.1282
   -14.0877 -14.0826 -14.0386 -14.0197 -14.0093 -14.0049 -13.9918 -13.9660
   -13.9257 -13.7675 -13.7063 -13.6792 -13.5868 -13.5377  -8.8028  -8.4861
    -8.3572  -8.3269  -8.1262  -8.0989  -8.0839  -8.0658  -7.9995  -7.9837
    -7.9146  -7.9125  -7.8982  -7.8397  -7.8253  -7.8055  -7.7417  -7.7271
    -7.6847  -7.6703  -7.6428  -7.5948  -7.4722  -7.4489  -3.0827  -3.0374
    -2.8751  -2.5829  -2.3340  -2.3074  -2.2335  -2.2104  -2.2016  -2.1038
    -2.0906  -2.0378  -1.9984  -1.9854  -1.9584  -1.9430  -1.9368  -1.9227
    -1.8766  -1.8306  -1.7557  -1.7281  -1.6366  -1.6309  -1.5587  -1.4751
    -1.4195  -1.4012  -1.3963  -1.3766  -1.3709  -1.3681  -1.3505  -1.2937
    -1.2749  -1.2511  -1.0804  -1.0058  -0.9717  -0.8256  -0.8168  -0.7697
    -0.7304  -0.7135  -0.6925  -0.6507  -0.6244  -0.5815  -0.5779  -0.5739
    -0.4878  -0.4363  -0.4067  -0.4041  -0.3757  -0.3472  -0.3228  -0.3159
    -0.2975  -0.2894  -0.2679  -0.1644  -0.1512  -0.1294  -0.1196  -0.0818
    -0.0339  -0.0246   0.0046   0.0245   0.0262   0.0946   0.0953   0.1222
     0.1788   0.1931   0.1934   0.2145   0.2486   0.2882   0.3153   0.3153
     0.3348   0.3725   0.3912   0.4061   0.4155   0.4215   0.4415   0.4606
     0.4800   0.5018   0.5125   0.5725   0.6008   0.6629   0.6664   0.6956
     0.7551   0.8245   0.8772   0.8896   0.9136   0.9520   0.9748   1.0368
     1.0693   1.0843   1.1029   1.1332   1.1620   1.1970   1.2274   1.2549
     1.2608   1.2640   1.2880   1.3091   1.3560   1.3993   1.4090   1.4265
     1.4393   1.4449   1.4776   1.4937   1.5428   1.5594   1.5927   1.6129
     1.6783   1.7140   1.7280   1.7484   1.7650   1.7886   1.7916   1.8179
     1.8300   1.8648   1.8900   2.0013   2.0308   2.0865   2.1250   2.1553
     2.1907   2.2254   2.4156   2.4896   2.8216   2.8361   2.8679   2.8989
     2.9307   2.9744   3.0112   3.0359   3.2040   3.2691   5.5251   5.6684
     5.6881   6.2445   6.2755   6.3416   6.9104   6.9659   6.9703   7.0262
     7.0509   7.2304   7.3383   7.6503   7.7464   7.8206   7.8360   7.8765
     7.9616   7.9910   8.2274   8.3017   8.3360   8.4750   8.5356   8.6108
     8.6887   8.7554   8.8496   8.8731   8.9381   9.0620   9.1453   9.1681
     9.1894   9.2616

          k = 0.1250 0.5236 0.0000 ( 69940 PWs)   bands (ev):

   -38.0528 -37.8501 -35.6833 -35.4494 -23.4213 -23.1499 -22.7619 -22.7464
   -22.6604 -22.6456 -22.5434 -22.4150 -18.4162 -18.4051 -18.3983 -18.2221
   -18.2164 -18.1673 -16.9392 -16.9256 -16.8971 -16.7087 -16.6795 -16.6697
   -15.0772 -14.9430 -14.8054 -14.7675 -14.7411 -14.6867 -14.6478 -14.5693
   -14.5575 -14.4762 -14.4609 -14.3140 -14.2576 -14.2359 -14.2067 -14.1586
   -14.1281 -14.0676 -14.0519 -13.9935 -13.9916 -13.9695 -13.9577 -13.9475
   -13.8442 -13.8011 -13.7930 -13.7473 -13.7181 -13.5659  -8.7677  -8.7364
    -8.5006  -8.4261  -8.3451  -8.3034  -8.2885  -8.0939  -8.0650  -8.0492
    -8.0474  -8.0328  -8.0162  -7.9810  -7.9655  -7.9370  -7.9224  -7.8839
    -7.7790  -7.7633  -7.6917  -7.6872  -7.6733  -7.4221  -3.4749  -3.3863
    -3.1190  -2.8216  -2.8211  -2.7806  -2.6804  -2.5897  -2.5723  -2.4331
    -2.4114  -2.3698  -2.2842  -2.2562  -2.2528  -2.2137  -2.2130  -2.1068
    -2.0718  -2.0706  -2.0600  -2.0580  -1.9721  -1.9558  -1.9176  -1.8227
    -1.8033  -1.7280  -1.6541  -1.6514  -1.6227  -1.5022  -1.4586  -1.4323
    -1.4155  -1.3599  -1.2178  -1.1510  -0.9816  -0.9473  -0.9340  -0.8848
    -0.8781  -0.8278  -0.8097  -0.7910  -0.7678  -0.6945  -0.6783  -0.6646
    -0.6386  -0.6081  -0.5929  -0.5797  -0.5621  -0.5188  -0.4884  -0.4874
    -0.4611  -0.4123  -0.4047  -0.3882  -0.3667  -0.3638  -0.3367  -0.3160
    -0.2689  -0.2452  -0.2049  -0.1866  -0.1709   0.1072   0.1563   0.1778
     0.1840   0.1926   0.2114   0.2393   0.2580   0.3028   0.3365   0.3592
     0.3986   0.4549   0.5379   0.5553   0.6042   0.6160   0.6364   0.6956
     0.7722   0.7981   0.8093   0.8705   0.8766   0.8850   0.9662   1.0310
     1.0410   1.0503   1.1099   1.1251   1.1823   1.1864   1.2201   1.2218
     1.2426   1.2684   1.2927   1.3117   1.3347   1.3416   1.3492   1.3550
     1.3865   1.3871   1.4177   1.4528   1.4601   1.4747   1.4932   1.5234
     1.5401   1.5907   1.6111   1.6276   1.6561   1.6599   1.6913   1.7370
     1.7600   1.8063   1.8411   1.8508   1.8519   1.8760   1.8963   1.9250
     1.9569   2.0620   2.0677   2.0862   2.0890   2.0919   2.1535   2.1661
     2.2622   2.2810   2.5617   2.6301   3.0992   3.1023   3.1375   3.1448
     3.6118   3.6600   3.8168   3.8430   3.9432   4.0785   5.7390   6.5419
     6.5459   6.5480   6.6592   6.6652   6.9317   6.9509   7.0036   7.1465
     7.4668   7.6124   7.7019   7.8793   7.9009   7.9213   8.2156   8.2746
     8.4336   8.4365   8.5015   8.5889   8.6461   8.7341   8.7480   8.7923
     8.8339   8.9404   8.9614   9.0221   9.0856   9.1918   9.3098   9.3242
     9.3997   9.4675

          k = 0.1250 0.7854 0.0000 ( 69958 PWs)   bands (ev):

   -38.0463 -37.8436 -35.6792 -35.4453 -23.3731 -23.1048 -22.7001 -22.6845
   -22.6118 -22.5970 -22.4843 -22.3673 -18.6250 -18.4312 -18.3878 -18.2925
   -18.1990 -18.0607 -17.0594 -16.8861 -16.8535 -16.8362 -16.6682 -16.5893
   -14.8701 -14.8201 -14.7369 -14.6308 -14.5946 -14.5887 -14.5474 -14.5170
   -14.5089 -14.4728 -14.3960 -14.3579 -14.3241 -14.1880 -14.1683 -14.1548
   -14.1415 -14.0286 -13.9815 -13.9569 -13.9431 -13.9389 -13.9122 -13.9109
   -13.8710 -13.8584 -13.8335 -13.7591 -13.7093 -13.5715  -9.1096  -8.7615
    -8.7121  -8.6549  -8.6398  -8.4644  -8.3978  -8.3630  -8.3528  -8.3490
    -8.1165  -8.0482  -8.0307  -7.9978  -7.9850  -7.9809  -7.9696  -7.9649
    -7.9180  -7.7621  -7.7224  -7.6334  -7.6191  -7.3666  -3.9581  -3.8595
    -3.5253  -3.2459  -3.2303  -3.2097  -3.1960  -3.1104  -2.9702  -2.8291
    -2.8274  -2.7676  -2.7666  -2.7455  -2.5703  -2.5560  -2.4010  -2.2911
    -2.2154  -2.1910  -2.1795  -2.1680  -2.1099  -2.1053  -1.9905  -1.9652
    -1.8733  -1.8388  -1.7340  -1.7126  -1.6772  -1.6270  -1.5863  -1.5625
    -1.5314  -1.2813  -1.2016  -1.1780  -1.1433  -1.1088  -1.1000  -1.0468
    -1.0233  -1.0116  -0.9769  -0.9702  -0.9686  -0.9497  -0.9416  -0.8775
    -0.7951  -0.7886  -0.7530  -0.7171  -0.7104  -0.7061  -0.6868  -0.6756
    -0.6453  -0.6010  -0.5756  -0.5673  -0.5465  -0.5096  -0.4928  -0.3669
    -0.3604  -0.3316  -0.1934  -0.1909  -0.1550   0.0518   0.1338   0.1530
     0.1832   0.2169   0.2296   0.2358   0.2789   0.3424   0.3471   0.3892
     0.4010   0.5686   0.6002   0.6404   0.6939   0.7976   0.8362   0.8542
     0.9134   0.9515   1.0232   1.0262   1.0401   1.0749   1.1206   1.1342
     1.1584   1.1679   1.2779   1.2877   1.3130   1.3538   1.3567   1.3795
     1.3857   1.4062   1.4376   1.4599   1.4943   1.5237   1.5351   1.5603
     1.6278   1.6352   1.6518   1.6729   1.7149   1.7236   1.7704   1.7742
     1.7862   1.8036   1.8384   1.8471   1.8522   1.8666   1.8774   1.9021
     1.9245   1.9783   2.0152   2.0192   2.0438   2.0736   2.0754   2.1251
     2.1437   2.1861   2.2365   2.2553   2.2874   2.2877   2.3630   2.3704
     2.4929   2.4934   2.5149   2.5637   2.9456   2.9510   3.0542   3.0618
     3.9529   3.9874   4.4310   4.4580   4.5029   4.6405   5.5143   6.1743
     6.1808   6.6009   6.7989   7.0087   7.0932   7.4247   7.4368   7.7722
     7.8040   7.9186   8.0438   8.1865   8.2866   8.3804   8.5230   8.6280
     8.6375   8.6919   8.8348   8.8778   8.9161   8.9635   9.0513   9.0952
     9.1962   9.2294   9.2406   9.3128   9.3694   9.4708   9.5060   9.5617
     9.6009   9.6448

          k = 0.1250-1.0472 0.0000 ( 70006 PWs)   bands (ev):

   -38.0436 -37.8409 -35.6775 -35.4436 -23.3528 -23.0859 -22.6739 -22.6584
   -22.5914 -22.5766 -22.4593 -22.3472 -18.7056 -18.5118 -18.3806 -18.2452
   -18.1918 -18.0133 -17.1098 -16.8864 -16.8815 -16.8176 -16.6635 -16.5531
   -14.8815 -14.8395 -14.6675 -14.6099 -14.5354 -14.5145 -14.4866 -14.4858
   -14.4166 -14.4051 -14.4023 -14.3665 -14.3615 -14.2079 -14.2042 -14.1598
   -14.1119 -14.0498 -13.9808 -13.9213 -13.9104 -13.9011 -13.8962 -13.8952
   -13.8933 -13.8780 -13.8265 -13.7758 -13.6743 -13.5560  -9.2521  -8.8792
    -8.7876  -8.7725  -8.6834  -8.5305  -8.4955  -8.4933  -8.4794  -8.3417
    -8.2042  -8.0510  -8.0328  -8.0035  -8.0005  -7.9858  -7.9767  -7.9597
    -7.9268  -7.7773  -7.7159  -7.6096  -7.5954  -7.3412  -4.1592  -4.0609
    -3.7123  -3.4412  -3.4178  -3.3828  -3.3585  -3.3176  -3.1191  -3.0642
    -3.0605  -2.9981  -2.9970  -2.8940  -2.5960  -2.5820  -2.4196  -2.4196
    -2.3154  -2.2285  -2.2026  -2.1987  -2.0992  -2.0949  -1.9996  -1.9665
    -1.9645  -1.9117  -1.8111  -1.7980  -1.7565  -1.5979  -1.5553  -1.4911
    -1.4002  -1.3333  -1.3105  -1.2530  -1.2311  -1.1953  -1.1614  -1.1502
    -1.1159  -1.0684  -1.0522  -1.0406  -1.0085  -1.0031  -0.9592  -0.9578
    -0.9363  -0.8885  -0.8380  -0.8017  -0.7956  -0.7889  -0.7737  -0.7698
    -0.6858  -0.6660  -0.6497  -0.6407  -0.6342  -0.5405  -0.4358  -0.3572
    -0.3311  -0.3178  -0.1620  -0.1590  -0.1531   0.0060   0.0511   0.0997
     0.1784   0.2151   0.2317   0.2498   0.2707   0.3333   0.3455   0.3813
     0.4299   0.5776   0.6599   0.6624   0.7036   0.7068   0.8782   0.9378
     0.9540   0.9670   0.9707   1.0690   1.1020   1.1222   1.2377   1.2389
     1.2641   1.2831   1.3227   1.3607   1.3699   1.3933   1.4310   1.4417
     1.4450   1.4503   1.4604   1.5031   1.5240   1.5850   1.5927   1.6011
     1.6377   1.7361   1.7619   1.7968   1.8036   1.8551   1.8672   1.8720
     1.8743   1.8983   1.9766   1.9825   1.9857   1.9970   2.0009   2.0515
     2.0740   2.0881   2.1266   2.2034   2.2080   2.2127   2.2338   2.2374
     2.2561   2.2621   2.2895   2.3124   2.3760   2.4094   2.4603   2.4874
     2.4880   2.5253   2.6575   2.6585   2.7132   2.7221   2.8907   2.8988
     3.9888   4.0600   4.6227   4.6557   4.6972   4.8251   5.4275   5.9478
     5.9544   6.4787   6.6898   6.9427   7.4668   7.7401   7.7680   7.7722
     7.8478   7.8658   8.2516   8.2631   8.3089   8.5160   8.5396   8.6290
     8.9053   8.9848   9.0044   9.1044   9.1076   9.1154   9.2081   9.2431
     9.2809   9.3147   9.3571   9.3880   9.3887   9.4237   9.4805   9.6397
     9.6402   9.8146

          k = 0.2500 0.0000 0.0000 ( 69961 PWs)   bands (ev):

   -38.0620 -37.8594 -35.6891 -35.4553 -23.4849 -23.2154 -22.8336 -22.8182
   -22.7406 -22.7258 -22.6155 -22.4902 -18.5348 -18.4219 -18.3047 -18.2334
   -18.0651 -17.8706 -17.0473 -16.9422 -16.7859 -16.7256 -16.7188 -16.4957
   -15.3468 -15.1785 -14.9827 -14.9548 -14.9310 -14.8722 -14.6841 -14.6642
   -14.6078 -14.6058 -14.5489 -14.5152 -14.4066 -14.3036 -14.2702 -14.1170
   -14.0884 -14.0402 -14.0375 -14.0276 -14.0227 -14.0200 -14.0054 -13.9428
   -13.9219 -13.7261 -13.7014 -13.6636 -13.5440 -13.5211  -8.8260  -8.5205
    -8.2625  -8.2277  -8.0958  -8.0773  -8.0618  -7.9989  -7.9923  -7.9762
    -7.9139  -7.8534  -7.8395  -7.8329  -7.7301  -7.7151  -7.6913  -7.6772
    -7.5724  -7.5596  -7.5449  -7.4731  -7.4444  -7.3122  -2.8831  -2.8540
    -2.7215  -2.4326  -2.2213  -2.2051  -2.1752  -2.1687  -2.0697  -2.0639
    -1.9857  -1.9739  -1.9537  -1.9385  -1.8903  -1.8635  -1.7430  -1.7253
    -1.7249  -1.6474  -1.6333  -1.5671  -1.5659  -1.5326  -1.5013  -1.4762
    -1.4201  -1.3164  -1.1308  -1.0080  -0.9974  -0.9730  -0.9538  -0.9505
    -0.9503  -0.9463  -0.9427  -0.9276  -0.8697  -0.8568  -0.8119  -0.8003
    -0.7483  -0.7047  -0.6960  -0.6490  -0.6470  -0.6199  -0.5560  -0.5330
    -0.5220  -0.4170  -0.3920  -0.3780  -0.3313  -0.3199  -0.3010  -0.2597
    -0.2479  -0.2416  -0.2376  -0.2192  -0.1550  -0.1481  -0.0728  -0.0646
    -0.0164   0.0032   0.0074   0.0108   0.0209   0.0394   0.0828   0.0915
     0.1283   0.1883   0.2420   0.2424   0.2441   0.2654   0.2657   0.2743
     0.2949   0.3056   0.3222   0.3295   0.3861   0.4076   0.4362   0.4895
     0.4930   0.5196   0.5315   0.5328   0.5426   0.5914   0.6458   0.6875
     0.6978   0.7079   0.7384   0.7968   0.8451   0.8915   0.9484   0.9688
     0.9953   1.0156   1.0284   1.0532   1.0652   1.0908   1.1156   1.1783
     1.1827   1.2098   1.2640   1.2865   1.3059   1.3147   1.3346   1.4023
     1.4099   1.4606   1.4761   1.4942   1.5620   1.5749   1.5758   1.6161
     1.6266   1.7253   1.7761   1.7766   1.8161   1.8231   1.8714   1.8788
     1.8808   1.8999   1.9523   1.9848   1.9998   2.0333   2.0360   2.0828
     2.1674   2.2244   2.2440   2.2853   2.3218   2.3591   2.3881   2.4751
     2.6192   2.6285   2.6397   2.6620   2.8610   2.8635   5.3845   5.4365
     5.5062   6.1288   6.1704   6.2364   6.5459   6.5481   6.7687   6.8774
     6.9038   7.2087   7.2719   7.4546   7.5901   7.8651   7.9581   8.0093
     8.0169   8.1359   8.1692   8.2224   8.3085   8.3395   8.4294   8.5081
     8.5615   8.6479   8.7372   8.7568   8.8617   8.9534   9.0710   9.1610
     9.2653   9.2853

          k = 0.2500 0.2618 0.0000 ( 69968 PWs)   bands (ev):

   -38.0593 -37.8567 -35.6874 -35.4536 -23.4658 -23.1972 -22.8098 -22.7944
   -22.7206 -22.7058 -22.5925 -22.4707 -18.4962 -18.4148 -18.2659 -18.2263
   -18.1760 -17.9816 -17.0174 -16.9360 -16.7845 -16.7556 -16.7192 -16.5613
   -15.2431 -15.0845 -14.9235 -14.9000 -14.8824 -14.8226 -14.6372 -14.6234
   -14.5749 -14.5669 -14.5363 -14.4980 -14.3440 -14.2703 -14.2282 -14.1172
   -14.0925 -14.0918 -14.0317 -14.0212 -14.0141 -14.0097 -13.9998 -13.9729
   -13.8986 -13.7625 -13.7208 -13.6919 -13.5990 -13.5351  -8.8066  -8.5110
    -8.4011  -8.3502  -8.0903  -8.0772  -8.0725  -8.0501  -8.0196  -8.0043
    -7.9661  -7.9513  -7.9235  -7.8850  -7.8706  -7.8247  -7.6834  -7.6683
    -7.6538  -7.6434  -7.6254  -7.6110  -7.4103  -7.3876  -2.9786  -2.9323
    -2.7744  -2.4774  -2.3693  -2.3408  -2.2538  -2.1889  -2.1817  -2.1285
    -2.1060  -2.0430  -2.0125  -1.9908  -1.9743  -1.9627  -1.9412  -1.9297
    -1.9175  -1.8988  -1.8489  -1.8056  -1.6663  -1.6302  -1.6083  -1.5074
    -1.4414  -1.3964  -1.3904  -1.3754  -1.3736  -1.3395  -1.2753  -1.2490
    -1.2220  -1.1770  -1.0967  -0.9891  -0.9067  -0.8452  -0.8204  -0.7686
    -0.7507  -0.7427  -0.7123  -0.6821  -0.6700  -0.5935  -0.5765  -0.5613
    -0.5326  -0.5298  -0.4894  -0.4393  -0.3996  -0.3902  -0.3373  -0.3249
    -0.2986  -0.2777  -0.2643  -0.2337  -0.1427  -0.1159  -0.1026  -0.0567
    -0.0402  -0.0291  -0.0007   0.0330   0.0393   0.0409   0.0943   0.1212
     0.1699   0.1743   0.1901   0.1965   0.2382   0.2964   0.3382   0.3487
     0.3498   0.3570   0.3879   0.4058   0.4117   0.4327   0.4416   0.4719
     0.4970   0.5074   0.5530   0.5717   0.6058   0.6220   0.6704   0.6759
     0.7604   0.8226   0.9115   0.9251   0.9510   0.9757   0.9904   1.0353
     1.0560   1.0978   1.1195   1.1357   1.1691   1.1758   1.1946   1.2347
     1.2468   1.2574   1.2654   1.2865   1.2974   1.3427   1.3554   1.3750
     1.4609   1.4610   1.4900   1.4993   1.5352   1.5624   1.6231   1.6659
     1.6823   1.6876   1.7078   1.7106   1.7430   1.7511   1.7659   1.7784
     1.8109   1.8208   1.8872   2.0030   2.0484   2.1067   2.1415   2.1974
     2.3428   2.3701   2.5503   2.6959   2.8076   2.8269   2.8808   2.9065
     2.9399   2.9666   3.0008   3.0222   3.1722   3.2512   5.6379   5.7752
     5.7860   6.3157   6.3814   6.4536   6.6828   6.6861   6.9782   7.1840
     7.2054   7.2488   7.4255   7.5175   7.6432   7.8201   7.8472   7.9580
     8.0864   8.1015   8.2723   8.3102   8.4053   8.4843   8.5632   8.5847
     8.6388   8.6906   8.7520   8.8545   8.9384   9.0111   9.0532   9.0958
     9.2256   9.2319

          k = 0.2500 0.5236 0.0000 ( 69928 PWs)   bands (ev):

   -38.0528 -37.8501 -35.6833 -35.4495 -23.4190 -23.1526 -22.7513 -22.7358
   -22.6714 -22.6567 -22.5362 -22.4228 -18.4161 -18.3976 -18.3969 -18.2221
   -18.2090 -18.1658 -16.9439 -16.9278 -16.9204 -16.7106 -16.7028 -16.6756
   -15.0109 -14.8888 -14.7881 -14.7569 -14.7334 -14.6901 -14.6437 -14.5632
   -14.5432 -14.4765 -14.4570 -14.4096 -14.2447 -14.2442 -14.2165 -14.1410
   -14.1294 -14.0948 -14.0392 -14.0137 -13.9874 -13.9829 -13.9618 -13.9616
   -13.8407 -13.8038 -13.7809 -13.7506 -13.7193 -13.5597  -8.7782  -8.7513
    -8.5386  -8.4250  -8.3388  -8.3241  -8.3196  -8.0862  -8.0856  -8.0711
    -8.0484  -8.0474  -8.0306  -7.9859  -7.9705  -7.9049  -7.8927  -7.8905
    -7.8080  -7.7631  -7.6659  -7.6404  -7.6260  -7.3840  -3.3743  -3.2856
    -3.0169  -2.8551  -2.8127  -2.7135  -2.6795  -2.5980  -2.5766  -2.4162
    -2.3998  -2.3750  -2.2738  -2.2606  -2.2562  -2.2110  -2.2099  -2.0928
    -2.0791  -2.0755  -2.0567  -2.0544  -1.9940  -1.9533  -1.8939  -1.8550
    -1.8268  -1.7997  -1.7291  -1.6159  -1.5849  -1.5496  -1.4695  -1.4489
    -1.4257  -1.3568  -1.2499  -1.1855  -1.0334  -0.9815  -0.9716  -0.9254
    -0.9118  -0.8734  -0.8311  -0.8060  -0.8043  -0.7821  -0.7702  -0.7468
    -0.6725  -0.6453  -0.6380  -0.5710  -0.5626  -0.5306  -0.4947  -0.4713
    -0.4699  -0.4361  -0.3957  -0.3922  -0.3799  -0.3593  -0.3587  -0.2920
    -0.2604  -0.2334  -0.1793  -0.1592  -0.1402   0.0162   0.1166   0.1292
     0.1470   0.2055   0.2365   0.2406   0.2657   0.3521   0.3712   0.4113
     0.4236   0.4706   0.5079   0.5402   0.5878   0.6079   0.6828   0.7452
     0.7813   0.7893   0.8004   0.8984   0.9104   0.9392   0.9404   1.0103
     1.0291   1.0952   1.0972   1.1167   1.1316   1.1418   1.1599   1.1675
     1.2315   1.2677   1.2868   1.3169   1.3230   1.3520   1.3900   1.4060
     1.4156   1.4445   1.4524   1.4831   1.4944   1.4976   1.5096   1.5229
     1.5416   1.5746   1.5822   1.5973   1.6265   1.6558   1.6723   1.7247
     1.7375   1.7485   1.7801   1.8469   1.8582   1.8730   1.8790   1.9235
     1.9790   1.9959   2.0639   2.0650   2.1131   2.1195   2.1438   2.2577
     2.5589   2.5888   2.7953   2.9151   3.1019   3.1050   3.1438   3.1568
     3.6154   3.6533   3.7182   3.7437   3.8532   3.9922   5.8294   6.5865
     6.5885   6.6060   6.6782   6.6830   6.9590   7.0065   7.0574   7.2007
     7.5450   7.5652   7.6137   7.8872   8.0154   8.0333   8.1752   8.3540
     8.3719   8.3884   8.3983   8.4511   8.5910   8.7235   8.7464   8.8016
     8.8643   8.9350   8.9968   9.0252   9.1142   9.1453   9.2734   9.3052
     9.3362   9.3940

          k = 0.2500 0.7854 0.0000 ( 69960 PWs)   bands (ev):

   -38.0463 -37.8436 -35.6792 -35.4453 -23.3713 -23.1069 -22.6912 -22.6756
   -22.6211 -22.6064 -22.4783 -22.3737 -18.6250 -18.4311 -18.3804 -18.2912
   -18.1918 -18.0594 -17.0594 -16.9084 -16.8586 -16.8361 -16.6909 -16.5947
   -14.8302 -14.7890 -14.6867 -14.6422 -14.6117 -14.5431 -14.5338 -14.5156
   -14.5064 -14.4673 -14.3872 -14.3479 -14.3249 -14.2386 -14.1874 -14.1855
   -14.1251 -14.0257 -13.9993 -13.9446 -13.9401 -13.9330 -13.9226 -13.9149
   -13.9135 -13.8558 -13.8364 -13.7524 -13.7310 -13.5725  -9.0633  -8.7187
    -8.6788  -8.6150  -8.6001  -8.5488  -8.3795  -8.3316  -8.2538  -8.2397
    -8.1183  -8.1120  -8.0974  -8.0324  -8.0148  -7.9875  -7.9712  -7.9545
    -7.9151  -7.8585  -7.7308  -7.6895  -7.6752  -7.4225  -3.8556  -3.7603
    -3.4312  -3.2836  -3.2392  -3.2113  -3.1402  -3.1137  -2.9988  -2.8227
    -2.8202  -2.7745  -2.7737  -2.7667  -2.5261  -2.5110  -2.3621  -2.2084
    -2.1871  -2.1861  -2.1633  -2.1075  -2.1053  -2.0885  -2.0089  -1.9614
    -1.8453  -1.8217  -1.7796  -1.7726  -1.6997  -1.6267  -1.6055  -1.5919
    -1.5537  -1.4474  -1.3471  -1.2735  -1.2198  -1.1768  -1.1536  -1.1237
    -1.0589  -1.0519  -1.0495  -1.0470  -0.9786  -0.9573  -0.9401  -0.8976
    -0.8738  -0.7396  -0.7322  -0.7286  -0.7139  -0.6949  -0.6918  -0.6690
    -0.6290  -0.6258  -0.5798  -0.5558  -0.5477  -0.4645  -0.4629  -0.3620
    -0.3394  -0.3264  -0.2259  -0.2231  -0.1206  -0.0297   0.1022   0.1361
     0.2043   0.2828   0.2884   0.3074   0.3437   0.3584   0.3718   0.4127
     0.4678   0.4935   0.6107   0.6530   0.7219   0.7302   0.9031   0.9468
     0.9795   0.9879   1.0116   1.0336   1.0523   1.0569   1.1133   1.1763
     1.1905   1.2310   1.2410   1.2628   1.2706   1.3079   1.3458   1.3671
     1.3825   1.4148   1.4351   1.4777   1.4810   1.5149   1.5246   1.5615
     1.5857   1.5971   1.6280   1.6671   1.7057   1.7211   1.7559   1.7649
     1.7881   1.7985   1.8229   1.8252   1.8532   1.8619   1.8869   1.9087
     1.9143   1.9418   1.9614   1.9989   2.0158   2.0396   2.0889   2.0949
     2.1230   2.2350   2.2844   2.3122   2.3127   2.4030   2.4698   2.4702
     2.5453   2.5807   2.7699   2.8612   2.9525   2.9567   3.0905   3.1142
     3.9561   3.9987   4.2417   4.2709   4.3323   4.4708   5.6413   6.3306
     6.3361   6.6747   6.8180   6.9223   7.1418   7.3144   7.3234   7.7037
     7.7734   7.9053   7.9535   8.0997   8.2485   8.2532   8.5365   8.6268
     8.6466   8.6712   8.8200   8.9177   8.9697   8.9848   9.1698   9.2007
     9.2264   9.2547   9.3105   9.3413   9.4374   9.4724   9.4921   9.5424
     9.5845   9.6851

          k = 0.2500-1.0472 0.0000 ( 69940 PWs)   bands (ev):

   -38.0436 -37.8409 -35.6775 -35.4436 -23.3512 -23.0877 -22.6658 -22.6501
   -22.5998 -22.5851 -22.4539 -22.3529 -18.7055 -18.5117 -18.3733 -18.2441
   -18.1847 -18.0121 -17.1099 -16.9031 -16.8864 -16.8224 -16.6855 -16.5582
   -14.8491 -14.8060 -14.6158 -14.6030 -14.5419 -14.5243 -14.4813 -14.4796
   -14.4059 -14.4054 -14.3803 -14.3601 -14.3585 -14.1974 -14.1910 -14.1880
   -14.1615 -14.0262 -14.0160 -13.9284 -13.9089 -13.9067 -13.9066 -13.8974
   -13.8958 -13.8645 -13.8623 -13.7627 -13.7059 -13.5710  -9.1650  -8.8025
    -8.7009  -8.6857  -8.6823  -8.5853  -8.4468  -8.4046  -8.3906  -8.3436
    -8.1773  -8.0987  -8.0840  -8.0476  -8.0403  -8.0228  -7.9853  -7.9684
    -7.9252  -7.8679  -7.7300  -7.7168  -7.7156  -7.4496  -4.0541  -3.9601
    -3.6196  -3.4549  -3.4132  -3.4041  -3.3348  -3.3157  -3.1532  -3.0572
    -3.0541  -3.0056  -3.0047  -2.9205  -2.5429  -2.5279  -2.3705  -2.3421
    -2.2359  -2.2098  -2.2059  -2.1654  -2.0996  -2.0939  -2.0154  -1.9619
    -1.9058  -1.8832  -1.7520  -1.7507  -1.6990  -1.6378  -1.6147  -1.5823
    -1.5638  -1.5602  -1.4598  -1.3996  -1.2791  -1.2682  -1.2032  -1.1887
    -1.1859  -1.1526  -1.1199  -1.0836  -1.0778  -1.0717  -0.9507  -0.9187
    -0.9036  -0.8160  -0.8083  -0.8070  -0.7951  -0.7775  -0.7528  -0.7281
    -0.7122  -0.6719  -0.6439  -0.6409  -0.6327  -0.4800  -0.4335  -0.3620
    -0.3288  -0.3029  -0.2027  -0.2016  -0.1256  -0.0399   0.0984   0.1402
     0.2273   0.2539   0.3155   0.3305   0.3533   0.3684   0.3724   0.4111
     0.4173   0.4790   0.6292   0.6975   0.7872   0.7918   0.8395   1.0130
     1.0330   1.0401   1.0631   1.0731   1.0751   1.1238   1.1581   1.2388
     1.2521   1.2802   1.3026   1.3208   1.3354   1.3722   1.4276   1.4340
     1.4401   1.4523   1.4822   1.5041   1.5376   1.5564   1.5828   1.6043
     1.6151   1.6816   1.7197   1.7453   1.7876   1.7931   1.8341   1.8374
     1.8832   1.8922   1.8940   1.9412   1.9683   1.9772   1.9793   2.0760
     2.0846   2.1668   2.2000   2.2087   2.2212   2.2219   2.2250   2.2337
     2.2432   2.2636   2.4350   2.4392   2.4558   2.4795   2.5069   2.5073
     2.6371   2.6379   2.6397   2.7143   2.7340   2.7392   2.9702   3.0046
     3.9926   4.0929   4.3947   4.4277   4.4853   4.6168   5.5476   6.1404
     6.1458   6.5715   6.7134   6.8320   7.5172   7.5201   7.5330   7.6443
     7.7587   7.8917   7.9778   8.1298   8.2786   8.4786   8.5954   8.5993
     9.0028   9.0231   9.0812   9.1158   9.2420   9.2456   9.2608   9.3234
     9.3363   9.4089   9.4438   9.4788   9.5278   9.5974   9.6362   9.6641
     9.6922   9.8306

          k = 0.3750 0.0000 0.0000 ( 70026 PWs)   bands (ev):

   -38.0620 -37.8594 -35.6891 -35.4553 -23.4818 -23.2189 -22.8155 -22.7997
   -22.7595 -22.7449 -22.6049 -22.5014 -18.5331 -18.4139 -18.3029 -18.2256
   -18.0651 -17.8706 -17.0544 -16.9698 -16.7934 -16.7537 -16.7188 -16.4957
   -15.2517 -15.0909 -14.9476 -14.9394 -14.8968 -14.8897 -14.7504 -14.6787
   -14.6481 -14.6158 -14.5915 -14.5377 -14.3952 -14.3286 -14.2427 -14.1016
   -14.0843 -14.0409 -14.0345 -14.0334 -14.0326 -14.0225 -14.0091 -13.9510
   -13.8694 -13.7303 -13.7249 -13.6866 -13.5659 -13.5197  -8.8332  -8.5370
    -8.2302  -8.2148  -8.0999  -8.0815  -8.0688  -8.0131  -7.9978  -7.9819
    -7.9230  -7.8449  -7.8132  -7.7995  -7.7200  -7.7057  -7.6952  -7.6799
    -7.5971  -7.5826  -7.5367  -7.4563  -7.4421  -7.3454  -2.7279  -2.6993
    -2.5827  -2.3525  -2.3367  -2.2760  -2.2122  -2.1469  -2.1439  -2.0540
    -2.0369  -2.0208  -1.9781  -1.9660  -1.9213  -1.8551  -1.8399  -1.7443
    -1.7411  -1.6601  -1.6333  -1.6129  -1.5585  -1.5396  -1.5248  -1.4544
    -1.3626  -1.3551  -1.0563  -0.9991  -0.9684  -0.9505  -0.9484  -0.9469
    -0.9449  -0.9308  -0.8869  -0.8722  -0.8555  -0.8313  -0.8251  -0.7719
    -0.7422  -0.7207  -0.6969  -0.6120  -0.5750  -0.5623  -0.5603  -0.5468
    -0.4549  -0.4544  -0.4485  -0.4308  -0.3980  -0.3674  -0.3597  -0.3294
    -0.3280  -0.2512  -0.2260  -0.2020  -0.1861  -0.1542  -0.1481  -0.0500
    -0.0497  -0.0174  -0.0135  -0.0042  -0.0036   0.0449   0.0685   0.1253
     0.1350   0.1724   0.2191   0.2383   0.2484   0.2503   0.2623   0.2641
     0.3468   0.3555   0.3679   0.3682   0.3764   0.4424   0.4629   0.4731
     0.4942   0.5032   0.5124   0.5745   0.5809   0.5831   0.6781   0.6990
     0.7234   0.7533   0.7932   0.8190   0.8344   0.8883   0.8897   0.9117
     0.9481   0.9556   0.9750   1.0058   1.0471   1.0857   1.1085   1.1434
     1.1708   1.1898   1.2287   1.2970   1.3164   1.3606   1.3694   1.3791
     1.3956   1.4760   1.4822   1.5153   1.5239   1.5574   1.5987   1.6030
     1.6402   1.6658   1.7010   1.7944   1.7998   1.8411   1.8544   1.8563
     1.9033   1.9329   1.9488   1.9787   1.9872   1.9893   2.0150   2.0857
     2.1655   2.2086   2.2508   2.2917   2.3174   2.4139   2.4936   2.5043
     2.6030   2.6652   2.6779   2.6802   2.8174   2.8260   5.6091   5.6406
     5.6780   6.1637   6.1998   6.2053   6.3728   6.4358   6.8643   7.1092
     7.1220   7.1677   7.2169   7.3090   7.4256   7.7873   7.8402   7.8840
     7.9015   8.1654   8.1720   8.3220   8.3421   8.3986   8.4775   8.5136
     8.5727   8.6892   8.7799   8.8961   9.0361   9.0677   9.0848   9.1315
     9.2319   9.2749

          k = 0.3750 0.2618 0.0000 ( 69986 PWs)   bands (ev):

   -38.0593 -37.8567 -35.6874 -35.4536 -23.4629 -23.2005 -22.7926 -22.7769
   -22.7385 -22.7239 -22.5826 -22.4812 -18.4946 -18.4068 -18.2642 -18.2185
   -18.1760 -17.9816 -17.0241 -16.9623 -16.7843 -16.7628 -16.7460 -16.5612
   -15.1488 -15.0010 -14.8926 -14.8844 -14.8537 -14.8375 -14.6871 -14.6557
   -14.6071 -14.5850 -14.5605 -14.5148 -14.3422 -14.2877 -14.2034 -14.1085
   -14.0972 -14.0927 -14.0364 -14.0225 -14.0189 -14.0175 -14.0024 -13.9765
   -13.8574 -13.7587 -13.7537 -13.7024 -13.6093 -13.5321  -8.8106  -8.5379
    -8.4304  -8.3641  -8.1002  -8.0830  -8.0449  -8.0388  -8.0300  -8.0129
    -7.9927  -7.9774  -7.9325  -7.9084  -7.8939  -7.8484  -7.6982  -7.6762
    -7.6162  -7.6016  -7.5850  -7.5706  -7.3676  -7.3433  -2.8197  -2.7733
    -2.6269  -2.4644  -2.4293  -2.3230  -2.3148  -2.1725  -2.1578  -2.1513
    -2.1251  -2.0576  -2.0413  -2.0219  -2.0127  -1.9981  -1.9811  -1.9654
    -1.9444  -1.9164  -1.8953  -1.8425  -1.7647  -1.6913  -1.6249  -1.5110
    -1.4101  -1.3909  -1.3844  -1.3793  -1.3782  -1.3105  -1.2336  -1.1618
    -1.1240  -1.1056  -1.0454  -0.9545  -0.8896  -0.8604  -0.8482  -0.8077
    -0.7923  -0.7595  -0.7546  -0.7391  -0.7072  -0.6629  -0.6426  -0.5813
    -0.5489  -0.5341  -0.5304  -0.4667  -0.4497  -0.4145  -0.4023  -0.3668
    -0.2939  -0.2556  -0.2412  -0.2110  -0.1458  -0.0977  -0.0837  -0.0794
    -0.0648  -0.0605  -0.0261   0.0131   0.0268   0.0694   0.0844   0.1473
     0.1497   0.1602   0.1820   0.2137   0.2164   0.2887   0.3225   0.3660
     0.3837   0.3907   0.3938   0.4097   0.4233   0.4512   0.4585   0.4938
     0.5195   0.5366   0.5417   0.5544   0.5951   0.6498   0.6598   0.7264
     0.7418   0.8231   0.9233   0.9368   0.9647   0.9881   1.0210   1.0301
     1.0485   1.0707   1.0896   1.1179   1.1381   1.1454   1.2051   1.2179
     1.2297   1.2406   1.2673   1.2877   1.2996   1.3183   1.3369   1.3622
     1.4973   1.5046   1.5228   1.5291   1.5332   1.5803   1.6035   1.6170
     1.6371   1.6533   1.6607   1.6771   1.6887   1.7446   1.7726   1.7813
     1.8046   1.8104   1.8778   1.9537   2.0667   2.1149   2.1413   2.2062
     2.5183   2.5491   2.7289   2.7777   2.8000   2.8971   2.9008   2.9264
     2.9479   2.9583   2.9801   2.9931   3.1063   3.2029   5.7766   5.9408
     5.9442   6.3281   6.4041   6.4065   6.5759   6.6388   7.0852   7.1820
     7.2940   7.4385   7.4500   7.4846   7.5199   7.6643   7.9424   7.9921
     8.0701   8.0728   8.3081   8.3304   8.4322   8.4677   8.5520   8.5872
     8.6160   8.6589   8.7151   8.7612   8.9096   9.0153   9.1255   9.1921
     9.2245   9.2351

          k = 0.3750 0.5236 0.0000 ( 69907 PWs)   bands (ev):

   -38.0528 -37.8501 -35.6833 -35.4495 -23.4166 -23.1553 -22.7365 -22.7207
   -22.6868 -22.6723 -22.5277 -22.4316 -18.4159 -18.3955 -18.3899 -18.2220
   -18.2015 -18.1643 -16.9495 -16.9454 -16.9270 -16.7293 -16.7089 -16.6813
   -14.9238 -14.8243 -14.7793 -14.7512 -14.7220 -14.6972 -14.6379 -14.5525
   -14.5336 -14.4937 -14.4774 -14.4664 -14.2514 -14.2264 -14.2105 -14.1654
   -14.1355 -14.1152 -14.0572 -14.0220 -13.9831 -13.9829 -13.9669 -13.9646
   -13.8360 -13.8072 -13.7733 -13.7546 -13.7203 -13.5541  -8.7699  -8.7523
    -8.6362  -8.4232  -8.3369  -8.3223  -8.2336  -8.1994  -8.1849  -8.0829
    -8.0484  -8.0474  -8.0297  -7.9805  -7.9651  -7.9393  -7.8684  -7.7940
    -7.7795  -7.7629  -7.6433  -7.6288  -7.5590  -7.3873  -3.2292  -3.1422
    -2.9357  -2.8749  -2.8708  -2.6909  -2.6139  -2.5826  -2.5741  -2.4048
    -2.3837  -2.3624  -2.2775  -2.2677  -2.2437  -2.2041  -2.2008  -2.1160
    -2.1106  -2.0693  -2.0525  -2.0505  -2.0404  -1.9936  -1.9755  -1.9484
    -1.9026  -1.7394  -1.6664  -1.5837  -1.5785  -1.5176  -1.4520  -1.4388
    -1.4120  -1.3089  -1.3009  -1.2102  -1.1984  -1.1671  -1.0878  -0.9895
    -0.9541  -0.9428  -0.8748  -0.8465  -0.8320  -0.7782  -0.7631  -0.7590
    -0.7386  -0.6912  -0.6457  -0.5884  -0.5609  -0.5017  -0.4850  -0.4563
    -0.4481  -0.4401  -0.4054  -0.4015  -0.3930  -0.3637  -0.3524  -0.2671
    -0.2289  -0.2237  -0.1619  -0.1476  -0.1249  -0.0956   0.0321   0.0615
     0.1440   0.1850   0.2003   0.2261   0.3378   0.3974   0.4213   0.4512
     0.4924   0.5086   0.5295   0.5563   0.5871   0.6337   0.6731   0.7048
     0.7988   0.8536   0.8628   0.9158   0.9363   0.9496   0.9609   1.0019
     1.0403   1.0537   1.0872   1.0975   1.1019   1.1058   1.1229   1.1365
     1.1948   1.2386   1.2695   1.3072   1.3294   1.3700   1.3832   1.3911
     1.4361   1.4567   1.4703   1.4972   1.5101   1.5407   1.5458   1.5628
     1.5722   1.5920   1.5950   1.6032   1.6201   1.6460   1.6721   1.6802
     1.7011   1.7300   1.7594   1.8131   1.8295   1.8681   1.9055   1.9247
     1.9395   2.0132   2.0264   2.0426   2.0568   2.1219   2.1897   2.3199
     2.9079   2.9312   3.0621   3.1034   3.1072   3.1256   3.1974   3.3018
     3.5320   3.5672   3.6198   3.6480   3.6997   3.8357   5.9335   6.6342
     6.6384   6.6728   6.6956   6.6974   6.9819   7.0654   7.1416   7.2480
     7.4580   7.5093   7.6864   7.8521   8.1020   8.1937   8.2084   8.2574
     8.2804   8.3664   8.3790   8.5409   8.5564   8.6693   8.7372   8.8317
     8.8549   8.9467   8.9993   9.0602   9.0808   9.1475   9.2042   9.2333
     9.2842   9.3429

          k = 0.3750 0.7854 0.0000 ( 69976 PWs)   bands (ev):

   -38.0463 -37.8436 -35.6792 -35.4453 -23.3694 -23.1091 -22.6790 -22.6630
   -22.6336 -22.6192 -22.4714 -22.3808 -18.6249 -18.4311 -18.3730 -18.2899
   -18.1845 -18.0581 -17.0593 -16.9305 -16.8638 -16.8361 -16.7134 -16.6002
   -14.7801 -14.7455 -14.6754 -14.6488 -14.6129 -14.5214 -14.5083 -14.5035
   -14.4802 -14.4505 -14.3851 -14.3448 -14.3322 -14.2993 -14.2331 -14.1792
   -14.0984 -14.0400 -14.0222 -13.9814 -13.9350 -13.9340 -13.9201 -13.9188
   -13.9163 -13.8652 -13.8230 -13.7622 -13.7444 -13.5752  -8.9800  -8.7457
    -8.6870  -8.5336  -8.5324  -8.5188  -8.3682  -8.2638  -8.2612  -8.2465
    -8.1903  -8.1086  -8.0943  -8.0234  -8.0056  -7.9963  -7.9916  -7.9782
    -7.9164  -7.8329  -7.7945  -7.7802  -7.7314  -7.5172  -3.7142  -3.6255
    -3.3644  -3.3111  -3.3090  -3.2071  -3.1225  -3.0490  -3.0260  -2.8191
    -2.8095  -2.7988  -2.7848  -2.7843  -2.4468  -2.4305  -2.2869  -2.2264
    -2.2168  -2.0943  -2.0909  -2.0696  -2.0607  -2.0524  -1.9623  -1.9531
    -1.9528  -1.9322  -1.8699  -1.7672  -1.6950  -1.6692  -1.6011  -1.5589
    -1.5541  -1.5372  -1.5227  -1.4922  -1.3877  -1.2809  -1.2527  -1.1844
    -1.1326  -1.0843  -1.0667  -1.0430  -1.0397  -0.9895  -0.8777  -0.8428
    -0.8230  -0.7543  -0.7167  -0.6998  -0.6918  -0.6822  -0.6726  -0.6473
    -0.6395  -0.6082  -0.5638  -0.5587  -0.5555  -0.4595  -0.3880  -0.3682
    -0.3485  -0.3337  -0.2727  -0.2593  -0.1845  -0.0498  -0.0042   0.1374
     0.1851   0.2327   0.2527   0.3343   0.3971   0.4222   0.5128   0.5296
     0.5616   0.5923   0.6298   0.6449   0.7079   0.8425   0.8559   0.8974
     1.0032   1.0231   1.0364   1.0402   1.0748   1.1046   1.1588   1.1751
     1.1803   1.2089   1.2153   1.2828   1.3013   1.3285   1.3728   1.3820
     1.4231   1.4336   1.4728   1.4743   1.4875   1.5004   1.5118   1.5159
     1.5181   1.5491   1.6303   1.6570   1.6834   1.6998   1.7099   1.7290
     1.7678   1.7811   1.7972   1.8160   1.8297   1.8347   1.8420   1.8625
     1.8771   1.9089   1.9285   1.9917   2.0052   2.0156   2.0775   2.0983
     2.1172   2.1999   2.2120   2.3493   2.3494   2.4102   2.4350   2.4354
     2.8918   2.8965   2.9589   2.9625   3.0762   3.1430   3.3079   3.4101
     3.9038   3.9645   3.9845   4.0095   4.0660   4.1934   5.8273   6.5615
     6.5630   6.5809   6.8124   6.9863   7.1223   7.1289   7.2262   7.5527
     7.6721   7.8308   7.9564   8.0542   8.1993   8.2366   8.5444   8.6322
     8.6704   8.6961   8.7722   8.9092   8.9142   9.0333   9.1779   9.2279
     9.3072   9.3730   9.4432   9.4659   9.4956   9.5315   9.5748   9.6732
     9.6891   9.7415

          k = 0.3750-1.0472 0.0000 ( 69970 PWs)   bands (ev):

   -38.0436 -37.8409 -35.6775 -35.4436 -23.3495 -23.0896 -22.6547 -22.6387
   -22.6112 -22.5968 -22.4477 -22.3594 -18.7054 -18.5116 -18.3659 -18.2429
   -18.1774 -18.0109 -17.1099 -16.9245 -16.8865 -16.8272 -16.7072 -16.5633
   -14.8005 -14.7536 -14.6553 -14.6120 -14.5377 -14.5179 -14.4358 -14.4168
   -14.4054 -14.3977 -14.3604 -14.3587 -14.3567 -14.2335 -14.2301 -14.1923
   -14.1594 -14.0604 -13.9911 -13.9447 -13.9233 -13.9116 -13.9069 -13.9062
   -13.9004 -13.8991 -13.8360 -13.7537 -13.7423 -13.5885  -9.0360  -8.7165
    -8.6951  -8.6810  -8.5694  -8.5543  -8.3433  -8.3231  -8.2708  -8.2663
    -8.2524  -8.2414  -8.2267  -8.0256  -8.0080  -8.0008  -7.9990  -7.9843
    -7.9634  -7.9236  -7.8965  -7.8823  -7.7195  -7.5961  -3.9113  -3.8251
    -3.5302  -3.5009  -3.4789  -3.4155  -3.3281  -3.2169  -3.2107  -3.0467
    -3.0433  -3.0169  -3.0162  -2.9646  -2.4515  -2.4356  -2.2807  -2.2263
    -2.2222  -2.2210  -2.1142  -2.0907  -2.0893  -2.0483  -2.0335  -1.9530
    -1.8811  -1.8760  -1.8409  -1.8338  -1.7959  -1.7860  -1.7096  -1.6409
[...]
    -1.9598  -1.9155  -1.9041  -1.8552  -1.8392  -1.7008  -1.6228  -1.5080
    -1.3967  -1.3875  -1.3825  -1.3823  -1.3800  -1.2970  -1.2103  -1.1677
    -1.0369  -1.0059  -0.9948  -0.9141  -0.9082  -0.9049  -0.8883  -0.8515
    -0.8098  -0.8082  -0.7893  -0.7682  -0.7450  -0.6383  -0.6378  -0.6149
    -0.5778  -0.5356  -0.5277  -0.4972  -0.4464  -0.4416  -0.4097  -0.3793
    -0.2946  -0.2617  -0.2073  -0.1794  -0.1466  -0.1432  -0.0877  -0.0804
    -0.0755  -0.0487  -0.0380  -0.0277   0.0232   0.0860   0.0946   0.1439
     0.1484   0.1533   0.1785   0.2122   0.2251   0.2958   0.3381   0.3650
     0.3781   0.4056   0.4062   0.4266   0.4542   0.4642   0.4839   0.4841
     0.4857   0.5231   0.5410   0.5443   0.6172   0.6485   0.6807   0.7398
     0.7540   0.8307   0.8968   0.9424   0.9723   0.9836   1.0181   1.0292
     1.0625   1.0670   1.0733   1.0951   1.1011   1.1439   1.1510   1.2038
     1.2300   1.2339   1.2884   1.3023   1.3163   1.3375   1.3580   1.4413
     1.4436   1.4928   1.5371   1.5635   1.5756   1.5791   1.5851   1.5910
     1.6019   1.6121   1.6316   1.6808   1.6914   1.7322   1.7457   1.7943
     1.8011   1.8104   1.8241   1.9908   2.0666   2.1029   2.1506   2.2000
     2.6171   2.6470   2.7308   2.7672   2.8462   2.9200   2.9312   2.9318
     2.9471   2.9676   2.9937   3.0245   3.0360   3.1444   5.8473   6.1449
     6.1462   6.1623   6.1645   6.3181   6.7096   6.7907   7.0391   7.1521
     7.2034   7.3792   7.5340   7.6015   7.7292   7.7501   7.7790   7.7996
     7.9953   8.1534   8.1967   8.3665   8.3782   8.4381   8.5669   8.6148
     8.6182   8.6703   8.7598   8.8721   8.9374   8.9702   9.0371   9.1708
     9.2015   9.2204

          k =-0.5000 0.5236 0.0000 ( 69914 PWs)   bands (ev):

   -38.0528 -37.8501 -35.6833 -35.4495 -23.4156 -23.1564 -22.7264 -22.7101
   -22.6971 -22.6831 -22.5238 -22.4358 -18.4159 -18.3949 -18.3867 -18.2219
   -18.1983 -18.1637 -16.9557 -16.9511 -16.9274 -16.7390 -16.7094 -16.6836
   -14.8676 -14.7902 -14.7869 -14.7573 -14.7098 -14.7073 -14.6332 -14.5582
   -14.5435 -14.5029 -14.4800 -14.4791 -14.2532 -14.2085 -14.2007 -14.1784
   -14.1650 -14.1103 -14.0791 -14.0147 -13.9819 -13.9814 -13.9691 -13.9661
   -13.8335 -13.8089 -13.7709 -13.7565 -13.7207 -13.5519  -8.7563  -8.7229
    -8.7143  -8.4227  -8.3030  -8.2882  -8.2739  -8.2596  -8.1816  -8.0899
    -8.0473  -8.0353  -8.0291  -7.9952  -7.9799  -7.9646  -7.8742  -7.7629
    -7.7040  -7.6931  -7.6897  -7.6784  -7.4969  -7.4120  -3.1044  -3.0266
    -3.0140  -2.9668  -2.7605  -2.7397  -2.6232  -2.5835  -2.4753  -2.4450
    -2.3468  -2.3325  -2.3066  -2.2890  -2.1986  -2.1804  -2.1746  -2.1735
    -2.1634  -2.1588  -2.0458  -2.0435  -2.0241  -2.0201  -1.9651  -1.9436
    -1.9267  -1.8719  -1.5701  -1.4833  -1.4754  -1.4637  -1.4439  -1.4370
    -1.4094  -1.3632  -1.3618  -1.3078  -1.2827  -1.2236  -1.1185  -1.0458
    -0.9906  -0.9716  -0.9107  -0.8609  -0.8212  -0.7763  -0.7585  -0.7290
    -0.7212  -0.7149  -0.6618  -0.6327  -0.5474  -0.4916  -0.4815  -0.4522
    -0.4304  -0.4262  -0.4202  -0.4163  -0.4037  -0.3584  -0.3043  -0.2826
    -0.2344  -0.1955  -0.1642  -0.1572  -0.1169  -0.1025  -0.0576   0.0196
     0.1569   0.1683   0.2016   0.2192   0.3804   0.4558   0.4585   0.4666
     0.4714   0.4908   0.5449   0.5987   0.6045   0.6309   0.6464   0.7035
     0.8193   0.8625   0.9055   0.9312   0.9359   0.9656   0.9917   1.0074
     1.0216   1.0405   1.0710   1.0840   1.0858   1.0933   1.0941   1.1128
     1.1799   1.2260   1.2736   1.2931   1.3284   1.3485   1.3971   1.4102
     1.4538   1.4682   1.4784   1.4935   1.5110   1.5370   1.5507   1.5661
     1.5725   1.5729   1.5934   1.6090   1.6399   1.6514   1.6753   1.6850
     1.7451   1.7473   1.7686   1.7790   1.7817   1.8184   1.9061   1.9671
     1.9809   1.9814   1.9825   2.0208   2.0521   2.1233   2.2056   2.3418
     3.0728   3.0765   3.1028   3.1061   3.2511   3.2847   3.3031   3.3449
     3.4034   3.4879   3.5550   3.6247   3.6372   3.6590   5.9825   6.6590
     6.6676   6.6889   6.6939   6.7110   7.0028   7.0848   7.2008   7.2518
     7.3965   7.4815   7.7673   7.8002   8.0631   8.2123   8.2576   8.3176
     8.3282   8.3399   8.3482   8.4963   8.6370   8.6679   8.7597   8.8138
     8.8880   8.9096   8.9629   9.0401   9.0687   9.1500   9.1655   9.1918
     9.3151   9.3237

          k =-0.5000 0.7854 0.0000 ( 69938 PWs)   bands (ev):

   -38.0463 -37.8436 -35.6792 -35.4453 -23.3686 -23.1100 -22.6711 -22.6547
   -22.6417 -22.6277 -22.4683 -22.3841 -18.6248 -18.4310 -18.3698 -18.2894
   -18.1814 -18.0576 -17.0593 -16.9397 -16.8659 -16.8360 -16.7226 -16.6024
   -14.7386 -14.7122 -14.7010 -14.6913 -14.5663 -14.5189 -14.5088 -14.4895
   -14.4432 -14.4406 -14.3939 -14.3933 -14.3233 -14.2870 -14.2707 -14.1745
   -14.0698 -14.0648 -14.0297 -14.0134 -13.9313 -13.9287 -13.9237 -13.9228
   -13.9043 -13.8739 -13.8053 -13.7857 -13.7417 -13.5767  -8.8811  -8.8453
    -8.6994  -8.4728  -8.4296  -8.4143  -8.3911  -8.3769  -8.3530  -8.2640
    -8.1812  -8.0897  -8.0268  -8.0122  -8.0090  -7.9969  -7.9331  -7.9325
    -7.9186  -7.9182  -7.9161  -7.7593  -7.7142  -7.5991  -3.6163  -3.5331
    -3.4365  -3.3760  -3.2209  -3.2195  -3.1211  -3.0946  -2.9602  -2.8445
    -2.7974  -2.7965  -2.7965  -2.7962  -2.3671  -2.3526  -2.2867  -2.2682
    -2.1856  -2.1612  -2.0663  -2.0583  -2.0391  -2.0326  -1.9521  -1.9480
    -1.9125  -1.8965  -1.8522  -1.8046  -1.7870  -1.7211  -1.7162  -1.6839
    -1.5569  -1.5376  -1.4476  -1.4371  -1.4280  -1.3708  -1.3383  -1.2808
    -1.1233  -1.1082  -1.0718  -1.0391  -1.0258  -1.0020  -0.8272  -0.8269
    -0.7645  -0.7572  -0.7271  -0.7108  -0.6973  -0.6939  -0.6722  -0.6535
    -0.6238  -0.6165  -0.5642  -0.5631  -0.5032  -0.4391  -0.3744  -0.3643
    -0.3565  -0.3460  -0.3002  -0.2510  -0.2043  -0.1584   0.0301   0.0649
     0.2043   0.2309   0.2851   0.2854   0.4760   0.4943   0.5093   0.5305
     0.6007   0.6418   0.6678   0.6854   0.7462   0.7531   0.8808   0.9008
     1.0122   1.0248   1.0583   1.0733   1.0770   1.1043   1.1117   1.1163
     1.1517   1.2221   1.3058   1.3160   1.3463   1.3685   1.3730   1.3887
     1.4072   1.4183   1.4491   1.4551   1.4692   1.4958   1.5264   1.5755
     1.5832   1.5869   1.5893   1.6227   1.6434   1.6561   1.6843   1.7095
     1.7400   1.7438   1.7655   1.7676   1.7989   1.8212   1.8470   1.8661
     1.8870   1.9051   1.9286   1.9834   1.9937   2.0211   2.0761   2.0988
     2.1153   2.1759   2.1794   2.3872   2.3874   2.3979   2.3979   2.4085
     2.9396   2.9417   2.9642   2.9674   3.4940   3.5395   3.5424   3.5951
     3.6836   3.6981   3.8233   3.8246   3.9821   4.0183   5.9548   6.4359
     6.8019   6.8086   6.8170   6.8491   6.9390   7.0867   7.2999   7.4303
     7.6043   7.8042   7.9712   8.0382   8.1952   8.2288   8.5489   8.6228
     8.7352   8.7409   8.7600   8.8193   8.8264   9.1019   9.1840   9.2034
     9.2987   9.5129   9.5560   9.5617   9.6210   9.6405   9.6683   9.7037
     9.7527   9.7568

          k =-0.5000-1.0472 0.0000 ( 69948 PWs)   bands (ev):

   -38.0436 -37.8409 -35.6775 -35.4436 -23.3488 -23.0904 -22.6478 -22.6314
   -22.6182 -22.6043 -22.4448 -22.3624 -18.7054 -18.5116 -18.3628 -18.2424
   -18.1743 -18.0104 -17.1100 -16.9333 -16.8865 -16.8292 -16.7161 -16.5654
   -14.7612 -14.6968 -14.6960 -14.6754 -14.5367 -14.4640 -14.4152 -14.4050
   -14.3946 -14.3788 -14.3596 -14.3580 -14.3573 -14.2733 -14.2582 -14.1907
   -14.1364 -14.0895 -13.9573 -13.9505 -13.9488 -13.9379 -13.9045 -13.9036
   -13.9032 -13.9024 -13.8055 -13.7876 -13.7378 -13.5969  -8.9139  -8.8395
    -8.6806  -8.6250  -8.4330  -8.4172  -8.3824  -8.3684  -8.3499  -8.3379
    -8.2128  -8.1123  -8.1079  -8.0929  -8.0845  -8.0709  -8.0057  -8.0032
    -7.9878  -7.9874  -7.9251  -7.8718  -7.7187  -7.7031  -3.8176  -3.7378
    -3.5981  -3.5400  -3.4251  -3.4203  -3.3237  -3.2590  -3.1535  -3.0364
    -3.0302  -3.0295  -3.0293  -2.9984  -2.3729  -2.3600  -2.2626  -2.2452
    -2.1786  -2.1237  -2.1235  -2.0333  -2.0251  -2.0193  -2.0141  -2.0063
    -1.9327  -1.9125  -1.9104  -1.8940  -1.8546  -1.8186  -1.8107  -1.8066
    -1.6073  -1.6021  -1.5640  -1.5266  -1.4738  -1.4155  -1.3734  -1.3137
    -1.1854  -1.1669  -1.1340  -1.1191  -1.1117  -1.0950  -0.8427  -0.8190
    -0.8075  -0.8062  -0.7548  -0.7540  -0.7399  -0.7360  -0.7347  -0.7086
    -0.7074  -0.6940  -0.6401  -0.6336  -0.5387  -0.4540  -0.3807  -0.3782
    -0.3778  -0.3464  -0.3192  -0.2502  -0.2223  -0.1686   0.0544   0.0740
     0.2222   0.2611   0.3235   0.3258   0.5026   0.5165   0.5183   0.5577
     0.5772   0.7118   0.7239   0.7488   0.7678   0.7980   1.0076   1.0298
     1.0566   1.0905   1.1510   1.1539   1.1652   1.1939   1.1947   1.2321
     1.2395   1.2455   1.2860   1.3160   1.3320   1.3446   1.3695   1.3866
     1.3951   1.4531   1.4690   1.4751   1.5049   1.5367   1.5494   1.5743
     1.6095   1.6160   1.6511   1.6911   1.7003   1.7029   1.7588   1.7645
     1.7725   1.8522   1.8579   1.9060   1.9283   1.9397   1.9454   2.0148
     2.0436   2.0722   2.0980   2.1261   2.1629   2.2176   2.2193   2.2199
     2.2227   2.2872   2.2967   2.4129   2.5664   2.5672   2.5758   2.5761
     2.7370   2.7394   2.7511   2.7551   3.5083   3.5567   3.5937   3.6599
     3.6920   3.7732   3.8330   3.8878   4.0430   4.1335   5.8848   6.2946
     6.7225   6.7507   6.7571   6.7953   6.9005   7.0098   7.3486   7.6347
     7.6421   7.7389   7.9487   7.9705   8.2761   8.3761   8.6166   8.8666
     8.8868   8.8912   9.1134   9.2499   9.2767   9.4189   9.4204   9.4442
     9.4855   9.5175   9.5454   9.6809   9.8133   9.8433   9.8468   9.8691
     9.8856   9.9415

     the Fermi energy is     2.7477 ev

!    total energy              =   -3711.69815157 Ry
     Harris-Foulkes estimate   =   -3711.69815155 Ry
     estimated scf accuracy    <          4.8E-09 Ry

     The total energy is the sum of the following terms:

     one-electron contribution =  -61017.93436612 Ry
     hartree contribution      =   30815.37245583 Ry
     xc contribution           =   -1263.82945329 Ry
     ewald contribution        =   27754.70563639 Ry
     smearing contrib. (-TS)   =      -0.01242438 Ry

     convergence has been achieved in  35 iterations

     negative rho (up, down):  9.198E-02 0.000E+00

     Forces acting on atoms (cartesian axes, Ry/au):

     atom    1 type  4   force =    -0.00000660    0.00000000   -0.00009893
     atom    2 type  4   force =     0.00000660    0.00000000   -0.00009893
     atom    3 type  3   force =    -0.00001307    0.00000000   -0.00008892
     atom    4 type  3   force =     0.00001307    0.00000000   -0.00008892
     atom    5 type  4   force =    -0.00000077    0.00000000   -0.00003443
     atom    6 type  4   force =     0.00000077    0.00000000   -0.00003443
     atom    7 type  1   force =     0.00000000    0.00000000   -0.00011965
     atom    8 type  1   force =     0.00000000    0.00000000   -0.00011046
     atom    9 type  3   force =     0.00003548    0.00000000    0.00003349
     atom   10 type  3   force =    -0.00003548    0.00000000    0.00003349
     atom   11 type  4   force =     0.00000000    0.00000000    0.00008300
     atom   12 type  4   force =    -0.00000057    0.00000000    0.00003534
     atom   13 type  4   force =     0.00000057    0.00000000    0.00003534
     atom   14 type  4   force =     0.00000000    0.00000000    0.00013233
     atom   15 type  2   force =     0.00000000    0.00000000   -0.00048606
     atom   16 type  5   force =     0.00000000    0.00000000   -0.00076389
     atom   17 type  4   force =     0.00007456    0.00000000    0.00069946
     atom   18 type  4   force =    -0.00007456    0.00000000    0.00069946
     atom   19 type  4   force =     0.00000000    0.00000000    0.00085893
     atom   20 type  4   force =     0.00000000    0.00000000    0.00110350
     atom   21 type  3   force =    -0.00008801    0.00000000   -0.00095068
     atom   22 type  3   force =     0.00008801    0.00000000   -0.00095068
     atom   23 type  1   force =     0.00000000    0.00000000   -0.00326556
     atom   24 type  1   force =     0.00000000    0.00000000   -0.00377496
     atom   25 type  4   force =    -0.00056331    0.00000000    0.00410858
     atom   26 type  4   force =     0.00056331    0.00000000    0.00410858
     atom   27 type  4   force =     0.00082849    0.00000000    0.00864301
     atom   28 type  4   force =    -0.00082849    0.00000000    0.00864301
     atom   29 type  3   force =     0.00080263    0.00000000   -0.00518724
     atom   30 type  3   force =    -0.00080263    0.00000000   -0.00518724
     atom   31 type  4   force =    -0.00622788    0.00000000    0.00771565
     atom   32 type  4   force =     0.00622788    0.00000000    0.00771565
     atom   33 type  1   force =     0.00000000    0.00000000    0.00336015
     atom   34 type  1   force =     0.00000000    0.00000000    0.01846214
     atom   35 type  3   force =    -0.00608772    0.00000000    0.00266358
     atom   36 type  3   force =     0.00608772    0.00000000    0.00266358
     atom   37 type  4   force =     0.00000000    0.00000000   -0.00752713
     atom   38 type  4   force =     0.00000000    0.00000000    0.00199421
     atom   39 type  4   force =     0.00146439    0.00000000   -0.00214730
     atom   40 type  4   force =    -0.00146439    0.00000000   -0.00214730
     atom   41 type  5   force =     0.00000000    0.00000000   -0.02890997
     atom   42 type  2   force =     0.00000000    0.00000000   -0.02358279
     atom   43 type  4   force =     0.00000000    0.00000000    0.00356829
     atom   44 type  4   force =     0.00023098    0.00000000    0.00192537
     atom   45 type  4   force =    -0.00023098    0.00000000    0.00192537
     atom   46 type  4   force =     0.00000000    0.00000000    0.00281982
     atom   47 type  3   force =     0.00048202    0.00000000    0.00079607
     atom   48 type  3   force =    -0.00048202    0.00000000    0.00079607
     atom   49 type  1   force =     0.00000000    0.00000000   -0.00064374
     atom   50 type  1   force =     0.00000000    0.00000000   -0.00073768
     atom   51 type  4   force =     0.00005572    0.00000000    0.00063665
     atom   52 type  4   force =    -0.00005572    0.00000000    0.00063665
     atom   53 type  3   force =    -0.00003171    0.00000000   -0.00026249
     atom   54 type  3   force =     0.00003171    0.00000000   -0.00026249
     atom   55 type  4   force =     0.00000110    0.00000000    0.00028256
     atom   56 type  4   force =    -0.00000110    0.00000000    0.00028256

     Total force =     0.049052     Total SCF correction =     0.000263


     Computing stress (Cartesian axis) and pressure


     negative rho (up, down):  9.198E-02 0.000E+00
          total   stress  (Ry/bohr**3)                   (kbar)     P=       -6.73
  -0.00005690   0.00000000   0.00000000           -8.37        0.00        0.00
   0.00000000  -0.00003597   0.00000000            0.00       -5.29        0.00
   0.00000000   0.00000000  -0.00004440            0.00        0.00       -6.53

 
     init_run     :     24.51s CPU     25.42s WALL (       1 calls)
     electrons    :   1716.89s CPU   1795.88s WALL (       1 calls)
     forces       :     10.25s CPU     10.93s WALL (       1 calls)
     stress       :     93.99s CPU     95.71s WALL (       1 calls)

     Called by init_run:
     wfcinit      :     20.05s CPU     20.40s WALL (       1 calls)
     potinit      :      0.95s CPU      0.98s WALL (       1 calls)
     hinit0       :      1.75s CPU      1.78s WALL (       1 calls)

     Called by electrons:
     c_bands      :   1446.10s CPU   1484.07s WALL (      35 calls)
     sum_band     :    205.78s CPU    229.14s WALL (      35 calls)
     v_of_rho     :      3.56s CPU      3.64s WALL (      36 calls)
     newd         :     29.98s CPU     47.70s WALL (      36 calls)
     mix_rho      :     32.14s CPU     32.42s WALL (      35 calls)

     Called by c_bands:
     init_us_2    :      8.62s CPU      8.72s WALL (    1825 calls)
     cegterg      :   1382.35s CPU   1419.18s WALL (     875 calls)

     Called by sum_band:
     sum_band:bec :      1.07s CPU      1.07s WALL (     875 calls)
     addusdens    :     31.87s CPU     52.93s WALL (      35 calls)

     Called by *egterg:
     h_psi        :    655.29s CPU    669.06s WALL (    4589 calls)
     s_psi        :    100.07s CPU    100.71s WALL (    4589 calls)
     g_psi        :      1.46s CPU      1.48s WALL (    3689 calls)
     cdiaghg      :    341.26s CPU    342.62s WALL (    4564 calls)

     Called by h_psi:
     h_psi:calbec :    106.62s CPU    107.07s WALL (    4589 calls)
     vloc_psi     :    445.42s CPU    452.15s WALL (    4589 calls)
     add_vuspsi   :    100.35s CPU    100.85s WALL (    4589 calls)

     General routines
     calbec       :    166.20s CPU    166.87s WALL (    5589 calls)
     fft          :      3.16s CPU      3.20s WALL (     491 calls)
     ffts         :     18.15s CPU     18.32s WALL (   20899 calls)
     fftw         :    508.75s CPU    516.30s WALL ( 1245668 calls)
     interpolate  :      0.25s CPU      0.25s WALL (      36 calls)
 
     Parallel routines
     fft_scatt_xy :     59.86s CPU     60.85s WALL ( 1267058 calls)
     fft_scatt_yz :    329.11s CPU    334.00s WALL ( 1267058 calls)
 
     PWSCF        :  30m46.90s CPU  32m 9.24s WALL

 
   This run was terminated on:  14:56:58  25May2021            

=------------------------------------------------------------------------------=
   JOB DONE.
=------------------------------------------------------------------------------=
[1621969018.193604] [holy7c04405:157287:0]          mpool.c:43   UCX  WARN  object 0x46ba040 was not returned to mpool ucp_requests
[1621969018.195507] [holy7c04403:188266:0]          mpool.c:43   UCX  WARN  object 0x41595c0 was not returned to mpool ucp_requests
[1621969018.202776] [holy7c04312:88763:0]          mpool.c:43   UCX  WARN  object 0x3c5c040 was not returned to mpool ucp_requests
[1621969018.200926] [holy7c04405:157286:0]          mpool.c:43   UCX  WARN  object 0x2a14e00 was not returned to mpool ucp_requests
[1621969018.200458] [holy7c04405:157284:0]          mpool.c:43   UCX  WARN  object 0x47eb700 was not returned to mpool ucp_requests
[1621969018.200477] [holy7c04405:157284:0]          mpool.c:43   UCX  WARN  object 0x47eb8c0 was not returned to mpool ucp_requests
[1621969018.211949] [holy7c04403:188261:0]          mpool.c:43   UCX  WARN  object 0x418fa00 was not returned to mpool ucp_requests
[1621969018.211848] [holy7c04403:188263:0]          mpool.c:43   UCX  WARN  object 0x3dc90c0 was not returned to mpool ucp_requests
[1621969018.211880] [holy7c04403:188263:0]          mpool.c:43   UCX  WARN  object 0x3dc9600 was not returned to mpool ucp_requests
[1621969018.212120] [holy7c04403:188265:0]          mpool.c:43   UCX  WARN  object 0x338f640 was not returned to mpool ucp_requests
[1621969018.202726] [holy7c04312:88769:0]          mpool.c:43   UCX  WARN  object 0x3d67d80 was not returned to mpool ucp_requests
[1621969018.202888] [holy7c04312:88765:0]          mpool.c:43   UCX  WARN  object 0x37c4d80 was not returned to mpool ucp_requests
[1621969018.202914] [holy7c04312:88765:0]          mpool.c:43   UCX  WARN  object 0x37c4f40 was not returned to mpool ucp_requests
[1621969018.210185] [holy7c04312:88770:0]          mpool.c:43   UCX  WARN  object 0x36cc180 was not returned to mpool ucp_requests
[1621969018.210203] [holy7c04312:88770:0]          mpool.c:43   UCX  WARN  object 0x36cc340 was not returned to mpool ucp_requests
[1621969018.212574] [holy7c04312:88764:0]          mpool.c:43   UCX  WARN  object 0x42235c0 was not returned to mpool ucp_requests
[1621969018.215348] [holy7c04312:88768:0]          mpool.c:43   UCX  WARN  object 0x2f48080 was not returned to mpool ucp_requests
[1621969018.215369] [holy7c04312:88768:0]          mpool.c:43   UCX  WARN  object 0x2f48780 was not returned to mpool ucp_requests
