
     Program PWSCF v.6.5 starts on 28May2021 at 10: 0:21 

     This program is part of the open-source Quantum ESPRESSO suite
     for quantum simulation of materials; please cite
         "P. Giannozzi et al., J. Phys.:Condens. Matter 21 395502 (2009);
         "P. Giannozzi et al., J. Phys.:Condens. Matter 29 465901 (2017);
          URL http://www.quantum-espresso.org", 
     in publications or presentations arising from this work. More details at
     http://www.quantum-espresso.org/quote

     Parallel version (MPI), running on    32 processors

     MPI processes distributed on     4 nodes
     R & G space division:  proc/nbgrp/npool/nimage =      32
     Reading input from YCBCO50_212_CuO_cleave_2.5_sep.pwi
Warning: card &IONS ignored
Warning: card     ION_DYNAMICS = 'BFGS' ignored
Warning: card / ignored
Warning: card &CELL ignored
Warning: card     CELL_DYNAMICS = 'BFGS' ignored
Warning: card     PRESS_CONV_THR = 5 ignored
Warning: card / ignored

     Current dimensions of program PWSCF are:
     Max number of different atomic species (ntypx) = 10
     Max number of k-points (npk) =  40000
     Max angular momentum in pseudopotentials (lmaxx) =  3

     Subspace diagonalization in iterative solution of the eigenvalue problem:
     one sub-group per band group will be used
     scalapack distributed-memory algorithm (size of sub-group:  5*  5 procs)

     Message from routine setup:
     using ibrav=0 with symmetry is DISCOURAGED, use correct ibrav instead
 
     Parallelization info
     --------------------
     sticks:   dense  smooth     PW     G-vecs:    dense   smooth      PW
     Min         188      62     17                93902    18064    2693
     Max         189      63     18                93932    18111    2736
     Sum        6019    2003    565              3005429   578779   87023
 


     bravais-lattice index     =            0
     lattice parameter (alat)  =      14.8133  a.u.
     unit-cell volume          =    9212.2223 (a.u.)^3
     number of atoms/cell      =           56
     number of atomic types    =            5
     number of electrons       =       456.00
     number of Kohn-Sham states=          274
     kinetic-energy cutoff     =      60.0000  Ry
     charge density cutoff     =     720.0000  Ry
     convergence threshold     =      1.0E-08
     mixing beta               =       0.5000
     number of iterations used =           10  local-TF  mixing
     Exchange-correlation= SLA PW PBE PBE
                           (   1   4   3   4   0   0   0)

     celldm(1)=  14.813271  celldm(2)=   0.000000  celldm(3)=   0.000000
     celldm(4)=   0.000000  celldm(5)=   0.000000  celldm(6)=   0.000000

     crystal axes: (cart. coord. in units of alat)
               a(1) = (   1.000000   0.000000   0.000000 )  
               a(2) = (   0.000000   0.477453   0.000000 )  
               a(3) = (   0.000000   0.000000   5.935826 )  

     reciprocal axes: (cart. coord. in units 2 pi/alat)
               b(1) = (  1.000000  0.000000  0.000000 )  
               b(2) = (  0.000000  2.094448  0.000000 )  
               b(3) = (  0.000000  0.000000  0.168469 )  


     PseudoPot. # 1 for Ba read from file:
     ./pseudo/Ba.pbe-nsp-van.UPF
     MD5 check sum: 2b9c31dd849566dd297d80989662b7a0
     Pseudo is Ultrasoft + core correction, Zval = 10.0
     Generated by new atomic code, or converted to UPF format
     Using radial grid of  907 points,  6 beta functions with: 
                l(1) =   0
                l(2) =   0
                l(3) =   1
                l(4) =   1
                l(5) =   2
                l(6) =   2
     Q(r) pseudized with  6 coefficients,  rinner =    1.200   1.200   1.200
                                                       1.200   1.200

     PseudoPot. # 2 for Ca read from file:
     ./pseudo/Ca.pbe-nsp-van.UPF
     MD5 check sum: 6471098428ff4fa451746d08035ff179
     Pseudo is Ultrasoft + core correction, Zval = 10.0
     Generated by new atomic code, or converted to UPF format
     Using radial grid of  845 points,  6 beta functions with: 
                l(1) =   0
                l(2) =   0
                l(3) =   1
                l(4) =   1
                l(5) =   2
                l(6) =   2
     Q(r) pseudized with  6 coefficients,  rinner =    1.200   1.200   1.200
                                                       1.200   1.200

     PseudoPot. # 3 for Cu read from file:
     ./pseudo/Cu.pbe-n-van_ak.UPF
     MD5 check sum: 34e3282627ffb533726feb647e090d62
     Pseudo is Ultrasoft + core correction, Zval = 11.0
     Generated by new atomic code, or converted to UPF format
     Using radial grid of  867 points,  6 beta functions with: 
                l(1) =   0
                l(2) =   0
                l(3) =   1
                l(4) =   1
                l(5) =   2
                l(6) =   2
     Q(r) pseudized with  8 coefficients,  rinner =    1.400   1.400   1.400
                                                       1.400   1.400

     PseudoPot. # 4 for O  read from file:
     ./pseudo/O.pbe-van_ak.UPF
     MD5 check sum: 783ce7fe4c79b6a4916957118fed0856
     Pseudo is Ultrasoft, Zval =  6.0
     Generated by new atomic code, or converted to UPF format
     Using radial grid of  737 points,  4 beta functions with: 
                l(1) =   0
                l(2) =   0
                l(3) =   1
                l(4) =   1
     Q(r) pseudized with  8 coefficients,  rinner =    0.800   0.800   0.800


     PseudoPot. # 5 for Y  read from file:
     ./pseudo/Y.pbe-nsp-van.UPF
     MD5 check sum: 4412fed3ab108fed87a1b7d6a69a4a38
     Pseudo is Ultrasoft + core correction, Zval = 11.0
     Generated by new atomic code, or converted to UPF format
     Using radial grid of  885 points,  6 beta functions with: 
                l(1) =   0
                l(2) =   0
                l(3) =   1
                l(4) =   1
                l(5) =   2
                l(6) =   2
     Q(r) pseudized with  6 coefficients,  rinner =    1.200   1.200   1.200
                                                       1.200   1.200

     atomic species   valence    mass     pseudopotential
        Ba            10.00   137.32700     Ba( 1.00)
        Ca            10.00    40.07800     Ca( 1.00)
        Cu            11.00    63.54600     Cu( 1.00)
        O              6.00    15.99900     O ( 1.00)
        Y             11.00    88.90584     Y ( 1.00)

      4 Sym. Ops. (no inversion) found ( 2 have fractional translation)



   Cartesian axes

     site n.     atom                  positions (alat units)
         1           O   tau(   1) = (  -0.0008343   0.2387265  -0.0222443  )
         2           O   tau(   2) = (   0.5008340   0.2387265  -0.0222443  )
         3           Cu  tau(   3) = (   0.5017257   0.0000000   0.0109608  )
         4           Cu  tau(   4) = (  -0.0017260   0.0000000   0.0109608  )
         5           O   tau(   5) = (  -0.0028933   0.0000000   0.2506504  )
         6           O   tau(   6) = (   0.5028929   0.0000000   0.2506504  )
         7           Ba  tau(   7) = (   0.7499995   0.2387265   0.2749435  )
         8           Ba  tau(   8) = (   0.2499998   0.2387265   0.2755214  )
         9           Cu  tau(   9) = (   0.4980963   0.0000000   0.5208446  )
        10           Cu  tau(  10) = (   0.0019033   0.0000000   0.5208446  )
        11           O   tau(  11) = (   0.2499998   0.0000000   0.5341884  )
        12           O   tau(  12) = (   0.5083351   0.2387265   0.5569851  )
        13           O   tau(  13) = (  -0.0083354   0.2387265   0.5569851  )
        14           O   tau(  14) = (   0.7499995   0.0000000   0.5573831  )
        15           Ca  tau(  15) = (   0.2499998   0.2387265   0.7436937  )
        16           Y   tau(  16) = (   0.7499995   0.2387265   0.7469544  )
        17           O   tau(  17) = (  -0.0063798   0.2387265   0.9248530  )
        18           O   tau(  18) = (   0.5063794   0.2387265   0.9248530  )
        19           O   tau(  19) = (   0.7499995   0.0000000   0.9338544  )
        20           O   tau(  20) = (   0.2499998   0.0000000   0.9461329  )
        21           Cu  tau(  21) = (   0.0015717   0.0000000   0.9686860  )
        22           Cu  tau(  22) = (   0.4984280   0.0000000   0.9686860  )
        23           Ba  tau(  23) = (   0.2499998   0.2387265   1.2085224  )
        24           Ba  tau(  24) = (   0.7499995   0.2387265   1.2233294  )
        25           O   tau(  25) = (   0.0063772   0.0000000   1.2547537  )
        26           O   tau(  26) = (   0.4936224   0.0000000   1.2547537  )
        27           O   tau(  27) = (   0.5384045   0.2387265   1.4952521  )
        28           O   tau(  28) = (  -0.0384049   0.2387265   1.4952521  )
        29           Cu  tau(  29) = (   0.5006120   0.0000000   1.4952546  )
        30           Cu  tau(  30) = (  -0.0006123   0.0000000   1.4952546  )
        31           O   tau(  31) = (   0.4936212   0.0000000   2.0546776  )
        32           O   tau(  32) = (   0.0063785   0.0000000   2.0546776  )
        33           Ba  tau(  33) = (   0.7499995   0.2387265   2.0861069  )
        34           Ba  tau(  34) = (   0.2499998   0.2387265   2.1009165  )
        35           Cu  tau(  35) = (   0.4984280   0.0000000   2.3407478  )
        36           Cu  tau(  36) = (   0.0015717   0.0000000   2.3407478  )
        37           O   tau(  37) = (   0.2499998   0.0000000   2.3633059  )
        38           O   tau(  38) = (   0.7499995   0.0000000   2.3755756  )
        39           O   tau(  39) = (   0.5063781   0.2387265   2.3845807  )
        40           O   tau(  40) = (  -0.0063785   0.2387265   2.3845807  )
        41           Y   tau(  41) = (   0.7499995   0.2387265   2.5624743  )
        42           Ca  tau(  42) = (   0.2499998   0.2387265   2.5657439  )
        43           O   tau(  43) = (   0.7499995   0.0000000   2.7520417  )
        44           O   tau(  44) = (  -0.0083354   0.2387265   2.7524436  )
        45           O   tau(  45) = (   0.5083351   0.2387265   2.7524436  )
        46           O   tau(  46) = (   0.2499998   0.0000000   2.7752416  )
        47           Cu  tau(  47) = (   0.0019059   0.0000000   2.7885752  )
        48           Cu  tau(  48) = (   0.4980938   0.0000000   2.7885752  )
        49           Ba  tau(  49) = (   0.2499998   0.2387265   3.0339149  )
        50           Ba  tau(  50) = (   0.7499995   0.2387265   3.0344571  )
        51           O   tau(  51) = (  -0.0028895   0.0000000   3.0587642  )
        52           O   tau(  52) = (   0.5028891   0.0000000   3.0587642  )
        53           Cu  tau(  53) = (   0.5017844   0.0000000   3.2984487  )
        54           Cu  tau(  54) = (  -0.0017847   0.0000000   3.2984487  )
        55           O   tau(  55) = (   0.5008990   0.2387265   3.3316552  )
        56           O   tau(  56) = (  -0.0008994   0.2387265   3.3316552  )

     number of k points=    25  Gaussian smearing, width (Ry)=  0.0100
                       cart. coord. in units 2pi/alat
        k(    1) = (   0.0000000   0.0000000   0.0000000), wk =   0.0312500
        k(    2) = (   0.0000000   0.2618060   0.0000000), wk =   0.0625000
        k(    3) = (   0.0000000   0.5236121   0.0000000), wk =   0.0625000
        k(    4) = (   0.0000000   0.7854181   0.0000000), wk =   0.0625000
        k(    5) = (   0.0000000  -1.0472241   0.0000000), wk =   0.0312500
        k(    6) = (   0.1250000   0.0000000   0.0000000), wk =   0.0625000
        k(    7) = (   0.1250000   0.2618060   0.0000000), wk =   0.1250000
        k(    8) = (   0.1250000   0.5236121   0.0000000), wk =   0.1250000
        k(    9) = (   0.1250000   0.7854181   0.0000000), wk =   0.1250000
        k(   10) = (   0.1250000  -1.0472241   0.0000000), wk =   0.0625000
        k(   11) = (   0.2500000   0.0000000   0.0000000), wk =   0.0625000
        k(   12) = (   0.2500000   0.2618060   0.0000000), wk =   0.1250000
        k(   13) = (   0.2500000   0.5236121   0.0000000), wk =   0.1250000
        k(   14) = (   0.2500000   0.7854181   0.0000000), wk =   0.1250000
        k(   15) = (   0.2500000  -1.0472241   0.0000000), wk =   0.0625000
        k(   16) = (   0.3750000   0.0000000   0.0000000), wk =   0.0625000
        k(   17) = (   0.3750000   0.2618060   0.0000000), wk =   0.1250000
        k(   18) = (   0.3750000   0.5236121   0.0000000), wk =   0.1250000
        k(   19) = (   0.3750000   0.7854181   0.0000000), wk =   0.1250000
        k(   20) = (   0.3750000  -1.0472241   0.0000000), wk =   0.0625000
        k(   21) = (  -0.5000000   0.0000000   0.0000000), wk =   0.0312500
        k(   22) = (  -0.5000000   0.2618060   0.0000000), wk =   0.0625000
        k(   23) = (  -0.5000000   0.5236121   0.0000000), wk =   0.0625000
        k(   24) = (  -0.5000000   0.7854181   0.0000000), wk =   0.0625000
        k(   25) = (  -0.5000000  -1.0472241   0.0000000), wk =   0.0312500

     Dense  grid:  3005429 G-vectors     FFT dimensions: ( 128,  64, 768)

     Smooth grid:   578779 G-vectors     FFT dimensions: (  80,  36, 450)

     Estimated max dynamical RAM per process >     869.90 MB

     Estimated total dynamical RAM >      27.18 GB

     Initial potential from superposition of free atoms

     starting charge  455.69457, renormalised to  456.00000

     negative rho (up, down):  9.315E-02 0.000E+00
     Starting wfcs are  396 randomized atomic wfcs

     total cpu time spent up to now is       27.3 secs

     Self-consistent Calculation

     iteration #  1     ecut=    60.00 Ry     beta= 0.50
     Davidson diagonalization with overlap
     ethr =  1.00E-02,  avg # of iterations =  2.0

     negative rho (up, down):  8.616E-02 0.000E+00

     total cpu time spent up to now is       75.3 secs

     total energy              =   -3708.23569751 Ry
     Harris-Foulkes estimate   =   -3716.43493718 Ry
     estimated scf accuracy    <      31.44631275 Ry

     iteration #  2     ecut=    60.00 Ry     beta= 0.50
     Davidson diagonalization with overlap
     ethr =  6.90E-03,  avg # of iterations =  2.0

     negative rho (up, down):  8.592E-02 0.000E+00

     total cpu time spent up to now is      123.1 secs

     total energy              =   -3710.97566530 Ry
     Harris-Foulkes estimate   =   -3712.28458947 Ry
     estimated scf accuracy    <       6.74490688 Ry

     iteration #  3     ecut=    60.00 Ry     beta= 0.50
     Davidson diagonalization with overlap
     ethr =  1.48E-03,  avg # of iterations =  2.0

     negative rho (up, down):  8.628E-02 0.000E+00

     total cpu time spent up to now is      171.1 secs

     total energy              =   -3711.56355721 Ry
     Harris-Foulkes estimate   =   -3711.93538432 Ry
     estimated scf accuracy    <      10.57755739 Ry

     iteration #  4     ecut=    60.00 Ry     beta= 0.50
     Davidson diagonalization with overlap
     ethr =  1.48E-03,  avg # of iterations =  1.0

     negative rho (up, down):  8.706E-02 0.000E+00

     total cpu time spent up to now is      215.0 secs

     total energy              =   -3711.59974622 Ry
     Harris-Foulkes estimate   =   -3711.73083936 Ry
     estimated scf accuracy    <       2.71867709 Ry

     iteration #  5     ecut=    60.00 Ry     beta= 0.50
     Davidson diagonalization with overlap
     ethr =  5.96E-04,  avg # of iterations =  1.3

     negative rho (up, down):  8.805E-02 0.000E+00

     total cpu time spent up to now is      260.1 secs

     total energy              =   -3711.56286900 Ry
     Harris-Foulkes estimate   =   -3711.67016769 Ry
     estimated scf accuracy    <       2.63320488 Ry

     iteration #  6     ecut=    60.00 Ry     beta= 0.50
     Davidson diagonalization with overlap
     ethr =  5.77E-04,  avg # of iterations =  1.0

     negative rho (up, down):  8.926E-02 0.000E+00

     total cpu time spent up to now is      304.3 secs

     total energy              =   -3711.55046676 Ry
     Harris-Foulkes estimate   =   -3711.60189773 Ry
     estimated scf accuracy    <       1.17034914 Ry

     iteration #  7     ecut=    60.00 Ry     beta= 0.50
     Davidson diagonalization with overlap
     ethr =  2.57E-04,  avg # of iterations =  7.6

     negative rho (up, down):  9.009E-02 0.000E+00

     total cpu time spent up to now is      368.2 secs

     total energy              =   -3711.55002113 Ry
     Harris-Foulkes estimate   =   -3711.56952617 Ry
     estimated scf accuracy    <       0.44389648 Ry

     iteration #  8     ecut=    60.00 Ry     beta= 0.50
     Davidson diagonalization with overlap
     ethr =  9.73E-05,  avg # of iterations =  7.1

     negative rho (up, down):  9.064E-02 0.000E+00

     total cpu time spent up to now is      431.0 secs

     total energy              =   -3711.54607343 Ry
     Harris-Foulkes estimate   =   -3711.56207052 Ry
     estimated scf accuracy    <       0.47783781 Ry

     iteration #  9     ecut=    60.00 Ry     beta= 0.50
     Davidson diagonalization with overlap
     ethr =  9.73E-05,  avg # of iterations =  1.4

     negative rho (up, down):  9.073E-02 0.000E+00

     total cpu time spent up to now is      475.8 secs

     total energy              =   -3711.54440585 Ry
     Harris-Foulkes estimate   =   -3711.55165446 Ry
     estimated scf accuracy    <       0.22170005 Ry

     iteration # 10     ecut=    60.00 Ry     beta= 0.50
     Davidson diagonalization with overlap
     c_bands:  1 eigenvalues not converged
     c_bands:  5 eigenvalues not converged
     ethr =  4.86E-05,  avg # of iterations =  5.4

     negative rho (up, down):  9.061E-02 0.000E+00

     total cpu time spent up to now is      532.6 secs

     total energy              =   -3711.53688832 Ry
     Harris-Foulkes estimate   =   -3711.54688751 Ry
     estimated scf accuracy    <       0.21276182 Ry

     iteration # 11     ecut=    60.00 Ry     beta= 0.50
     Davidson diagonalization with overlap
     ethr =  4.67E-05,  avg # of iterations =  5.6

     negative rho (up, down):  9.046E-02 0.000E+00

     total cpu time spent up to now is      589.6 secs

     total energy              =   -3711.53710165 Ry
     Harris-Foulkes estimate   =   -3711.54012759 Ry
     estimated scf accuracy    <       0.16485463 Ry

     iteration # 12     ecut=    60.00 Ry     beta= 0.50
     Davidson diagonalization with overlap
     ethr =  3.62E-05,  avg # of iterations =  5.0

     negative rho (up, down):  9.017E-02 0.000E+00

     total cpu time spent up to now is      644.5 secs

     total energy              =   -3711.53621806 Ry
     Harris-Foulkes estimate   =   -3711.53803853 Ry
     estimated scf accuracy    <       0.11996012 Ry

     iteration # 13     ecut=    60.00 Ry     beta= 0.50
     Davidson diagonalization with overlap
     ethr =  2.63E-05,  avg # of iterations =  2.8

     negative rho (up, down):  8.969E-02 0.000E+00

     total cpu time spent up to now is      693.1 secs

     total energy              =   -3711.53436647 Ry
     Harris-Foulkes estimate   =   -3711.53671235 Ry
     estimated scf accuracy    <       0.11600971 Ry

     iteration # 14     ecut=    60.00 Ry     beta= 0.50
     Davidson diagonalization with overlap
     ethr =  2.54E-05,  avg # of iterations =  2.5

     negative rho (up, down):  9.311E-02 0.000E+00

     total cpu time spent up to now is      740.8 secs

     total energy              =   -3711.53181772 Ry
     Harris-Foulkes estimate   =   -3711.53464055 Ry
     estimated scf accuracy    <       0.10948772 Ry

     iteration # 15     ecut=    60.00 Ry     beta= 0.50
     Davidson diagonalization with overlap
     ethr =  2.40E-05,  avg # of iterations =  3.1

     negative rho (up, down):  1.006E-01 0.000E+00

     total cpu time spent up to now is      790.5 secs

     total energy              =   -3711.53015714 Ry
     Harris-Foulkes estimate   =   -3711.53211852 Ry
     estimated scf accuracy    <       0.10751301 Ry

     iteration # 16     ecut=    60.00 Ry     beta= 0.50
     Davidson diagonalization with overlap
     ethr =  2.36E-05,  avg # of iterations =  6.6

     negative rho (up, down):  1.125E-01 0.000E+00

     total cpu time spent up to now is      850.1 secs

     total energy              =   -3711.52820938 Ry
     Harris-Foulkes estimate   =   -3711.53038785 Ry
     estimated scf accuracy    <       0.07600124 Ry

     iteration # 17     ecut=    60.00 Ry     beta= 0.50
     Davidson diagonalization with overlap
     ethr =  1.67E-05,  avg # of iterations =  8.4

     negative rho (up, down):  1.246E-01 0.000E+00

     total cpu time spent up to now is      915.8 secs

     total energy              =   -3711.52636122 Ry
     Harris-Foulkes estimate   =   -3711.52853962 Ry
     estimated scf accuracy    <       0.04995673 Ry

     iteration # 18     ecut=    60.00 Ry     beta= 0.50
     Davidson diagonalization with overlap
     ethr =  1.10E-05,  avg # of iterations =  9.4

     negative rho (up, down):  1.245E-01 0.000E+00

     total cpu time spent up to now is      986.6 secs

     total energy              =   -3711.52589712 Ry
     Harris-Foulkes estimate   =   -3711.52669681 Ry
     estimated scf accuracy    <       0.01467870 Ry

     iteration # 19     ecut=    60.00 Ry     beta= 0.50
     Davidson diagonalization with overlap
     ethr =  3.22E-06,  avg # of iterations = 10.9

     negative rho (up, down):  1.083E-01 0.000E+00

     total cpu time spent up to now is     1062.6 secs

     total energy              =   -3711.52561676 Ry
     Harris-Foulkes estimate   =   -3711.52605311 Ry
     estimated scf accuracy    <       0.00307695 Ry

     iteration # 20     ecut=    60.00 Ry     beta= 0.50
     Davidson diagonalization with overlap
     c_bands:  1 eigenvalues not converged
     c_bands:  1 eigenvalues not converged
     c_bands:  1 eigenvalues not converged
     c_bands:  1 eigenvalues not converged
     c_bands:  1 eigenvalues not converged
     c_bands:  1 eigenvalues not converged
     c_bands:  1 eigenvalues not converged
     ethr =  6.75E-07,  avg # of iterations = 12.6

     negative rho (up, down):  9.591E-02 0.000E+00

     total cpu time spent up to now is     1142.4 secs

     total energy              =   -3711.52545066 Ry
     Harris-Foulkes estimate   =   -3711.52572025 Ry
     estimated scf accuracy    <       0.00276145 Ry

     iteration # 21     ecut=    60.00 Ry     beta= 0.50
     Davidson diagonalization with overlap
     c_bands:  1 eigenvalues not converged
     c_bands:  2 eigenvalues not converged
     c_bands:  1 eigenvalues not converged
     c_bands:  1 eigenvalues not converged
     ethr =  6.06E-07,  avg # of iterations = 10.8

     negative rho (up, down):  9.140E-02 0.000E+00

     total cpu time spent up to now is     1215.8 secs

     total energy              =   -3711.52554244 Ry
     Harris-Foulkes estimate   =   -3711.52548849 Ry
     estimated scf accuracy    <       0.00067759 Ry

     iteration # 22     ecut=    60.00 Ry     beta= 0.50
     Davidson diagonalization with overlap
     c_bands:  1 eigenvalues not converged
     c_bands:  1 eigenvalues not converged
     c_bands:  1 eigenvalues not converged
     c_bands:  1 eigenvalues not converged
     ethr =  1.49E-07,  avg # of iterations = 11.1

     negative rho (up, down):  9.076E-02 0.000E+00

     total cpu time spent up to now is     1287.9 secs

     total energy              =   -3711.52555414 Ry
     Harris-Foulkes estimate   =   -3711.52556110 Ry
     estimated scf accuracy    <       0.00031035 Ry

     iteration # 23     ecut=    60.00 Ry     beta= 0.50
     Davidson diagonalization with overlap
     c_bands:  1 eigenvalues not converged
     ethr =  6.81E-08,  avg # of iterations =  4.3

     negative rho (up, down):  9.117E-02 0.000E+00

     total cpu time spent up to now is     1340.2 secs

     total energy              =   -3711.52557775 Ry
     Harris-Foulkes estimate   =   -3711.52556568 Ry
     estimated scf accuracy    <       0.00008617 Ry

     iteration # 24     ecut=    60.00 Ry     beta= 0.50
     Davidson diagonalization with overlap
     ethr =  1.89E-08,  avg # of iterations =  3.0

     negative rho (up, down):  9.152E-02 0.000E+00

     total cpu time spent up to now is     1388.7 secs

     total energy              =   -3711.52559809 Ry
     Harris-Foulkes estimate   =   -3711.52558005 Ry
     estimated scf accuracy    <       0.00003334 Ry

     iteration # 25     ecut=    60.00 Ry     beta= 0.50
     Davidson diagonalization with overlap
     c_bands:  1 eigenvalues not converged
     ethr =  7.31E-09,  avg # of iterations =  5.3

     negative rho (up, down):  9.149E-02 0.000E+00

     total cpu time spent up to now is     1444.2 secs

     total energy              =   -3711.52560053 Ry
     Harris-Foulkes estimate   =   -3711.52559940 Ry
     estimated scf accuracy    <       0.00003047 Ry

     iteration # 26     ecut=    60.00 Ry     beta= 0.50
     Davidson diagonalization with overlap
     c_bands:  1 eigenvalues not converged
     ethr =  6.68E-09,  avg # of iterations =  1.8

     negative rho (up, down):  9.186E-02 0.000E+00

     total cpu time spent up to now is     1489.9 secs

     total energy              =   -3711.52560016 Ry
     Harris-Foulkes estimate   =   -3711.52560126 Ry
     estimated scf accuracy    <       0.00001302 Ry

     iteration # 27     ecut=    60.00 Ry     beta= 0.50
     Davidson diagonalization with overlap
     ethr =  2.86E-09,  avg # of iterations =  1.2

     negative rho (up, down):  9.199E-02 0.000E+00

     total cpu time spent up to now is     1534.2 secs

     total energy              =   -3711.52560012 Ry
     Harris-Foulkes estimate   =   -3711.52560053 Ry
     estimated scf accuracy    <       0.00000393 Ry

     iteration # 28     ecut=    60.00 Ry     beta= 0.50
     Davidson diagonalization with overlap
     ethr =  8.63E-10,  avg # of iterations =  3.0

     negative rho (up, down):  9.213E-02 0.000E+00

     total cpu time spent up to now is     1583.3 secs

     total energy              =   -3711.52560005 Ry
     Harris-Foulkes estimate   =   -3711.52560031 Ry
     estimated scf accuracy    <       0.00000158 Ry

     iteration # 29     ecut=    60.00 Ry     beta= 0.50
     Davidson diagonalization with overlap
     ethr =  3.46E-10,  avg # of iterations =  1.9

     negative rho (up, down):  9.218E-02 0.000E+00

     total cpu time spent up to now is     1629.5 secs

     total energy              =   -3711.52560001 Ry
     Harris-Foulkes estimate   =   -3711.52560010 Ry
     estimated scf accuracy    <       0.00000063 Ry

     iteration # 30     ecut=    60.00 Ry     beta= 0.50
     Davidson diagonalization with overlap
     ethr =  1.38E-10,  avg # of iterations =  2.2

     negative rho (up, down):  9.220E-02 0.000E+00

     total cpu time spent up to now is     1676.4 secs

     total energy              =   -3711.52559998 Ry
     Harris-Foulkes estimate   =   -3711.52560003 Ry
     estimated scf accuracy    <       0.00000024 Ry

     iteration # 31     ecut=    60.00 Ry     beta= 0.50
     Davidson diagonalization with overlap
     ethr =  5.20E-11,  avg # of iterations =  1.8

     negative rho (up, down):  9.219E-02 0.000E+00

     total cpu time spent up to now is     1722.6 secs

     total energy              =   -3711.52559999 Ry
     Harris-Foulkes estimate   =   -3711.52559998 Ry
     estimated scf accuracy    <       0.00000017 Ry

     iteration # 32     ecut=    60.00 Ry     beta= 0.50
     Davidson diagonalization with overlap
     ethr =  3.75E-11,  avg # of iterations =  1.5

     negative rho (up, down):  9.220E-02 0.000E+00

     total cpu time spent up to now is     1767.4 secs

     total energy              =   -3711.52559998 Ry
     Harris-Foulkes estimate   =   -3711.52559999 Ry
     estimated scf accuracy    <       0.00000012 Ry

     iteration # 33     ecut=    60.00 Ry     beta= 0.50
     Davidson diagonalization with overlap
     ethr =  2.54E-11,  avg # of iterations =  1.0

     negative rho (up, down):  9.217E-02 0.000E+00

     total cpu time spent up to now is     1811.3 secs

     total energy              =   -3711.52560002 Ry
     Harris-Foulkes estimate   =   -3711.52559998 Ry
     estimated scf accuracy    <       0.00000002 Ry

     iteration # 34     ecut=    60.00 Ry     beta= 0.50
     Davidson diagonalization with overlap
     ethr =  4.61E-12,  avg # of iterations =  3.0

     negative rho (up, down):  9.218E-02 0.000E+00

     total cpu time spent up to now is     1861.9 secs

     total energy              =   -3711.52560001 Ry
     Harris-Foulkes estimate   =   -3711.52560002 Ry
     estimated scf accuracy    <       0.00000002 Ry

     iteration # 35     ecut=    60.00 Ry     beta= 0.50
     Davidson diagonalization with overlap
     ethr =  4.07E-12,  avg # of iterations =  1.0

     negative rho (up, down):  9.218E-02 0.000E+00

     total cpu time spent up to now is     1905.1 secs

     End of self-consistent calculation

          k = 0.0000 0.0000 0.0000 ( 72345 PWs)   bands (ev):

   -38.3951 -38.3319 -36.0300 -35.9585 -23.1391 -23.1369 -23.1282 -23.0108
   -23.0000 -22.9895 -22.8242 -22.5901 -18.8682 -18.8141 -18.7680 -18.7065
   -18.3991 -18.3346 -17.3761 -17.3074 -17.2425 -17.1752 -17.0614 -16.9865
   -15.7724 -15.7311 -15.3133 -15.2943 -15.1052 -14.9854 -14.9324 -14.9206
   -14.8767 -14.8468 -14.7872 -14.7771 -14.7654 -14.7612 -14.6362 -14.6236
   -14.4586 -14.4155 -14.3464 -14.3145 -14.3065 -14.3034 -14.2989 -14.2892
   -14.2620 -14.1886 -14.1263 -14.0710 -13.1739 -12.7044  -8.4676  -8.3780
    -8.3637  -8.2706  -8.2571  -8.2262  -8.1882  -8.1779  -8.0942  -8.0501
    -8.0396  -8.0005  -7.9885  -7.9536  -7.9434  -7.8895  -7.8748  -7.8605
    -7.8245  -7.8122  -7.8016  -7.6423  -7.4310  -7.3284  -3.3182  -3.2946
    -3.2057  -3.1087  -2.4922  -2.4860  -2.4052  -2.4033  -2.3988  -2.3685
    -2.2591  -2.2084  -2.1981  -2.1728  -2.1680  -2.1476  -2.1070  -2.1031
    -2.0408  -2.0040  -1.9971  -1.9437  -1.8912  -1.8352  -1.6980  -1.6695
    -1.5130  -1.4627  -1.4515  -1.4232  -1.3611  -1.2882  -1.2601  -1.2449
    -1.2375  -1.2361  -1.2289  -1.2267  -1.2056  -1.2040  -1.1414  -1.0677
    -1.0125  -1.0053  -0.7646  -0.7242  -0.6497  -0.5868  -0.5763  -0.5664
    -0.5663  -0.5507  -0.5407  -0.5225  -0.5093  -0.4911  -0.4540  -0.4492
    -0.4474  -0.4471  -0.4360  -0.3981  -0.3678  -0.2971  -0.2727  -0.2620
    -0.2612  -0.2523  -0.2386  -0.1931  -0.1921  -0.1768  -0.1702  -0.1435
    -0.1414  -0.1406  -0.1377  -0.0634  -0.0425  -0.0349  -0.0233  -0.0029
     0.0042   0.0044   0.0463   0.0793   0.0912   0.1081   0.1591   0.2028
     0.2339   0.2390   0.2667   0.2679   0.2752   0.2912   0.2951   0.2977
     0.4552   0.4840   0.5535   0.6055   0.6312   0.6699   0.7202   0.7324
     0.7436   0.7654   0.7706   0.8046   0.8781   0.9134   0.9259   0.9485
     0.9535   0.9574   0.9584   0.9594   1.0389   1.0630   1.0752   1.1096
     1.1126   1.1189   1.1348   1.1633   1.1944   1.2204   1.2844   1.3379
     1.3472   1.3799   1.4490   1.4535   1.4575   1.5211   1.5230   1.5304
     1.5495   1.5821   1.5929   1.6431   1.6827   1.7912   1.8046   1.8572
     1.9625   1.9698   2.0880   2.1356   2.1369   2.2143   2.2304   2.3172
     2.3255   2.3482   2.3516   2.3990   2.5947   2.6486   4.6690   4.9700
     4.9838   5.6274   5.7186   6.3247   6.3606   6.4354   6.6080   6.6499
     6.6764   7.0103   7.0207   7.1077   7.1149   7.2159   7.2869   7.5158
     7.7665   7.8269   7.8331   7.8874   7.8985   8.0702   8.1453   8.1788
     8.2156   8.2741   8.3142   8.3949   8.6592   8.7692   8.8165   8.8185
     8.8770   8.9916

          k = 0.0000 0.2618 0.0000 ( 72343 PWs)   bands (ev):

   -38.3924 -38.3293 -36.0283 -35.9568 -23.1181 -23.1145 -23.1037 -22.9917
   -22.9809 -22.9657 -22.8052 -22.5696 -18.8296 -18.7754 -18.7607 -18.6992
   -18.5098 -18.4459 -17.3467 -17.2780 -17.2382 -17.1708 -17.1273 -17.0526
   -15.6662 -15.6253 -15.2575 -15.2385 -15.0498 -14.9472 -14.9163 -14.8885
   -14.8727 -14.7752 -14.7569 -14.7568 -14.7305 -14.7011 -14.6018 -14.5885
   -14.4534 -14.4112 -14.4070 -14.3613 -14.3257 -14.2933 -14.2923 -14.2898
   -14.2811 -14.2252 -14.1181 -14.1105 -13.1266 -12.7692  -8.4583  -8.3712
    -8.3583  -8.2829  -8.2704  -8.2385  -8.1445  -8.1343  -8.0936  -8.0854
    -8.0850  -8.0820  -8.0753  -8.0194  -8.0088  -8.0015  -7.9957  -7.9816
    -7.9208  -7.9044  -7.8796  -7.8532  -7.5144  -7.4480  -3.4288  -3.3919
    -3.2593  -3.1640  -2.6193  -2.6055  -2.5863  -2.5151  -2.5057  -2.4989
    -2.3817  -2.3751  -2.3673  -2.3192  -2.2547  -2.1978  -2.1396  -2.1153
    -2.0537  -2.0337  -2.0058  -1.9763  -1.9439  -1.9248  -1.8196  -1.7710
    -1.7676  -1.7566  -1.6875  -1.6789  -1.6745  -1.6538  -1.6514  -1.6414
    -1.6106  -1.5328  -1.3319  -1.1769  -1.1473  -1.1050  -1.0373  -1.0228
    -0.9760  -0.9033  -0.8909  -0.8870  -0.8227  -0.8193  -0.6649  -0.6582
    -0.6362  -0.6130  -0.5999  -0.5882  -0.5794  -0.5667  -0.5166  -0.4914
    -0.4899  -0.4777  -0.4113  -0.4047  -0.3226  -0.2978  -0.2795  -0.2542
    -0.2463  -0.1840  -0.1690  -0.1637  -0.1528  -0.1230  -0.1223  -0.1049
    -0.1039  -0.0802  -0.0746  -0.0740  -0.0362   0.0168   0.0217   0.0271
     0.0639   0.0641   0.0746   0.1137   0.1243   0.1369   0.1483   0.1670
     0.1724   0.1867   0.2086   0.2247   0.3572   0.4004   0.4083   0.4598
     0.4780   0.5013   0.5668   0.5865   0.6698   0.6892   0.7032   0.7409
     0.7987   0.8673   0.8860   0.9101   0.9265   0.9351   0.9430   0.9614
     1.0064   1.0134   1.0369   1.0474   1.0676   1.0957   1.1241   1.1382
     1.1998   1.2190   1.2362   1.2411   1.2616   1.2689   1.2830   1.4004
     1.4050   1.4159   1.4643   1.4720   1.4769   1.4962   1.5308   1.5688
     1.5716   1.5807   1.6060   1.6513   1.6607   1.7312   1.7906   1.8400
     2.0853   2.1089   2.3562   2.3653   2.4456   2.5224   2.5491   2.5669
     2.6183   2.6272   2.6663   2.6945   2.8772   2.9060   4.9528   5.3476
     5.3570   5.9050   5.9845   6.6364   6.6433   6.6874   6.7337   6.8465
     6.8557   6.8890   6.9383   7.2970   7.3405   7.4106   7.4830   7.5043
     7.5156   7.6650   7.9486   8.0162   8.0727   8.1929   8.3011   8.3816
     8.4081   8.4616   8.5154   8.6152   8.7031   8.8528   8.8972   9.0106
     9.0375   9.0498

          k = 0.0000 0.5236 0.0000 ( 72275 PWs)   bands (ev):

   -38.3859 -38.3227 -36.0242 -35.9527 -23.0719 -23.0540 -23.0431 -22.9448
   -22.9340 -22.9072 -22.7586 -22.5192 -18.7507 -18.7432 -18.7293 -18.6877
   -18.6816 -18.6745 -17.2808 -17.2630 -17.2278 -17.2067 -17.1938 -17.1604
   -15.4246 -15.3861 -15.1108 -15.0913 -14.9670 -14.9283 -14.9131 -14.8545
   -14.7875 -14.7665 -14.7498 -14.6812 -14.5578 -14.5540 -14.5332 -14.5183
   -14.5030 -14.4773 -14.4263 -14.4022 -14.3974 -14.3024 -14.2798 -14.2664
   -14.2413 -14.2299 -14.1844 -14.1125 -13.0055 -12.9215  -8.5578  -8.5472
    -8.4378  -8.3980  -8.3905  -8.3878  -8.3344  -8.3223  -8.2976  -8.2636
    -8.2520  -8.2366  -8.2096  -8.1568  -8.1463  -8.1454  -8.0589  -8.0277
    -8.0173  -7.9979  -7.9032  -7.8307  -7.6102  -7.5987  -3.8349  -3.7803
    -3.4966  -3.4067  -3.1160  -3.0923  -2.9735  -2.9093  -2.7341  -2.7209
    -2.6472  -2.6004  -2.5392  -2.5363  -2.5322  -2.4986  -2.4913  -2.4176
    -2.3544  -2.3465  -2.3440  -2.3362  -2.2683  -2.2281  -2.1373  -2.0871
    -2.0733  -2.0483  -1.9848  -1.9345  -1.9151  -1.9115  -1.8616  -1.8599
    -1.5272  -1.4758  -1.4006  -1.2762  -1.2605  -1.2333  -1.1848  -1.1429
    -1.1062  -1.0959  -1.0738  -1.0611  -0.9266  -0.9175  -0.9163  -0.8848
    -0.8421  -0.8346  -0.8343  -0.8147  -0.7769  -0.7687  -0.7363  -0.7032
    -0.6943  -0.6596  -0.6453  -0.6058  -0.5979  -0.5422  -0.5295  -0.5265
    -0.4606  -0.3581  -0.3424  -0.2996  -0.2470  -0.2052  -0.1505  -0.1394
    -0.0569  -0.0549  -0.0262   0.0024   0.0453   0.0458   0.0531   0.0889
     0.1356   0.1403   0.1527   0.2328   0.3327   0.3695   0.3841   0.4028
     0.4988   0.5552   0.5588   0.5763   0.5823   0.7458   0.7755   0.7860
     0.7915   0.8059   0.8093   0.8382   0.9103   0.9429   0.9802   0.9930
     1.0044   1.0057   1.0110   1.0352   1.0369   1.0945   1.1133   1.1147
     1.1342   1.1595   1.1643   1.1898   1.2037   1.2151   1.2261   1.2956
     1.3210   1.3619   1.3992   1.4108   1.4165   1.4325   1.4594   1.4794
     1.5435   1.5442   1.5507   1.5540   1.5811   1.5996   1.6073   1.6569
     1.6686   1.7085   1.7372   1.7887   1.8141   1.8232   1.9059   1.9117
     1.9746   1.9880   2.3054   2.4811   2.7557   2.7714   2.8363   2.8681
     2.8718   2.8826   3.5349   3.5573   3.6226   3.6538   5.4773   6.2471
     6.2551   6.3629   6.3735   6.5747   6.6652   6.7001   6.7766   6.8584
     7.4228   7.4615   7.5443   7.5614   7.8028   7.8319   7.9748   8.1184
     8.1564   8.1715   8.2934   8.3260   8.3611   8.4303   8.4635   8.5103
     8.5223   8.6468   8.7039   8.8273   8.8345   9.0102   9.0417   9.0685
     9.1670   9.1677

          k = 0.0000 0.7854 0.0000 ( 72250 PWs)   bands (ev):

   -38.3793 -38.3162 -36.0201 -35.9486 -23.0249 -22.9917 -22.9807 -22.8969
   -22.8861 -22.8471 -22.7108 -22.4674 -18.9586 -18.8960 -18.7258 -18.6641
   -18.6243 -18.5692 -17.4022 -17.3275 -17.2174 -17.1903 -17.1500 -17.1220
   -15.1913 -15.1690 -15.0841 -15.0318 -14.9373 -14.9148 -14.8753 -14.8156
   -14.7878 -14.7673 -14.7169 -14.5981 -14.5860 -14.5805 -14.4640 -14.4397
   -14.4336 -14.4197 -14.3914 -14.3720 -14.3627 -14.2904 -14.2312 -14.2247
   -14.2138 -14.1953 -14.1832 -14.1486 -13.0659 -12.8726  -8.9528  -8.9421
    -8.7768  -8.6931  -8.6829  -8.6417  -8.4969  -8.4159  -8.4044  -8.3382
    -8.3255  -8.2702  -8.2571  -8.2492  -8.2259  -8.2154  -8.1040  -8.0108
    -7.9272  -7.9066  -7.8962  -7.7181  -7.6875  -7.5644  -4.3210  -4.2669
    -3.9002  -3.8168  -3.5182  -3.4989  -3.3388  -3.2693  -3.1137  -3.1042
    -3.0852  -3.0474  -3.0378  -2.9830  -2.8722  -2.8645  -2.7771  -2.7202
    -2.6360  -2.5935  -2.4613  -2.4563  -2.3942  -2.3897  -2.1771  -2.1243
    -2.1043  -2.0986  -2.0933  -2.0454  -1.9517  -1.9175  -1.7840  -1.7529
    -1.7324  -1.4992  -1.4976  -1.4581  -1.4109  -1.3502  -1.3395  -1.2998
    -1.2783  -1.2656  -1.2270  -1.2199  -1.1894  -1.1424  -1.1421  -1.0673
    -1.0561  -1.0445  -1.0363  -0.9976  -0.9883  -0.9827  -0.9775  -0.9577
    -0.8779  -0.8575  -0.8549  -0.8467  -0.8261  -0.7968  -0.6817  -0.4658
    -0.4576  -0.3967  -0.3456  -0.3364  -0.3237  -0.2601  -0.2545  -0.0748
    -0.0578  -0.0340  -0.0225  -0.0169   0.0145   0.0509   0.0583   0.0661
     0.2189   0.2414   0.2774   0.3197   0.5352   0.5457   0.6160   0.6582
     0.7065   0.7503   0.7863   0.7966   0.8087   0.8150   0.9071   0.9600
     0.9649   1.0025   1.0217   1.0253   1.0374   1.0673   1.0756   1.1180
     1.1218   1.1393   1.1758   1.2169   1.2833   1.3176   1.3209   1.3315
     1.3552   1.4255   1.4375   1.4405   1.4447   1.4729   1.4743   1.4953
     1.5021   1.5447   1.5492   1.5691   1.5805   1.5833   1.6165   1.6234
     1.6508   1.6806   1.6882   1.7312   1.7485   1.7501   1.7667   1.8890
     1.9109   1.9334   1.9924   1.9958   2.0032   2.0047   2.1281   2.2183
     2.2277   2.3204   2.3268   2.4404   2.6290   2.6942   2.7001   2.7951
     2.8038   2.8453   4.1630   4.1958   4.2353   4.2521   5.6195   5.8347
     5.8421   6.4189   6.5213   6.9092   7.1694   7.1816   7.4868   7.5469
     7.8891   7.9132   8.0421   8.1422   8.2164   8.2894   8.2986   8.4291
     8.4378   8.4847   8.5719   8.6033   8.6175   8.6825   8.7541   8.8455
     8.8850   8.9370   8.9637   9.0105   9.0496   9.1215   9.1448   9.2343
     9.2790   9.3603

          k = 0.0000-1.0472 0.0000 ( 72382 PWs)   bands (ev):

   -38.3766 -38.3135 -36.0184 -35.9469 -23.0051 -22.9653 -22.9543 -22.8767
   -22.8659 -22.8217 -22.6906 -22.4456 -19.0392 -18.9767 -18.7186 -18.6568
   -18.5772 -18.5218 -17.4526 -17.3779 -17.2132 -17.1547 -17.1457 -17.0863
   -15.1927 -15.1679 -15.0157 -14.9831 -14.9534 -14.8742 -14.8486 -14.8186
   -14.7739 -14.7483 -14.7444 -14.5959 -14.5810 -14.4848 -14.4460 -14.4451
   -14.4313 -14.3886 -14.3883 -14.3678 -14.2941 -14.2429 -14.2268 -14.2009
   -14.1963 -14.1839 -14.1777 -14.1652 -13.1228 -12.8132  -9.1061  -9.0954
    -8.9307  -8.8119  -8.8016  -8.7787  -8.6018  -8.5260  -8.4093  -8.3444
    -8.3297  -8.2669  -8.2554  -8.2534  -8.2506  -8.2430  -8.1331  -8.0025
    -7.9373  -7.8540  -7.8435  -7.7095  -7.6688  -7.5359  -4.5227  -4.4699
    -4.0865  -4.0048  -3.6723  -3.6554  -3.4887  -3.4148  -3.3485  -3.3381
    -3.2939  -3.2775  -3.2678  -3.1996  -2.9008  -2.8931  -2.7979  -2.7613
    -2.7376  -2.7192  -2.4834  -2.4788  -2.3814  -2.3770  -2.2382  -2.1923
    -2.1883  -2.1472  -2.1156  -2.0713  -1.8802  -1.8642  -1.8346  -1.6247
    -1.5995  -1.5732  -1.5719  -1.5647  -1.4941  -1.4556  -1.4525  -1.4038
    -1.3363  -1.3339  -1.3055  -1.3007  -1.2997  -1.2914  -1.1753  -1.1507
    -1.1500  -1.1256  -1.0977  -1.0970  -1.0865  -1.0768  -1.0631  -1.0510
    -0.9558  -0.9449  -0.9439  -0.9357  -0.7982  -0.7947  -0.7337  -0.4298
    -0.4215  -0.3690  -0.3666  -0.3492  -0.3380  -0.3150  -0.2798  -0.2254
    -0.0612  -0.0417  -0.0266   0.0050   0.0237   0.0373   0.0520   0.0736
     0.2487   0.2929   0.3364   0.3418   0.6137   0.6190   0.6390   0.7214
     0.7719   0.7992   0.8057   0.8286   0.9183   0.9242   0.9256   0.9810
     0.9823   1.0269   1.0850   1.0983   1.1037   1.1174   1.1178   1.1256
     1.1376   1.1701   1.1934   1.2031   1.3521   1.3701   1.4016   1.4072
     1.4495   1.4770   1.4817   1.4985   1.5322   1.5754   1.6276   1.6405
     1.6426   1.6683   1.6694   1.6735   1.7021   1.7089   1.7264   1.7284
     1.7685   1.8423   1.8865   1.9028   1.9128   1.9353   1.9527   1.9649
     1.9745   1.9774   2.0832   2.1653   2.1975   2.2065   2.2258   2.3275
     2.3817   2.3907   2.3910   2.4561   2.4803   2.4915   2.5305   2.6458
     2.6615   2.7277   4.3592   4.3949   4.4556   4.4699   5.5491   5.5954
     5.6029   6.2982   6.4130   7.3840   7.5722   7.5820   7.7234   7.8498
     7.9001   8.0443   8.0807   8.0918   8.1493   8.2654   8.5269   8.5410
     8.5604   8.5976   8.6311   8.7063   8.7622   8.8694   8.8774   8.8874
     8.8948   8.9773   8.9902   9.0691   9.0947   9.1621   9.1867   9.2566
     9.4101   9.4487

          k = 0.1250 0.0000 0.0000 ( 72381 PWs)   bands (ev):

   -38.3951 -38.3319 -36.0301 -35.9585 -23.1363 -23.1346 -23.1237 -23.0155
   -23.0047 -22.9863 -22.8276 -22.5909 -18.8675 -18.8134 -18.7648 -18.7033
   -18.3991 -18.3346 -17.3790 -17.3104 -17.2545 -17.1875 -17.0614 -16.9865
   -15.7448 -15.7033 -15.2976 -15.2795 -15.0970 -14.9771 -14.9381 -14.9155
   -14.8885 -14.8872 -14.8358 -14.7860 -14.7734 -14.7692 -14.6133 -14.5917
   -14.4506 -14.4091 -14.3481 -14.3159 -14.3085 -14.3063 -14.3000 -14.2908
   -14.2676 -14.1926 -14.1316 -14.0703 -13.1576 -12.7237  -8.4678  -8.3802
    -8.3660  -8.2747  -8.2614  -8.2308  -8.1744  -8.1641  -8.1071  -8.0418
    -8.0313  -7.9890  -7.9817  -7.9601  -7.9500  -7.8836  -7.8672  -7.8584
    -7.8251  -7.8216  -7.8110  -7.6508  -7.4347  -7.3310  -3.2835  -3.2597
    -3.1725  -3.0753  -2.4888  -2.4820  -2.4227  -2.4173  -2.4012  -2.3649
    -2.2893  -2.2218  -2.2063  -2.1845  -2.1708  -2.1548  -2.1232  -2.1101
    -2.0489  -2.0172  -2.0113  -1.9837  -1.8727  -1.8154  -1.7392  -1.7088
    -1.4856  -1.4471  -1.4033  -1.3692  -1.3621  -1.2903  -1.2810  -1.2363
    -1.2349  -1.2274  -1.2265  -1.2255  -1.2194  -1.1791  -1.1014  -1.0198
    -0.9925  -0.9855  -0.7423  -0.7189  -0.6593  -0.6422  -0.6162  -0.5861
    -0.5564  -0.5477  -0.5317  -0.5275  -0.5063  -0.5030  -0.5005  -0.4768
    -0.4684  -0.4664  -0.4603  -0.4330  -0.4276  -0.3050  -0.2769  -0.2689
    -0.2605  -0.2594  -0.2407  -0.2312  -0.2143  -0.1695  -0.1330  -0.1111
    -0.1076  -0.1003  -0.0946  -0.0902  -0.0408  -0.0332  -0.0319  -0.0045
     0.0035   0.0385   0.0615   0.0941   0.1132   0.1153   0.1607   0.2146
     0.2352   0.2465   0.2610   0.2632   0.2751   0.3001   0.3030   0.3064
     0.4401   0.4621   0.5524   0.6129   0.6241   0.6403   0.6721   0.6756
     0.7451   0.7680   0.7981   0.8100   0.8413   0.8753   0.8763   0.9097
     0.9125   0.9404   0.9660   0.9783   0.9996   1.0076   1.0947   1.1213
     1.1242   1.1665   1.1778   1.1951   1.2185   1.2463   1.2762   1.3274
     1.3863   1.4359   1.4650   1.4681   1.4697   1.5207   1.5326   1.5541
     1.5589   1.5642   1.5972   1.6584   1.6790   1.7777   1.7919   1.8433
     1.9518   1.9617   2.0978   2.1388   2.1414   2.1805   2.2383   2.2976
     2.3242   2.3521   2.3557   2.4017   2.5892   2.6432   4.7127   5.0185
     5.0299   5.6788   5.7668   6.2739   6.3809   6.4192   6.4864   6.6480
     6.6554   6.6705   7.0086   7.2349   7.2871   7.4707   7.4796   7.5202
     7.7221   7.8281   7.8504   7.8886   7.9010   8.0336   8.0938   8.1904
     8.2552   8.3283   8.3739   8.4218   8.5756   8.7494   8.8003   8.8452
     8.8813   8.9743

          k = 0.1250 0.2618 0.0000 ( 72315 PWs)   bands (ev):

   -38.3924 -38.3292 -36.0284 -35.9568 -23.1175 -23.1103 -23.0994 -22.9962
   -22.9854 -22.9627 -22.8085 -22.5703 -18.8289 -18.7747 -18.7575 -18.6960
   -18.5098 -18.4459 -17.3495 -17.2808 -17.2496 -17.1825 -17.1272 -17.0525
   -15.6394 -15.5983 -15.2436 -15.2256 -15.0431 -14.9397 -14.9230 -14.8813
   -14.8789 -14.8062 -14.7769 -14.7629 -14.7603 -14.7391 -14.5752 -14.5506
   -14.4462 -14.4080 -14.4061 -14.3640 -14.3305 -14.2962 -14.2938 -14.2896
   -14.2830 -14.2280 -14.1318 -14.0997 -13.1137 -12.7832  -8.4582  -8.3731
    -8.3603  -8.2887  -8.2765  -8.2428  -8.2005  -8.1901  -8.1279  -8.1175
    -8.0993  -8.0300  -8.0195  -8.0185  -8.0154  -7.9899  -7.9744  -7.9723
    -7.9624  -7.8793  -7.8403  -7.8221  -7.5026  -7.4364  -3.3929  -3.3557
    -3.2236  -3.1283  -2.6287  -2.6138  -2.5887  -2.5167  -2.4981  -2.4906
    -2.3926  -2.3828  -2.3679  -2.3233  -2.2712  -2.2143  -2.1579  -2.1196
    -2.0678  -2.0628  -2.0587  -2.0127  -1.9688  -1.9136  -1.8058  -1.7670
    -1.7540  -1.7531  -1.6798  -1.6695  -1.6572  -1.6475  -1.6439  -1.6225
    -1.5883  -1.5098  -1.3248  -1.1762  -1.1616  -1.1151  -1.0250  -1.0057
    -0.9591  -0.9358  -0.8980  -0.8916  -0.8472  -0.8425  -0.7137  -0.6933
    -0.6429  -0.6297  -0.6267  -0.6078  -0.6032  -0.5773  -0.5599  -0.5053
    -0.4375  -0.4347  -0.3926  -0.3907  -0.3279  -0.2997  -0.2733  -0.2580
    -0.2504  -0.2115  -0.1876  -0.1681  -0.1640  -0.1446  -0.1138  -0.1017
    -0.0957  -0.0888  -0.0624  -0.0585  -0.0277   0.0048   0.0216   0.0338
     0.0411   0.0778   0.0928   0.1235   0.1266   0.1378   0.1486   0.1568
     0.1966   0.2013   0.2254   0.2332   0.3712   0.3809   0.3878   0.4558
     0.4876   0.5029   0.5808   0.6026   0.6615   0.6839   0.7144   0.7721
     0.8070   0.8277   0.8549   0.9045   0.9308   0.9368   0.9456   0.9592
     0.9675   1.0124   1.0145   1.0307   1.0376   1.0951   1.1261   1.1407
     1.1427   1.1499   1.2270   1.2431   1.2635   1.3202   1.3425   1.3953
     1.4002   1.4429   1.4523   1.4541   1.4610   1.4954   1.5165   1.5295
     1.5365   1.5727   1.5995   1.6936   1.7344   1.8369   1.8936   1.9353
     1.9409   2.2249   2.3559   2.3767   2.4476   2.5189   2.5472   2.5662
     2.6196   2.6290   2.6654   2.6937   2.8693   2.8981   4.9841   5.3845
     5.3936   5.9453   6.0232   6.3952   6.6798   6.6876   6.6964   6.7396
     6.7807   6.9942   7.1321   7.3111   7.3642   7.4342   7.4950   7.6008
     7.6366   7.7169   7.9509   8.0264   8.0822   8.1649   8.2440   8.3702
     8.4213   8.5047   8.5527   8.6486   8.7130   8.7743   8.8956   8.9408
     8.9531   9.0397

          k = 0.1250 0.5236 0.0000 ( 72272 PWs)   bands (ev):

   -38.3859 -38.3227 -36.0242 -35.9527 -23.0715 -23.0503 -23.0394 -22.9488
   -22.9380 -22.9046 -22.7614 -22.5198 -18.7506 -18.7401 -18.7287 -18.6876
   -18.6785 -18.6740 -17.2821 -17.2642 -17.2378 -17.2087 -17.1946 -17.1706
   -15.3998 -15.3613 -15.1022 -15.0839 -14.9651 -14.9265 -14.9105 -14.8487
   -14.7877 -14.7653 -14.7501 -14.6834 -14.6147 -14.5918 -14.5605 -14.5118
   -14.4798 -14.4400 -14.4249 -14.4048 -14.4002 -14.2998 -14.2784 -14.2647
   -14.2428 -14.2313 -14.1841 -14.1134 -13.0018 -12.9241  -8.5915  -8.5810
    -8.4378  -8.4194  -8.3533  -8.3423  -8.3216  -8.3164  -8.3097  -8.2697
    -8.2585  -8.2280  -8.2240  -8.2145  -8.1663  -8.1393  -8.0769  -8.0406
    -7.9756  -7.9653  -7.9049  -7.7945  -7.6576  -7.5388  -3.7993  -3.7448
    -3.4594  -3.3696  -3.1267  -3.1015  -2.9756  -2.9116  -2.7284  -2.7155
    -2.6456  -2.5980  -2.5403  -2.5333  -2.5328  -2.4982  -2.4909  -2.4205
    -2.3550  -2.3472  -2.3430  -2.3353  -2.2356  -2.1952  -2.1526  -2.1218
    -2.0872  -2.0684  -1.9849  -1.9585  -1.9413  -1.9106  -1.9001  -1.8501
    -1.5330  -1.4831  -1.4109  -1.2837  -1.2733  -1.2384  -1.1934  -1.1672
    -1.1214  -1.0991  -1.0654  -1.0353  -0.9876  -0.9737  -0.9683  -0.9117
    -0.9036  -0.8636  -0.8321  -0.7981  -0.7779  -0.7623  -0.7595  -0.7139
    -0.7004  -0.6536  -0.6290  -0.5964  -0.5937  -0.5445  -0.5227  -0.5179
    -0.4598  -0.3596  -0.3408  -0.2941  -0.2018  -0.1669  -0.1527  -0.1292
    -0.0950  -0.0898  -0.0248  -0.0145   0.0200   0.0547   0.0607   0.0815
     0.1520   0.1765   0.1790   0.2307   0.3655   0.3804   0.3886   0.4185
     0.4880   0.5537   0.5719   0.5921   0.5955   0.7193   0.7704   0.7835
     0.7976   0.8182   0.8248   0.8480   0.8863   0.9033   0.9381   0.9508
     0.9684   1.0080   1.0126   1.0605   1.0670   1.0817   1.0974   1.1044
     1.1394   1.1573   1.1623   1.1899   1.2086   1.2249   1.2568   1.2905
     1.3099   1.3498   1.3751   1.3803   1.4206   1.4396   1.4692   1.4794
     1.4931   1.5235   1.5458   1.5651   1.5724   1.5755   1.5839   1.6550
     1.6609   1.7194   1.7800   1.8039   1.8144   1.8943   1.9799   2.0508
     2.0958   2.1116   2.3144   2.4965   2.7544   2.7731   2.8373   2.8659
     2.8735   2.8853   3.5023   3.5249   3.5947   3.6261   5.4963   6.2626
     6.2706   6.3696   6.3811   6.5573   6.6661   6.7190   6.8078   6.8786
     7.4492   7.4674   7.5925   7.6083   7.8307   7.8731   7.9529   8.1404
     8.1521   8.1536   8.2466   8.2937   8.3070   8.4509   8.4683   8.5188
     8.5484   8.6476   8.7048   8.8244   8.8276   9.0079   9.0501   9.0816
     9.1212   9.1418

          k = 0.1250 0.7854 0.0000 ( 72264 PWs)   bands (ev):

   -38.3793 -38.3162 -36.0201 -35.9486 -23.0245 -22.9885 -22.9776 -22.9002
   -22.8894 -22.8450 -22.7130 -22.4679 -18.9586 -18.8960 -18.7228 -18.6610
   -18.6238 -18.5687 -17.4022 -17.3275 -17.2268 -17.1924 -17.1595 -17.1241
   -15.1732 -15.1523 -15.0704 -15.0154 -14.9346 -14.9138 -14.8683 -14.8122
   -14.7914 -14.7676 -14.7177 -14.6004 -14.5892 -14.5811 -14.4764 -14.4640
   -14.4518 -14.4423 -14.3889 -14.3674 -14.3546 -14.2844 -14.2296 -14.2233
   -14.2126 -14.1962 -14.1840 -14.1503 -13.0589 -12.8803  -8.9430  -8.9324
    -8.7655  -8.6510  -8.6408  -8.6341  -8.4593  -8.4160  -8.3749  -8.3374
    -8.3249  -8.2736  -8.2702  -8.2623  -8.2581  -8.2487  -8.1416  -8.0141
    -7.9269  -7.9215  -7.9110  -7.7366  -7.7341  -7.5626  -4.2839  -4.2304
    -3.8654  -3.7824  -3.5340  -3.5133  -3.3468  -3.2770  -3.1112  -3.1017
    -3.0822  -3.0499  -3.0403  -2.9855  -2.8586  -2.8506  -2.7650  -2.7066
    -2.6066  -2.5647  -2.4630  -2.4578  -2.3932  -2.3886  -2.1702  -2.1162
    -2.1158  -2.0971  -2.0722  -2.0326  -1.9833  -1.9375  -1.8697  -1.8246
    -1.7174  -1.5233  -1.4898  -1.4815  -1.4181  -1.3687  -1.3336  -1.3077
    -1.3054  -1.3018  -1.2804  -1.2467  -1.2458  -1.2287  -1.1248  -1.0758
    -1.0682  -1.0472  -1.0373  -1.0055  -0.9881  -0.9749  -0.9744  -0.9665
    -0.8616  -0.8518  -0.8511  -0.8313  -0.8149  -0.7647  -0.6857  -0.4765
    -0.4694  -0.4056  -0.3453  -0.3105  -0.2636  -0.2017  -0.1942  -0.0875
    -0.0819  -0.0775  -0.0439   0.0030   0.0146   0.0429   0.0807   0.0825
     0.2112   0.2824   0.3128   0.3232   0.5198   0.5532   0.6249   0.6336
     0.7067   0.7457   0.7724   0.8007   0.8318   0.8424   0.9250   0.9550
     0.9710   0.9844   1.0037   1.0049   1.0393   1.0428   1.0729   1.1014
     1.1210   1.1389   1.1558   1.2085   1.2718   1.2902   1.3143   1.3245
     1.3639   1.4075   1.4261   1.4300   1.4455   1.4559   1.4869   1.5037
     1.5385   1.5447   1.5486   1.5637   1.5715   1.6004   1.6130   1.6244
     1.6658   1.6974   1.7301   1.7318   1.7549   1.8410   1.8596   1.9094
     1.9252   1.9904   2.0034   2.0118   2.0176   2.1086   2.1425   2.1841
     2.2102   2.2193   2.4029   2.4532   2.6302   2.6957   2.6998   2.7981
     2.8029   2.8539   4.0995   4.1317   4.1765   4.1945   5.6570   5.8897
     5.8973   6.4487   6.5473   6.9238   7.1368   7.1492   7.4725   7.5351
     7.7862   7.9872   8.0030   8.0450   8.1234   8.3204   8.3319   8.4201
     8.4656   8.5108   8.5728   8.6034   8.6482   8.7358   8.7843   8.8522
     8.8986   8.9367   8.9863   9.0447   9.0982   9.1314   9.1937   9.2284
     9.2876   9.3128

          k = 0.1250-1.0472 0.0000 ( 72362 PWs)   bands (ev):

   -38.3766 -38.3135 -36.0184 -35.9469 -23.0048 -22.9624 -22.9514 -22.8797
   -22.8689 -22.8198 -22.6926 -22.4460 -19.0391 -18.9767 -18.7156 -18.6538
   -18.5767 -18.5213 -17.4526 -17.3779 -17.2222 -17.1567 -17.1549 -17.0884
   -15.1816 -15.1567 -14.9917 -14.9589 -14.9472 -14.8753 -14.8354 -14.8055
   -14.7965 -14.7622 -14.7444 -14.5908 -14.5769 -14.4958 -14.4583 -14.4564
   -14.4488 -14.4060 -14.3826 -14.3633 -14.2929 -14.2432 -14.2332 -14.2011
   -14.1958 -14.1834 -14.1786 -14.1662 -13.1124 -12.8266  -9.0758  -9.0651
    -8.9021  -8.7814  -8.7711  -8.7518  -8.5731  -8.4999  -8.4088  -8.3405
    -8.3263  -8.2885  -8.2781  -8.2681  -8.2559  -8.2535  -8.1651  -8.0032
    -7.9369  -7.8978  -7.8873  -7.7374  -7.7098  -7.5723  -4.4844  -4.4323
    -4.0520  -3.9708  -3.6899  -3.6714  -3.4992  -3.4246  -3.3460  -3.3358
    -3.2915  -3.2802  -3.2705  -3.2018  -2.8842  -2.8762  -2.7823  -2.7346
    -2.7203  -2.6930  -2.4858  -2.4811  -2.3824  -2.3779  -2.2309  -2.1806
    -2.1527  -2.1254  -2.1120  -2.0727  -1.9354  -1.8583  -1.7868  -1.7260
    -1.6810  -1.6616  -1.6285  -1.5633  -1.5494  -1.4811  -1.4389  -1.4122
    -1.3976  -1.3887  -1.3210  -1.3179  -1.3166  -1.2801  -1.1776  -1.1689
    -1.1410  -1.1270  -1.1099  -1.0921  -1.0821  -1.0724  -1.0637  -1.0275
    -0.9504  -0.9416  -0.9355  -0.9246  -0.8011  -0.7703  -0.7091  -0.4428
    -0.4360  -0.3743  -0.3385  -0.2966  -0.2756  -0.2430  -0.2270  -0.2250
    -0.0786  -0.0748  -0.0479  -0.0110   0.0085   0.0495   0.0582   0.0761
     0.2409   0.3267   0.3434   0.3918   0.5794   0.6466   0.6667   0.7259
     0.7275   0.7958   0.8119   0.8251   0.8798   0.9323   0.9340   0.9773
     0.9813   1.0164   1.0508   1.0890   1.1141   1.1154   1.1285   1.1372
     1.1423   1.1688   1.1956   1.2368   1.2766   1.3507   1.3741   1.3894
     1.4347   1.4634   1.5388   1.5669   1.5821   1.5831   1.6096   1.6534
     1.6649   1.6683   1.6700   1.6973   1.7097   1.7141   1.7366   1.7451
     1.8764   1.8988   1.9121   1.9144   1.9432   1.9539   1.9578   1.9629
     1.9731   1.9771   2.0807   2.1655   2.2042   2.2133   2.2241   2.3285
     2.3744   2.3838   2.3951   2.4116   2.4457   2.4839   2.5315   2.6518
     2.6631   2.7408   4.2814   4.3169   4.3798   4.3952   5.6005   5.6633
     5.6710   6.3307   6.4416   7.3726   7.4792   7.4898   7.7396   7.7978
     7.9034   7.9076   7.9724   8.0235   8.1492   8.2421   8.5748   8.5951
     8.6537   8.6838   8.7352   8.7368   8.7891   8.8336   8.9211   8.9500
     8.9679   8.9948   9.0245   9.0756   9.1478   9.1645   9.2107   9.2848
     9.4110   9.5014

          k = 0.2500 0.0000 0.0000 ( 72271 PWs)   bands (ev):

   -38.3951 -38.3319 -36.0301 -35.9585 -23.1348 -23.1220 -23.1111 -23.0289
   -23.0182 -22.9780 -22.8366 -22.5928 -18.8657 -18.8117 -18.7569 -18.6953
   -18.3991 -18.3346 -17.3861 -17.3177 -17.2827 -17.2165 -17.0614 -16.9865
   -15.6706 -15.6289 -15.2581 -15.2429 -15.0905 -14.9710 -14.9691 -14.9456
   -14.9393 -14.8991 -14.8871 -14.8104 -14.7935 -14.7908 -14.5804 -14.5495
   -14.4307 -14.3936 -14.3516 -14.3222 -14.3119 -14.3119 -14.3046 -14.2945
   -14.2806 -14.2014 -14.1439 -14.0691 -13.1105 -12.7779  -8.4682  -8.3850
    -8.3710  -8.2821  -8.2691  -8.2413  -8.1414  -8.1311  -8.1282  -8.0182
    -8.0077  -7.9905  -7.9792  -7.9690  -7.9452  -7.8690  -7.8534  -7.8478
    -7.8461  -7.8372  -7.8283  -7.6742  -7.4440  -7.3375  -3.1828  -3.1587
    -3.0780  -2.9799  -2.5104  -2.4992  -2.4604  -2.4536  -2.3912  -2.3889
    -2.3556  -2.2885  -2.2566  -2.2186  -2.2004  -2.1650  -2.1591  -2.1038
    -2.0688  -2.0409  -2.0291  -2.0143  -1.8309  -1.8070  -1.7751  -1.7695
    -1.4304  -1.4129  -1.3662  -1.3234  -1.3036  -1.2873  -1.2596  -1.2334
    -1.2297  -1.2236  -1.2201  -1.1988  -1.1529  -1.1096  -1.0589  -0.9621
    -0.9336  -0.9268  -0.7869  -0.7259  -0.7049  -0.6844  -0.6244  -0.6143
    -0.6066  -0.5967  -0.5891  -0.5552  -0.5546  -0.5538  -0.5360  -0.5274
    -0.5247  -0.5196  -0.4953  -0.4480  -0.4216  -0.3220  -0.3035  -0.2834
    -0.2812  -0.2686  -0.2634  -0.2455  -0.2359  -0.1675  -0.1652  -0.1171
    -0.0901  -0.0384  -0.0310  -0.0215  -0.0213  -0.0184  -0.0124   0.0018
     0.0131   0.0952   0.1046   0.1064   0.1249   0.1522   0.1816   0.2266
     0.2373   0.2439   0.2488   0.2620   0.2837   0.3107   0.3117   0.3205
     0.4088   0.4237   0.5504   0.5764   0.6054   0.6194   0.6243   0.6864
     0.7176   0.7296   0.7484   0.7577   0.7608   0.8189   0.8254   0.8365
     0.9153   0.9585   0.9685   0.9965   1.0285   1.0329   1.0971   1.1122
     1.1390   1.1763   1.1771   1.2578   1.2591   1.2797   1.3056   1.3058
     1.3485   1.4076   1.4549   1.4672   1.5045   1.5158   1.5417   1.5566
     1.5581   1.5591   1.7411   1.7447   1.7639   1.7661   1.7706   1.8070
     1.9255   1.9401   2.0670   2.1138   2.1576   2.1627   2.2209   2.2720
     2.3380   2.3581   2.3787   2.4058   2.5682   2.6223   4.8306   5.1538
     5.1627   5.8196   5.8875   5.9527   6.2627   6.2701   6.5398   6.5904
     6.6348   6.8378   7.1095   7.1409   7.3135   7.6495   7.6891   7.7325
     7.7480   7.8310   7.8792   7.8914   7.9181   7.9855   8.1011   8.1845
     8.2482   8.3584   8.4801   8.5102   8.5260   8.6675   8.7846   8.8495
     8.9232   9.0189

          k = 0.2500 0.2618 0.0000 ( 72312 PWs)   bands (ev):

   -38.3924 -38.3292 -36.0284 -35.9568 -23.1161 -23.0982 -23.0873 -23.0089
   -22.9981 -22.9549 -22.8169 -22.5721 -18.8273 -18.7730 -18.7497 -18.6881
   -18.5098 -18.4459 -17.3563 -17.2878 -17.2765 -17.2102 -17.1270 -17.0523
   -15.5667 -15.5255 -15.2087 -15.1936 -15.0357 -14.9435 -14.9247 -14.9064
   -14.8854 -14.8563 -14.8497 -14.7962 -14.7765 -14.7577 -14.5421 -14.5083
   -14.4315 -14.4075 -14.3947 -14.3703 -14.3437 -14.3017 -14.2948 -14.2913
   -14.2880 -14.2332 -14.1486 -14.0900 -13.0764 -12.8228  -8.4582  -8.3794
    -8.3669  -8.3084  -8.2969  -8.2544  -8.2533  -8.2435  -8.1735  -8.1629
    -8.1374  -8.0462  -8.0444  -8.0106  -8.0102  -7.9564  -7.9461  -7.9135
    -7.9032  -7.8796  -7.7791  -7.7658  -7.4755  -7.4103  -3.2893  -3.2514
    -3.1220  -3.0269  -2.6672  -2.6477  -2.6026  -2.5251  -2.4783  -2.4695
    -2.4214  -2.4064  -2.3744  -2.3329  -2.3243  -2.2636  -2.2175  -2.1799
    -2.1587  -2.1196  -2.1009  -2.0781  -1.9669  -1.9026  -1.7830  -1.7628
    -1.7433  -1.7152  -1.6746  -1.6633  -1.6568  -1.6465  -1.5690  -1.5396
    -1.5137  -1.4379  -1.3019  -1.1869  -1.1806  -1.1295  -1.0589  -1.0094
    -0.9874  -0.9477  -0.9419  -0.9126  -0.8700  -0.8540  -0.8347  -0.8204
    -0.7590  -0.7259  -0.6312  -0.6089  -0.5877  -0.5653  -0.5578  -0.5030
    -0.4182  -0.4142  -0.3628  -0.3550  -0.3155  -0.2997  -0.2793  -0.2646
    -0.2588  -0.2495  -0.2267  -0.2160  -0.1758  -0.1636  -0.1158  -0.1090
    -0.0989  -0.0919  -0.0749  -0.0534  -0.0096   0.0190   0.0439   0.0670
     0.0752   0.1024   0.1036   0.1254   0.1295   0.1401   0.1555   0.1667
     0.2151   0.2390   0.2558   0.2905   0.3340   0.3460   0.4037   0.4498
     0.4867   0.4953   0.5973   0.6266   0.6526   0.6685   0.7551   0.8125
     0.8236   0.8354   0.8543   0.8731   0.8753   0.9001   0.9217   0.9430
     0.9497   0.9523   0.9895   0.9949   1.0513   1.0581   1.0689   1.0969
     1.1734   1.1832   1.1941   1.2384   1.2521   1.3610   1.3847   1.3914
     1.4000   1.4080   1.4082   1.4162   1.4577   1.4697   1.4754   1.5003
     1.5256   1.5289   1.5705   1.7626   1.8424   1.9086   2.0244   2.0922
     2.1533   2.3014   2.3576   2.4118   2.4504   2.5097   2.5384   2.5625
     2.6238   2.6347   2.6582   2.6874   2.8385   2.8676   5.0714   5.4912
     5.4998   6.0549   6.0872   6.1512   6.3988   6.4070   6.8401   6.9023
     6.9220   7.1535   7.1679   7.2248   7.3824   7.5429   7.6192   7.8069
     7.8164   7.8341   7.9442   8.0213   8.0792   8.1493   8.2557   8.3233
     8.3926   8.5274   8.5848   8.6724   8.6836   8.7539   8.7974   8.8298
     8.9303   8.9525

          k = 0.2500 0.5236 0.0000 ( 72250 PWs)   bands (ev):

   -38.3859 -38.3227 -36.0242 -35.9527 -23.0703 -23.0398 -23.0288 -22.9598
   -22.9490 -22.8980 -22.7684 -22.5212 -18.7505 -18.7325 -18.7273 -18.6874
   -18.6726 -18.6708 -17.2859 -17.2672 -17.2612 -17.2139 -17.1982 -17.1925
   -15.3321 -15.2941 -15.0825 -15.0674 -14.9607 -14.9222 -14.9080 -14.8334
   -14.7893 -14.7684 -14.7512 -14.6948 -14.6873 -14.6812 -14.5677 -14.5221
   -14.4559 -14.4422 -14.4178 -14.4112 -14.3862 -14.2894 -14.2746 -14.2601
   -14.2471 -14.2354 -14.1837 -14.1152 -12.9915 -12.9317  -8.6269  -8.6164
    -8.4492  -8.4372  -8.3738  -8.3633  -8.3406  -8.3375  -8.3256  -8.2748
    -8.2633  -8.2283  -8.1932  -8.1893  -8.1826  -8.1588  -8.0587  -8.0402
    -7.9285  -7.9184  -7.9083  -7.7590  -7.6546  -7.4979  -3.6986  -3.6448
    -3.3567  -3.2683  -3.1646  -3.1336  -2.9852  -2.9205  -2.7095  -2.6976
    -2.6373  -2.5865  -2.5456  -2.5384  -2.5242  -2.4959  -2.4885  -2.4280
    -2.3630  -2.3542  -2.3398  -2.3323  -2.2542  -2.1826  -2.1686  -2.1404
    -2.1176  -2.1133  -2.0944  -2.0383  -1.9023  -1.8739  -1.8545  -1.8277
    -1.5652  -1.5177  -1.4349  -1.3187  -1.3168  -1.2643  -1.2334  -1.2050
    -1.1968  -1.1693  -1.1490  -1.1208  -1.1019  -1.0825  -1.0040  -0.9673
    -0.9002  -0.8583  -0.8162  -0.7868  -0.7715  -0.7465  -0.7453  -0.7237
    -0.6855  -0.6625  -0.6395  -0.5762  -0.5734  -0.5544  -0.5173  -0.4921
    -0.4576  -0.3660  -0.3372  -0.3075  -0.2679  -0.2490  -0.1548  -0.1306
    -0.0859  -0.0681  -0.0209   0.0008   0.0621   0.0794   0.1123   0.1288
     0.1810   0.2356   0.2506   0.2659   0.3307   0.3662   0.4590   0.4738
     0.5059   0.5543   0.5988   0.6210   0.6277   0.6827   0.7446   0.7739
     0.7875   0.8148   0.8188   0.8380   0.8596   0.8674   0.8842   0.8965
     0.9427   0.9645   0.9833   0.9870   0.9983   1.1042   1.1055   1.1360
     1.1635   1.1826   1.2155   1.2212   1.2261   1.2303   1.2537   1.2917
     1.2982   1.3350   1.3458   1.3758   1.3911   1.4209   1.4485   1.4601
     1.4612   1.4669   1.4774   1.5251   1.5631   1.5916   1.6067   1.6285
     1.6450   1.6577   1.7794   1.7874   1.9385   2.2012   2.2282   2.2465
     2.3025   2.3366   2.3967   2.5823   2.7520   2.7772   2.8393   2.8616
     2.8810   2.8941   3.4000   3.4237   3.5051   3.5378   5.5454   6.3029
     6.3111   6.3849   6.3983   6.4936   6.7115   6.7735   6.8615   6.9256
     7.5001   7.5230   7.7278   7.7402   7.8526   7.8822   8.0165   8.0616
     8.1102   8.1330   8.1624   8.2491   8.3157   8.4681   8.5012   8.5359
     8.6143   8.6455   8.7447   8.8185   8.8347   8.9858   9.0210   9.0517
     9.0747   9.1175

          k = 0.2500 0.7854 0.0000 ( 72314 PWs)   bands (ev):

   -38.3793 -38.3162 -36.0201 -35.9486 -23.0236 -22.9796 -22.9687 -22.9094
   -22.8986 -22.8397 -22.7187 -22.4691 -18.9585 -18.8959 -18.7154 -18.6536
   -18.6225 -18.5674 -17.4022 -17.3274 -17.2491 -17.1976 -17.1824 -17.1294
   -15.1281 -15.1106 -15.0277 -14.9659 -14.9394 -14.9226 -14.8465 -14.7997
   -14.7945 -14.7617 -14.7209 -14.6125 -14.5955 -14.5827 -14.5227 -14.5221
   -14.4981 -14.4735 -14.3823 -14.3548 -14.3472 -14.2800 -14.2256 -14.2192
   -14.2094 -14.1990 -14.1864 -14.1545 -13.0390 -12.9023  -8.9031  -8.8925
    -8.7243  -8.6033  -8.5419  -8.5316  -8.4154  -8.4002  -8.3897  -8.3615
    -8.3214  -8.3165  -8.3088  -8.2766  -8.2647  -8.2515  -8.2380  -8.0180
    -7.9777  -7.9673  -7.9265  -7.8133  -7.7962  -7.5920  -4.1804  -4.1289
    -3.7706  -3.6897  -3.5847  -3.5591  -3.3732  -3.3020  -3.1040  -3.0944
    -3.0740  -3.0571  -3.0475  -2.9920  -2.8149  -2.8061  -2.7245  -2.6607
    -2.5199  -2.4836  -2.4730  -2.4636  -2.3890  -2.3839  -2.2013  -2.1437
    -2.1166  -2.0953  -2.0707  -2.0457  -2.0149  -2.0100  -1.9738  -1.9248
    -1.6661  -1.6607  -1.6330  -1.5132  -1.5097  -1.5069  -1.4582  -1.3857
    -1.3582  -1.3324  -1.3320  -1.3060  -1.2422  -1.2219  -1.1174  -1.0469
    -1.0317  -1.0230  -1.0208  -1.0135  -0.9945  -0.9661  -0.9507  -0.9340
    -0.8718  -0.8594  -0.8248  -0.7968  -0.7674  -0.7373  -0.6929  -0.5116
    -0.5054  -0.4337  -0.3479  -0.3272  -0.3174  -0.2899  -0.1207  -0.0746
    -0.0573  -0.0413   0.0211   0.0530   0.0929   0.1204   0.1344   0.1830
     0.2023   0.2827   0.4063   0.4446   0.4508   0.5445   0.6006   0.6703
     0.7055   0.7147   0.7429   0.7965   0.8727   0.9043   0.9130   0.9211
     0.9406   0.9550   0.9897   1.0025   1.0416   1.0544   1.0676   1.0857
     1.1102   1.1185   1.1374   1.1678   1.2339   1.2609   1.2755   1.3168
     1.3255   1.3557   1.3921   1.4057   1.4469   1.4580   1.4794   1.4983
     1.5001   1.5303   1.5541   1.5664   1.6030   1.6143   1.6275   1.6392
     1.6455   1.6937   1.7069   1.7326   1.7500   1.8986   1.9310   1.9731
     1.9859   2.0282   2.0368   2.1553   2.1854   2.1955   2.2174   2.2247
     2.2885   2.3983   2.4026   2.5351   2.6346   2.6994   2.7032   2.7923
     2.8411   2.8847   3.9099   3.9413   4.0030   4.0240   5.7531   6.0452
     6.0534   6.5305   6.6193   6.9576   7.0273   7.0437   7.4125   7.4819
     7.6577   7.8837   7.9323   7.9498   8.1253   8.3352   8.3528   8.4262
     8.4604   8.5158   8.6069   8.6454   8.6905   8.7883   8.8956   8.9041
     8.9430   8.9847   9.0381   9.0994   9.1432   9.1857   9.2277   9.2437
     9.2985   9.3241

          k = 0.2500-1.0472 0.0000 ( 72256 PWs)   bands (ev):

   -38.3766 -38.3135 -36.0184 -35.9469 -23.0040 -22.9542 -22.9433 -22.8881
   -22.8774 -22.8150 -22.6977 -22.4470 -19.0390 -18.9766 -18.7083 -18.6464
   -18.5755 -18.5201 -17.4527 -17.3780 -17.2438 -17.1770 -17.1615 -17.0933
   -15.1499 -15.1245 -14.9361 -14.9262 -14.8934 -14.8883 -14.8391 -14.7992
   -14.7948 -14.7699 -14.7454 -14.5836 -14.5697 -14.5270 -14.4992 -14.4880
   -14.4859 -14.4563 -14.3655 -14.3512 -14.2936 -14.2512 -14.2441 -14.2013
   -14.1942 -14.1818 -14.1811 -14.1686 -13.0822 -12.8640  -8.9890  -8.9783
    -8.8204  -8.6927  -8.6823  -8.6799  -8.4905  -8.4284  -8.4064  -8.3867
    -8.3762  -8.3299  -8.3165  -8.2749  -8.2622  -8.2549  -8.2548  -8.0182
    -8.0076  -8.0049  -7.9356  -7.8216  -7.8116  -7.6698  -4.3781  -4.3283
    -3.9583  -3.8788  -3.7446  -3.7214  -3.5320  -3.4556  -3.3386  -3.3286
    -3.2880  -3.2849  -3.2783  -3.2079  -2.8319  -2.8228  -2.7311  -2.6631
    -2.6560  -2.6158  -2.4934  -2.4883  -2.3830  -2.3781  -2.2107  -2.1660
    -2.1600  -2.0765  -2.0563  -2.0316  -1.9772  -1.9399  -1.9284  -1.9045
    -1.8644  -1.7955  -1.7201  -1.6876  -1.6741  -1.5905  -1.5483  -1.4653
    -1.4064  -1.3845  -1.3616  -1.3574  -1.2632  -1.2267  -1.1787  -1.1264
    -1.1189  -1.1013  -1.0974  -1.0947  -1.0639  -1.0521  -1.0386  -0.9673
    -0.9607  -0.9500  -0.9135  -0.8484  -0.8133  -0.7491  -0.7050  -0.4864
    -0.4807  -0.4094  -0.3567  -0.3479  -0.3286  -0.2809  -0.1140  -0.0721
    -0.0430  -0.0284  -0.0185   0.0634   0.0894   0.0934   0.1084   0.1246
     0.2197   0.2990   0.4814   0.4934   0.5283   0.6126   0.7228   0.7445
     0.7459   0.7760   0.8006   0.8355   0.8888   0.9472   0.9498   0.9640
     0.9758   0.9942   0.9978   1.0449   1.1020   1.1202   1.1219   1.1284
     1.1398   1.1539   1.1713   1.1716   1.2873   1.3291   1.3687   1.3787
     1.4042   1.4472   1.5072   1.5166   1.5343   1.5540   1.5961   1.6082
     1.6192   1.6392   1.6494   1.6646   1.6941   1.6991   1.8207   1.8545
     1.8979   1.9369   1.9499   1.9517   1.9651   2.0086   2.0720   2.1359
     2.1607   2.1656   2.1992   2.2205   2.2234   2.2326   2.2834   2.2883
     2.3067   2.3538   2.3632   2.3913   2.4116   2.4935   2.5488   2.6512
     2.7347   2.7879   4.0539   4.0888   4.1628   4.1811   5.7374   5.8554
     5.8637   6.4202   6.5205   7.2294   7.2401   7.3219   7.6165   7.6547
     7.7396   7.7818   7.9247   8.0004   8.1822   8.2639   8.5826   8.6556
     8.7433   8.7632   8.8585   8.8623   8.9246   8.9811   8.9901   9.0155
     9.0360   9.1000   9.1195   9.1851   9.1867   9.2973   9.3085   9.3120
     9.3708   9.4879

          k = 0.3750 0.0000 0.0000 ( 72350 PWs)   bands (ev):

   -38.3950 -38.3319 -36.0301 -35.9585 -23.1333 -23.1039 -23.0929 -23.0478
   -23.0371 -22.9686 -22.8468 -22.5948 -18.8640 -18.8099 -18.7488 -18.6871
   -18.3991 -18.3346 -17.3931 -17.3249 -17.3102 -17.2447 -17.0614 -16.9865
   -15.5747 -15.5334 -15.2393 -15.2195 -15.1114 -15.0315 -14.9960 -14.9608
   -14.9474 -14.8973 -14.8798 -14.8453 -14.8181 -14.8176 -14.5607 -14.5248
   -14.4106 -14.3786 -14.3537 -14.3323 -14.3161 -14.3152 -14.3106 -14.2989
   -14.2914 -14.2088 -14.1559 -14.0684 -13.0386 -12.8569  -8.4685  -8.3891
    -8.3753  -8.2876  -8.2748  -8.2511  -8.1435  -8.1012  -8.0909  -8.0080
    -7.9978  -7.9919  -7.9833  -7.9727  -7.9114  -7.8853  -7.8747  -7.8537
    -7.8482  -7.8352  -7.8167  -7.7059  -7.4539  -7.3441  -3.0266  -3.0034
    -2.9382  -2.8392  -2.6433  -2.6290  -2.5619  -2.4484  -2.4327  -2.4122
    -2.3802  -2.3456  -2.3234  -2.3130  -2.1926  -2.1577  -2.1521  -2.0912
    -2.0904  -2.0593  -2.0478  -2.0068  -1.8575  -1.8255  -1.7875  -1.7207
    -1.4097  -1.3738  -1.3666  -1.3183  -1.2704  -1.2310  -1.2274  -1.2215
    -1.2181  -1.1610  -1.1508  -1.1413  -1.0772  -1.0576  -1.0070  -0.9761
    -0.9231  -0.8481  -0.8410  -0.7750  -0.7674  -0.7364  -0.7161  -0.6888
    -0.6754  -0.6533  -0.6151  -0.6078  -0.6068  -0.5818  -0.5583  -0.5422
    -0.5278  -0.5156  -0.4491  -0.4398  -0.4124  -0.3663  -0.3423  -0.3169
    -0.3133  -0.2874  -0.2789  -0.2611  -0.2513  -0.1735  -0.1634  -0.1333
    -0.1096  -0.0314  -0.0241  -0.0177  -0.0104   0.0262   0.0328   0.0777
     0.0851   0.1071   0.1140   0.1510   0.1648   0.1673   0.2079   0.2180
     0.2357   0.2385   0.2600   0.2763   0.2975   0.3082   0.3178   0.3211
     0.4368   0.4556   0.5148   0.5496   0.5514   0.5814   0.6046   0.6135
     0.6196   0.6262   0.6959   0.7513   0.7522   0.7566   0.8766   0.8998
     0.9248   0.9942   1.0104   1.0439   1.0716   1.0809   1.0892   1.0909
     1.1576   1.1801   1.1903   1.2214   1.2352   1.2420   1.2445   1.2856
     1.2857   1.3406   1.3788   1.4522   1.5348   1.5502   1.5853   1.5883
     1.6286   1.6362   1.6920   1.7108   1.7638   1.8158   1.8442   1.8811
     1.9111   1.9346   2.0022   2.1160   2.1187   2.1698   2.2059   2.3164
     2.3266   2.3942   2.4013   2.4222   2.5253   2.5790   4.9905   5.3566
     5.3650   5.6193   5.9165   5.9239   6.0502   6.1292   6.7668   6.8388
     6.8474   6.8927   6.9434   7.0973   7.3926   7.5337   7.5590   7.5840
     7.7996   7.8339   7.8774   7.8943   8.0430   8.1084   8.1622   8.1784
     8.2749   8.3482   8.4174   8.6135   8.7770   8.7905   8.8106   8.8400
     8.8849   8.9712

          k = 0.3750 0.2618 0.0000 ( 72342 PWs)   bands (ev):

   -38.3924 -38.3292 -36.0284 -35.9568 -23.1147 -23.0811 -23.0701 -23.0268
   -23.0161 -22.9460 -22.8264 -22.5739 -18.8256 -18.7713 -18.7418 -18.6801
   -18.5098 -18.4459 -17.3630 -17.3028 -17.2946 -17.2371 -17.1269 -17.0522
   -15.4712 -15.4307 -15.1866 -15.1703 -15.0566 -14.9753 -14.9689 -14.9373
   -14.8991 -14.8661 -14.8427 -14.8189 -14.7945 -14.7823 -14.5241 -14.4856
   -14.4256 -14.4016 -14.3863 -14.3768 -14.3555 -14.3050 -14.2954 -14.2940
   -14.2930 -14.2360 -14.1613 -14.0845 -13.0201 -12.8815  -8.4582  -8.3892
    -8.3770  -8.3334  -8.3225  -8.2810  -8.2701  -8.2645  -8.1972  -8.1863
    -8.1750  -8.0689  -8.0625  -8.0303  -8.0254  -7.9043  -7.8941  -7.8809
    -7.8731  -7.8624  -7.7384  -7.7219  -7.4501  -7.3865  -3.1305  -3.0923
    -2.9727  -2.8785  -2.7678  -2.7396  -2.6603  -2.5643  -2.4645  -2.4515
    -2.4509  -2.4323  -2.4026  -2.3670  -2.3499  -2.3224  -2.3120  -2.2924
    -2.2095  -2.1618  -2.1043  -2.0839  -1.9674  -1.8932  -1.7729  -1.7610
    -1.7214  -1.6784  -1.6702  -1.6612  -1.6558  -1.6511  -1.4588  -1.4208
    -1.3840  -1.3199  -1.2661  -1.2040  -1.2030  -1.1865  -1.1289  -1.1189
    -1.0287  -1.0033  -0.9925  -0.9608  -0.9520  -0.9491  -0.8719  -0.8634
    -0.7922  -0.7878  -0.6709  -0.6277  -0.5918  -0.5446  -0.5230  -0.4768
    -0.4206  -0.4081  -0.3853  -0.3703  -0.3282  -0.3226  -0.2898  -0.2869
    -0.2524  -0.2474  -0.2185  -0.2138  -0.1759  -0.1627  -0.1273  -0.1232
    -0.0919  -0.0877  -0.0526  -0.0466  -0.0204   0.0467   0.0581   0.1051
     0.1091   0.1123   0.1230   0.1259   0.1406   0.1596   0.1745   0.1883
     0.2191   0.2533   0.2646   0.2900   0.3043   0.4007   0.4241   0.4379
     0.4583   0.5122   0.6106   0.6389   0.6513   0.6858   0.7201   0.7595
     0.7644   0.7990   0.8401   0.8603   0.8688   0.9180   0.9464   0.9532
     0.9766   0.9911   0.9923   0.9936   1.0254   1.0486   1.0673   1.0881
     1.1618   1.2112   1.2153   1.2405   1.2541   1.2692   1.3073   1.3122
     1.3630   1.3665   1.3750   1.4010   1.4330   1.4831   1.4916   1.4924
     1.5254   1.5628   1.5692   1.6148   1.9621   2.0463   2.2060   2.2631
     2.3427   2.3573   2.3715   2.4375   2.4907   2.5045   2.5156   2.5532
     2.6294   2.6431   2.6455   2.6714   2.7738   2.8031   5.1906   5.6572
     5.6652   5.8378   6.1204   6.1282   6.2417   6.3161   6.9445   7.0037
     7.0572   7.1586   7.1650   7.3949   7.4932   7.6238   7.6748   7.7685
     7.7842   7.8164   7.9609   8.0275   8.1766   8.2206   8.3050   8.3105
     8.3984   8.4352   8.4792   8.6035   8.7306   8.7484   8.8200   8.8956
     8.9203   8.9399

          k = 0.3750 0.5236 0.0000 ( 72253 PWs)   bands (ev):

   -38.3858 -38.3227 -36.0243 -35.9527 -23.0692 -23.0250 -23.0140 -22.9751
   -22.9644 -22.8906 -22.7763 -22.5227 -18.7503 -18.7259 -18.7248 -18.6872
   -18.6713 -18.6630 -17.2908 -17.2857 -17.2675 -17.2214 -17.2183 -17.1954
   -15.2418 -15.2060 -15.0714 -15.0590 -14.9569 -14.9239 -14.9171 -14.8220
   -14.7949 -14.7873 -14.7706 -14.7544 -14.7134 -14.6957 -14.5740 -14.5325
   -14.4741 -14.4420 -14.4373 -14.3979 -14.3688 -14.2762 -14.2699 -14.2557
   -14.2524 -14.2406 -14.1839 -14.1168 -12.9766 -12.9438  -8.6250  -8.6146
    -8.4875  -8.4771  -8.4437  -8.4362  -8.3443  -8.3369  -8.3249  -8.3059
    -8.2693  -8.2580  -8.2192  -8.2123  -8.0821  -8.0716  -8.0525  -7.9393
    -7.9313  -7.9212  -7.9100  -7.7648  -7.6009  -7.4972  -3.5529  -3.5014
    -3.2498  -3.2138  -3.2105  -3.1220  -3.0137  -2.9445  -2.6741  -2.6640
    -2.6110  -2.5627  -2.5587  -2.5471  -2.5166  -2.4891  -2.4810  -2.4372
    -2.4032  -2.3948  -2.3908  -2.3341  -2.3276  -2.3043  -2.2812  -2.2716
    -2.1008  -2.0528  -1.9773  -1.9426  -1.8426  -1.8056  -1.8028  -1.7543
    -1.6337  -1.5861  -1.5184  -1.4837  -1.4730  -1.3922  -1.3388  -1.2790
    -1.2605  -1.2311  -1.1730  -1.1634  -1.1297  -1.1136  -0.9509  -0.9293
    -0.9221  -0.8707  -0.8356  -0.7937  -0.7500  -0.7237  -0.7204  -0.7042
    -0.6825  -0.6506  -0.6437  -0.5858  -0.5772  -0.5547  -0.5166  -0.4641
    -0.4515  -0.4294  -0.3878  -0.3770  -0.3290  -0.3009  -0.1553  -0.1492
    -0.0255  -0.0007   0.0410   0.0486   0.0760   0.1323   0.1613   0.1826
     0.2209   0.2724   0.3088   0.3192   0.3309   0.3881   0.4374   0.5204
     0.5236   0.6090   0.6229   0.6601   0.6763   0.6815   0.7201   0.7234
     0.7584   0.7645   0.8022   0.8193   0.8239   0.8294   0.8433   0.8615
     0.8822   0.9141   0.9213   1.0189   1.0404   1.0562   1.1090   1.1249
     1.1584   1.1709   1.2145   1.2359   1.2497   1.2613   1.2818   1.2856
     1.2950   1.3215   1.3317   1.3593   1.3721   1.3930   1.3999   1.4120
     1.4494   1.4628   1.5000   1.5119   1.5383   1.5494   1.6062   1.6435
     1.6515   1.6563   1.7415   1.7489   2.1240   2.2584   2.3415   2.3530
     2.5899   2.6330   2.6985   2.7504   2.7805   2.7894   2.8406   2.8560
     2.9256   2.9343   3.2195   3.2454   3.3444   3.3799   5.6003   6.3500
     6.3591   6.3929   6.4097   6.4263   6.7898   6.8495   6.8966   6.9587
     7.5765   7.5989   7.7796   7.8337   7.9014   7.9175   7.9401   7.9982
     8.0887   8.1002   8.2155   8.3502   8.3644   8.4775   8.5319   8.6183
     8.6434   8.7407   8.8144   8.8246   8.8449   8.8724   8.9290   8.9600
     9.0082   9.0809

          k = 0.3750 0.7854 0.0000 ( 72298 PWs)   bands (ev):

   -38.3793 -38.3162 -36.0201 -35.9486 -23.0227 -22.9674 -22.9564 -22.9219
   -22.9113 -22.8338 -22.7249 -22.4702 -18.9584 -18.8958 -18.7078 -18.6460
   -18.6213 -18.5661 -17.4022 -17.3274 -17.2712 -17.2049 -17.2027 -17.1347
   -15.0749 -15.0590 -14.9715 -14.9572 -14.9540 -14.8921 -14.8139 -14.8009
   -14.7828 -14.7411 -14.7231 -14.6387 -14.6131 -14.5992 -14.5808 -14.5744
   -14.5269 -14.5128 -14.3733 -14.3482 -14.3381 -14.2852 -14.2203 -14.2141
   -14.2044 -14.2036 -14.1904 -14.1593 -13.0087 -12.9345  -8.8217  -8.8112
    -8.6460  -8.5492  -8.5486  -8.5388  -8.4150  -8.3968  -8.3860  -8.3820
    -8.3125  -8.3006  -8.2929  -8.2829  -8.2713  -8.2509  -8.2191  -8.0826
    -8.0722  -8.0197  -7.9295  -7.8947  -7.8329  -7.6657  -4.0371  -3.9898
    -3.6734  -3.6453  -3.6422  -3.5673  -3.4241  -3.3481  -3.0932  -3.0836
    -3.0678  -3.0642  -3.0582  -3.0001  -2.7367  -2.7264  -2.6444  -2.5692
    -2.5125  -2.5049  -2.3858  -2.3744  -2.3721  -2.3484  -2.3426  -2.2442
    -2.2404  -2.2035  -2.0889  -2.0585  -2.0397  -2.0015  -1.9112  -1.8795
    -1.8677  -1.8432  -1.8034  -1.7194  -1.5886  -1.5430  -1.5110  -1.3842
    -1.3798  -1.3490  -1.3401  -1.3242  -1.1918  -1.1597  -1.1294  -1.0758
    -1.0445  -1.0311  -0.9954  -0.9753  -0.9405  -0.9291  -0.9240  -0.8919
    -0.8869  -0.8458  -0.8108  -0.7751  -0.7329  -0.7282  -0.6749  -0.5675
    -0.5587  -0.4856  -0.4775  -0.4653  -0.3469  -0.3154  -0.1275  -0.0730
     0.0280   0.0952   0.1198   0.1322   0.1570   0.2210   0.2398   0.2546
     0.2555   0.3567   0.3750   0.4237   0.5389   0.6112   0.6359   0.6592
     0.7195   0.7367   0.7625   0.7673   0.8221   0.8256   0.8350   0.8729
     0.8997   0.9416   1.0012   1.0182   1.0521   1.0594   1.0796   1.0871
     1.1204   1.1394   1.1609   1.1691   1.1957   1.2107   1.2267   1.2392
     1.3175   1.3439   1.3706   1.3990   1.4266   1.4357   1.4510   1.4682
     1.4902   1.5199   1.5308   1.5467   1.5673   1.5716   1.5937   1.6511
     1.6569   1.6869   1.6990   1.7637   1.7713   1.8818   1.9171   1.9387
     1.9670   2.0654   2.0738   2.1512   2.1600   2.2335   2.2804   2.3189
     2.5957   2.6220   2.6386   2.7016   2.7050   2.7544   2.7865   2.8051
     3.0215   3.0387   3.6013   3.6329   3.7258   3.7505   5.8599   6.2745
     6.2843   6.6280   6.7020   6.8361   6.8503   7.0141   7.3054   7.3792
     7.5375   7.7986   7.8643   7.8883   8.1760   8.3700   8.3889   8.4031
     8.4197   8.5328   8.6203   8.6311   8.7022   8.8072   8.9421   8.9855
     9.0451   9.0691   9.1479   9.1747   9.1877   9.2282   9.3250   9.3610
     9.4025   9.4626

          k = 0.3750-1.0472 0.0000 ( 72290 PWs)   bands (ev):

   -38.3766 -38.3135 -36.0184 -35.9469 -23.0032 -22.9432 -22.9321 -22.8995
   -22.8888 -22.8098 -22.7033 -22.4480 -19.0389 -18.9765 -18.7008 -18.6389
   -18.5743 -18.5189 -17.4527 -17.3780 -17.2652 -17.1988 -17.1663 -17.0982
   -15.1033 -15.0762 -14.9549 -14.9317 -14.8553 -14.8387 -14.8088 -14.8064
   -14.7554 -14.7516 -14.7244 -14.5806 -14.5720 -14.5700 -14.5640 -14.5312
   -14.5270 -14.5121 -14.3397 -14.3342 -14.3013 -14.2779 -14.2448 -14.2014
   -14.1916 -14.1844 -14.1791 -14.1720 -13.0357 -12.9175  -8.8575  -8.8469
    -8.6979  -8.5938  -8.5546  -8.5442  -8.5294  -8.5189  -8.4079  -8.3854
    -8.3670  -8.3291  -8.3147  -8.3020  -8.2898  -8.2779  -8.2525  -8.1848
    -8.1743  -8.0076  -7.9730  -7.9331  -7.9001  -7.7922  -4.2330  -4.1878
    -3.8358  -3.8346  -3.8064  -3.7581  -3.5898  -3.5092  -3.3271  -3.3174
[...]
    -2.9066  -2.9053  -2.8259  -2.7706  -2.7482  -2.6494  -2.4816  -2.4641
    -2.4389  -2.4214  -2.4129  -2.3813  -2.3722  -2.3477  -2.3404  -2.3308
    -2.2196  -2.1761  -2.1018  -2.0878  -1.9678  -1.8892  -1.7675  -1.7640
    -1.7092  -1.6668  -1.6652  -1.6645  -1.6550  -1.6485  -1.3385  -1.3377
    -1.3104  -1.2693  -1.2373  -1.2241  -1.2060  -1.1888  -1.1802  -1.1434
    -1.1211  -1.1026  -1.0997  -1.0345  -0.9904  -0.9581  -0.8588  -0.8449
    -0.7597  -0.7342  -0.7332  -0.6888  -0.5895  -0.5356  -0.4928  -0.4650
    -0.4437  -0.4188  -0.3992  -0.3866  -0.3360  -0.3349  -0.2785  -0.2742
    -0.2626  -0.2470  -0.2078  -0.1945  -0.1757  -0.1556  -0.1339  -0.1281
    -0.0920  -0.0804  -0.0413  -0.0380  -0.0285   0.0552   0.0623   0.0999
     0.1152   0.1170   0.1408   0.1567   0.1635   0.1683   0.1953   0.1969
     0.2146   0.2168   0.2344   0.2992   0.3141   0.4058   0.4161   0.4510
     0.5059   0.5283   0.6094   0.6396   0.6496   0.6669   0.6769   0.6963
     0.7756   0.7891   0.8061   0.8192   0.8581   0.9309   0.9863   0.9979
     1.0024   1.0087   1.0116   1.0134   1.0439   1.0834   1.1059   1.1328
     1.1429   1.1504   1.1589   1.2137   1.2149   1.2570   1.2999   1.3056
     1.3111   1.3199   1.3637   1.3702   1.4742   1.5012   1.5080   1.5150
     1.5169   1.5239   1.5662   1.5710   2.0438   2.0551   2.3097   2.3448
     2.3456   2.3632   2.3976   2.4855   2.4889   2.5094   2.5500   2.5727
     2.6122   2.6547   2.6561   2.6630   2.7101   2.7375   5.2637   5.7226
     5.8619   5.8692   5.8791   5.8869   6.3653   6.4352   6.8033   6.8798
     7.2144   7.3849   7.4427   7.4444   7.4908   7.5033   7.5843   7.6777
     7.7546   7.8468   7.8926   7.9698   8.1878   8.2303   8.3078   8.3459
     8.4480   8.5175   8.5244   8.6235   8.6734   8.6804   8.7987   8.8584
     8.8850   8.9285

          k =-0.5000 0.5236 0.0000 ( 72270 PWs)   bands (ev):

   -38.3858 -38.3227 -36.0243 -35.9527 -23.0687 -23.0149 -23.0038 -22.9853
   -22.9748 -22.8873 -22.7799 -22.5233 -18.7503 -18.7253 -18.7216 -18.6871
   -18.6707 -18.6597 -17.2962 -17.2920 -17.2680 -17.2304 -17.2215 -17.1957
   -15.1818 -15.1495 -15.0843 -15.0692 -14.9547 -14.9432 -14.9137 -14.8407
   -14.7959 -14.7957 -14.7837 -14.7581 -14.7094 -14.7039 -14.5758 -14.5370
   -14.4880 -14.4473 -14.4386 -14.3936 -14.3624 -14.2694 -14.2672 -14.2556
   -14.2554 -14.2425 -14.1842 -14.1173 -12.9622 -12.9570  -8.5910  -8.5806
    -8.5619  -8.5515  -8.4356  -8.4100  -8.3763  -8.3363  -8.3355  -8.3244
    -8.2687  -8.2574  -8.2465  -8.2197  -8.0525  -7.9920  -7.9817  -7.9812
    -7.9707  -7.9105  -7.8756  -7.7916  -7.5466  -7.5279  -3.4292  -3.3804
    -3.3410  -3.3005  -3.0979  -3.0757  -3.0082  -3.0050  -2.6353  -2.6262
    -2.5966  -2.5870  -2.5481  -2.5466  -2.4868  -2.4791  -2.4749  -2.4618
    -2.4500  -2.4477  -2.4415  -2.4243  -2.3295  -2.3221  -2.3080  -2.3004
    -2.0893  -2.0601  -1.8167  -1.8029  -1.7846  -1.7655  -1.7581  -1.7266
    -1.6779  -1.6719  -1.6455  -1.6173  -1.5825  -1.5063  -1.3389  -1.3224
    -1.2634  -1.2373  -1.1955  -1.1473  -1.1237  -1.1048  -0.9651  -0.9479
    -0.8800  -0.8710  -0.8446  -0.8106  -0.7212  -0.7203  -0.7062  -0.6942
    -0.6750  -0.6418  -0.6111  -0.6084  -0.5961  -0.5728  -0.5236  -0.5032
    -0.4436  -0.4434  -0.4381  -0.3894  -0.3259  -0.3104  -0.1546  -0.1531
     0.0197   0.0253   0.0414   0.0790   0.1284   0.1309   0.1740   0.2291
     0.2333   0.2630   0.2990   0.3006   0.3723   0.4438   0.4571   0.5167
     0.5344   0.5962   0.6384   0.6851   0.6913   0.7054   0.7139   0.7240
     0.7319   0.7401   0.7874   0.8060   0.8066   0.8090   0.8168   0.8174
     0.8747   0.8920   0.9056   1.0249   1.0611   1.0740   1.1035   1.1635
     1.1803   1.1805   1.1836   1.1886   1.2354   1.2384   1.2452   1.2690
     1.2985   1.3073   1.3231   1.3377   1.3876   1.4049   1.4291   1.4321
     1.4484   1.4704   1.4863   1.4936   1.5232   1.5513   1.5940   1.6399
     1.6941   1.6968   1.6979   1.7062   2.2274   2.2411   2.3587   2.3595
     2.7476   2.7490   2.8034   2.8188   2.8380   2.8480   2.9369   2.9641
     2.9843   3.0170   3.0782   3.1147   3.1502   3.1882   5.6256   6.3691
     6.3818   6.3908   6.4030   6.4128   6.8434   6.8957   6.9017   6.9535
     7.6312   7.6412   7.7146   7.8136   7.8643   7.9362   8.0317   8.0408
     8.0541   8.0635   8.2830   8.4198   8.4965   8.5027   8.5386   8.6306
     8.6966   8.7581   8.7727   8.8177   8.8213   8.8406   8.8565   8.9505
     8.9783   9.0972

          k =-0.5000 0.7854 0.0000 ( 72274 PWs)   bands (ev):

   -38.3793 -38.3162 -36.0201 -35.9486 -23.0224 -22.9596 -22.9485 -22.9299
   -22.9193 -22.8311 -22.7277 -22.4707 -18.9584 -18.8958 -18.7047 -18.6428
   -18.6207 -18.5656 -17.4021 -17.3273 -17.2803 -17.2142 -17.2048 -17.1369
   -15.0350 -15.0170 -15.0021 -14.9903 -14.9133 -14.8453 -14.8198 -14.7912
   -14.7695 -14.7303 -14.7269 -14.6698 -14.6362 -14.6196 -14.5924 -14.5794
   -14.5378 -14.5354 -14.3677 -14.3514 -14.3281 -14.2913 -14.2169 -14.2109
   -14.2075 -14.2005 -14.1939 -14.1616 -12.9755 -12.9685  -8.7177  -8.7072
    -8.6791  -8.6687  -8.5609  -8.5115  -8.4884  -8.4145  -8.3160  -8.3084
    -8.3038  -8.3011  -8.2898  -8.2456  -8.2215  -8.2207  -8.2107  -8.2103
    -8.1318  -8.0161  -7.9792  -7.9310  -7.7758  -7.7508  -3.9375  -3.8951
    -3.7493  -3.7110  -3.5542  -3.4878  -3.4827  -3.3958  -3.0809  -3.0799
    -3.0715  -3.0703  -3.0593  -3.0043  -2.6563  -2.6455  -2.5792  -2.5668
    -2.5252  -2.5064  -2.4330  -2.4139  -2.3532  -2.3420  -2.3232  -2.3105
    -2.2318  -2.1938  -2.1014  -2.0733  -2.0587  -2.0526  -1.9697  -1.9560
    -1.9130  -1.9088  -1.7858  -1.7395  -1.6549  -1.6040  -1.4344  -1.4030
    -1.3926  -1.3787  -1.3407  -1.3284  -1.1455  -1.1302  -1.1131  -1.0944
    -1.0523  -1.0279  -1.0253  -0.9989  -0.9169  -0.9147  -0.9027  -0.8996
    -0.8575  -0.8045  -0.7898  -0.7613  -0.7376  -0.7099  -0.6310  -0.6194
    -0.5959  -0.5709  -0.5329  -0.5116  -0.3494  -0.3202  -0.1156  -0.0859
     0.1020   0.1139   0.1794   0.1857   0.1932   0.2034   0.2715   0.2895
     0.3126   0.3406   0.3885   0.4714   0.5012   0.6927   0.6942   0.6957
     0.7216   0.7248   0.7484   0.7744   0.7818   0.8085   0.8161   0.8440
     0.8641   0.9037   0.9929   1.0297   1.0372   1.0522   1.0752   1.0767
     1.0803   1.1148   1.1415   1.1676   1.1811   1.2362   1.2873   1.2964
     1.3149   1.3269   1.3372   1.3472   1.3973   1.4485   1.4702   1.4936
     1.4980   1.5168   1.5305   1.5324   1.5524   1.5667   1.5683   1.5912
     1.6528   1.6575   1.6840   1.6893   1.7724   1.8788   1.9416   1.9578
     2.1035   2.1113   2.1139   2.1226   2.1327   2.1374   2.2692   2.2877
     2.6410   2.6416   2.6754   2.7058   2.7653   2.7856   3.1768   3.2103
     3.2125   3.2449   3.3498   3.3829   3.3919   3.4156   5.9083   6.5214
     6.5305   6.5433   6.5684   6.7436   6.8055   7.0281   7.2404   7.3194
     7.4853   7.7564   7.8516   7.8759   8.1975   8.3584   8.3988   8.4443
     8.4466   8.5292   8.5431   8.5756   8.7429   8.8244   8.9165   8.9767
     9.1172   9.2375   9.2408   9.2561   9.2924   9.3233   9.3352   9.3486
     9.4403   9.4501

          k =-0.5000-1.0472 0.0000 ( 72268 PWs)   bands (ev):

   -38.3766 -38.3135 -36.0184 -35.9469 -23.0029 -22.9363 -22.9251 -22.9065
   -22.8959 -22.8074 -22.7057 -22.4485 -19.0389 -18.9764 -18.6977 -18.6357
   -18.5738 -18.5184 -17.4527 -17.3781 -17.2740 -17.2078 -17.1682 -17.1002
   -15.0689 -15.0372 -14.9872 -14.9723 -14.8476 -14.8100 -14.7815 -14.7643
   -14.7500 -14.7242 -14.7012 -14.6209 -14.5978 -14.5803 -14.5724 -14.5610
   -14.5576 -14.5235 -14.3180 -14.3142 -14.3110 -14.3069 -14.2450 -14.2014
   -14.1885 -14.1877 -14.1761 -14.1753 -12.9834 -12.9728  -8.7211  -8.7106
    -8.6704  -8.6599  -8.5821  -8.5510  -8.5045  -8.4075  -8.3961  -8.3855
    -8.3726  -8.3620  -8.2949  -8.2925  -8.2823  -8.2807  -8.2736  -8.2662
    -8.2545  -8.0832  -8.0070  -7.9438  -7.9292  -7.8610  -4.1372  -4.0968
    -3.9086  -3.8721  -3.7489  -3.6820  -3.6467  -3.5573  -3.3139  -3.3130
    -3.3042  -3.3032  -3.2726  -3.2194  -2.6610  -2.6512  -2.5575  -2.5431
    -2.5072  -2.4486  -2.4306  -2.3949  -2.3925  -2.3816  -2.3081  -2.2944
    -2.2904  -2.2569  -2.2309  -2.2093  -2.1602  -2.0781  -2.0760  -2.0656
    -2.0459  -2.0181  -1.8028  -1.7585  -1.6828  -1.6341  -1.4711  -1.4447
    -1.4342  -1.4261  -1.3987  -1.3923  -1.2308  -1.1925  -1.1448  -1.1201
    -1.1143  -1.0870  -1.0401  -1.0141  -0.9969  -0.9965  -0.9856  -0.9773
    -0.8981  -0.8640  -0.8456  -0.8187  -0.8180  -0.7163  -0.6359  -0.6333
    -0.6158  -0.5930  -0.5503  -0.5282  -0.3522  -0.3210  -0.0941  -0.0572
     0.1326   0.1384   0.1990   0.2061   0.2425   0.2513   0.2655   0.2849
     0.2857   0.3337   0.4065   0.5190   0.5202   0.7336   0.7405   0.7856
     0.7948   0.8145   0.8345   0.8702   0.8733   0.9008   0.9030   0.9540
     0.9541   0.9580   1.0202   1.0506   1.0631   1.0833   1.0980   1.1227
     1.1334   1.1738   1.1792   1.1966   1.2063   1.2190   1.2444   1.2492
     1.2879   1.3293   1.3431   1.4454   1.5205   1.5358   1.5874   1.6028
     1.6056   1.6366   1.7041   1.7345   1.7500   1.7637   1.8308   1.8328
     1.8605   1.8962   1.9039   1.9348   1.9356   1.9476   1.9491   2.0566
     2.1552   2.1688   2.2030   2.2191   2.2832   2.2921   2.2923   2.3016
     2.4273   2.4370   2.4871   2.5089   2.6194   2.6877   3.1981   3.2315
     3.2617   3.2969   3.3584   3.3921   3.4706   3.4927   5.9874   6.4649
     6.4738   6.4833   6.5151   6.6703   6.7300   7.1186   7.2723   7.3366
     7.6121   7.8549   7.9551   7.9592   8.1580   8.4669   8.5445   8.5879
     8.8721   8.8937   8.9172   8.9351   9.0136   9.0994   9.1286   9.1470
     9.1917   9.2216   9.2792   9.2923   9.4810   9.5094   9.5181   9.5255
     9.5305   9.5409

     the Fermi energy is     2.4635 ev

!    total energy              =   -3711.52560001 Ry
     Harris-Foulkes estimate   =   -3711.52560001 Ry
     estimated scf accuracy    <          2.3E-09 Ry

     The total energy is the sum of the following terms:

     one-electron contribution =  -55148.73838610 Ry
     hartree contribution      =   27876.55656958 Ry
     xc contribution           =   -1263.80431343 Ry
     ewald contribution        =   24824.48066872 Ry
     smearing contrib. (-TS)   =      -0.02013878 Ry

     convergence has been achieved in  35 iterations

     negative rho (up, down):  9.218E-02 0.000E+00

     Forces acting on atoms (cartesian axes, Ry/au):

     atom    1 type  4   force =    -0.00001036    0.00000000   -0.00050844
     atom    2 type  4   force =     0.00001036    0.00000000   -0.00050844
     atom    3 type  3   force =    -0.00000158    0.00000000    0.00010168
     atom    4 type  3   force =     0.00000158    0.00000000    0.00010168
     atom    5 type  4   force =     0.00000624    0.00000000    0.00013833
     atom    6 type  4   force =    -0.00000624    0.00000000    0.00013833
     atom    7 type  1   force =     0.00000000    0.00000000   -0.00037461
     atom    8 type  1   force =     0.00000000    0.00000000   -0.00033877
     atom    9 type  3   force =     0.00010665    0.00000000   -0.00028151
     atom   10 type  3   force =    -0.00010665    0.00000000   -0.00028151
     atom   11 type  4   force =     0.00000000    0.00000000    0.00108332
     atom   12 type  4   force =     0.00005382    0.00000000    0.00135654
     atom   13 type  4   force =    -0.00005382    0.00000000    0.00135654
     atom   14 type  4   force =     0.00000000    0.00000000    0.00141796
     atom   15 type  2   force =     0.00000000    0.00000000   -0.00323712
     atom   16 type  5   force =     0.00000000    0.00000000   -0.00477592
     atom   17 type  4   force =     0.00093096    0.00000000    0.00620576
     atom   18 type  4   force =    -0.00093096    0.00000000    0.00620576
     atom   19 type  4   force =     0.00000000    0.00000000    0.00396920
     atom   20 type  4   force =     0.00000000    0.00000000    0.00516022
     atom   21 type  3   force =     0.00055196    0.00000000   -0.00180462
     atom   22 type  3   force =    -0.00055196    0.00000000   -0.00180462
     atom   23 type  1   force =     0.00000000    0.00000000    0.00731170
     atom   24 type  1   force =     0.00000000    0.00000000    0.01370530
     atom   25 type  4   force =     0.00244156    0.00000000   -0.01826923
     atom   26 type  4   force =    -0.00244156    0.00000000   -0.01826923
     atom   27 type  4   force =    -0.01296986    0.00000000    0.02845581
     atom   28 type  4   force =     0.01296986    0.00000000    0.02845581
     atom   29 type  3   force =     0.01249829    0.00000000   -0.02444654
     atom   30 type  3   force =    -0.01249829    0.00000000   -0.02444654
     atom   31 type  4   force =     0.01482093    0.00000000    0.02621852
     atom   32 type  4   force =    -0.01482093    0.00000000    0.02621852
     atom   33 type  1   force =     0.00000000    0.00000000   -0.00559550
     atom   34 type  1   force =     0.00000000    0.00000000   -0.01576101
     atom   35 type  3   force =    -0.00346199    0.00000000   -0.02098495
     atom   36 type  3   force =     0.00346199    0.00000000   -0.02098495
     atom   37 type  4   force =     0.00000000    0.00000000    0.00312629
     atom   38 type  4   force =     0.00000000    0.00000000    0.00077368
     atom   39 type  4   force =     0.00280391    0.00000000    0.00043088
     atom   40 type  4   force =    -0.00280391    0.00000000    0.00043088
     atom   41 type  5   force =     0.00000000    0.00000000    0.00207629
     atom   42 type  2   force =     0.00000000    0.00000000    0.00041194
     atom   43 type  4   force =     0.00000000    0.00000000    0.00022229
     atom   44 type  4   force =     0.00002477    0.00000000   -0.00138293
     atom   45 type  4   force =    -0.00002477    0.00000000   -0.00138293
     atom   46 type  4   force =     0.00000000    0.00000000   -0.00008858
     atom   47 type  3   force =    -0.00004049    0.00000000    0.00031259
     atom   48 type  3   force =     0.00004049    0.00000000    0.00031259
     atom   49 type  1   force =     0.00000000    0.00000000    0.00016940
     atom   50 type  1   force =     0.00000000    0.00000000    0.00022810
     atom   51 type  4   force =    -0.00004168    0.00000000   -0.00081280
     atom   52 type  4   force =     0.00004168    0.00000000   -0.00081280
     atom   53 type  3   force =    -0.00003526    0.00000000    0.00090507
     atom   54 type  3   force =     0.00003526    0.00000000    0.00090507
     atom   55 type  4   force =     0.00002183    0.00000000   -0.00037626
     atom   56 type  4   force =    -0.00002183    0.00000000   -0.00037626

     Total force =     0.087125     Total SCF correction =     0.000285


     Computing stress (Cartesian axis) and pressure


     negative rho (up, down):  9.218E-02 0.000E+00
          total   stress  (Ry/bohr**3)                   (kbar)     P=       -6.02
  -0.00000229   0.00000000   0.00000000           -0.34        0.00        0.00
   0.00000000  -0.00008894   0.00000000            0.00      -13.08        0.00
   0.00000000   0.00000000  -0.00003153            0.00        0.00       -4.64

 
     init_run     :     25.57s CPU     26.11s WALL (       1 calls)
     electrons    :   1836.52s CPU   1877.80s WALL (       1 calls)
     forces       :     11.03s CPU     11.42s WALL (       1 calls)
     stress       :    106.25s CPU    107.34s WALL (       1 calls)

     Called by init_run:
     wfcinit      :     20.74s CPU     20.98s WALL (       1 calls)
     potinit      :      1.01s CPU      1.03s WALL (       1 calls)
     hinit0       :      1.66s CPU      1.67s WALL (       1 calls)

     Called by electrons:
     c_bands      :   1524.49s CPU   1546.39s WALL (      35 calls)
     sum_band     :    234.24s CPU    245.25s WALL (      35 calls)
     v_of_rho     :      3.98s CPU      4.05s WALL (      36 calls)
     newd         :     43.47s CPU     51.70s WALL (      36 calls)
     mix_rho      :     31.16s CPU     31.42s WALL (      35 calls)

     Called by c_bands:
     init_us_2    :      8.02s CPU      8.06s WALL (    1825 calls)
     cegterg      :   1452.27s CPU   1473.40s WALL (     875 calls)

     Called by sum_band:
     sum_band:bec :      0.94s CPU      0.94s WALL (     875 calls)
     addusdens    :     38.95s CPU     47.99s WALL (      35 calls)

     Called by *egterg:
     h_psi        :    696.74s CPU    707.08s WALL (    4660 calls)
     s_psi        :    100.34s CPU    100.72s WALL (    4660 calls)
     g_psi        :      1.48s CPU      1.49s WALL (    3760 calls)
     cdiaghg      :    341.60s CPU    342.83s WALL (    4635 calls)

     Called by h_psi:
     h_psi:calbec :    112.02s CPU    112.39s WALL (    4660 calls)
     vloc_psi     :    481.80s CPU    487.94s WALL (    4660 calls)
     add_vuspsi   :    100.69s CPU    101.10s WALL (    4660 calls)

     General routines
     calbec       :    194.24s CPU    194.86s WALL (    5660 calls)
     fft          :      3.53s CPU      3.55s WALL (     491 calls)
     ffts         :     17.90s CPU     18.06s WALL (   18427 calls)
     fftw         :    553.03s CPU    560.10s WALL ( 1243354 calls)
     interpolate  :      0.33s CPU      0.33s WALL (      36 calls)
 
     Parallel routines
     fft_scatt_xy :     62.27s CPU     63.10s WALL ( 1262272 calls)
     fft_scatt_yz :    358.48s CPU    363.03s WALL ( 1262272 calls)
 
     PWSCF        :  33m 0.41s CPU  33m43.91s WALL

 
   This run was terminated on:  10:34: 5  28May2021            

=------------------------------------------------------------------------------=
   JOB DONE.
=------------------------------------------------------------------------------=
[1622212445.438857] [holy7c04211:175007:0]          mpool.c:43   UCX  WARN  object 0x35f59c0 was not returned to mpool ucp_requests
[1622212445.442440] [holy7c04301:105585:0]          mpool.c:43   UCX  WARN  object 0x29ec180 was not returned to mpool ucp_requests
[1622212445.443801] [holy7c04301:105590:0]          mpool.c:43   UCX  WARN  object 0x2954380 was not returned to mpool ucp_requests
[1622212445.446472] [holy7c04302:151055:0]          mpool.c:43   UCX  WARN  object 0x4321b00 was not returned to mpool ucp_requests
[1622212445.446171] [holy7c04301:105586:0]          mpool.c:43   UCX  WARN  object 0x467c880 was not returned to mpool ucp_requests
[1622212445.448417] [holy7c04301:105588:0]          mpool.c:43   UCX  WARN  object 0x2ec9f80 was not returned to mpool ucp_requests
[1622212445.448444] [holy7c04301:105588:0]          mpool.c:43   UCX  WARN  object 0x2eca140 was not returned to mpool ucp_requests
[1622212445.447072] [holy7c04301:105581:0]          mpool.c:43   UCX  WARN  object 0x2d66580 was not returned to mpool ucp_requests
[1622212445.449595] [holy7c04211:175006:0]          mpool.c:43   UCX  WARN  object 0x3d670c0 was not returned to mpool ucp_requests
[1622212445.451169] [holy7c04301:105583:0]          mpool.c:43   UCX  WARN  object 0x33e3440 was not returned to mpool ucp_requests
[1622212445.451199] [holy7c04301:105583:0]          mpool.c:43   UCX  WARN  object 0x33e3b40 was not returned to mpool ucp_requests
[1622212445.452349] [holy7c04210:233461:0]          mpool.c:43   UCX  WARN  object 0x2f57580 was not returned to mpool ucp_requests
[1622212445.453587] [holy7c04210:233460:0]          mpool.c:43   UCX  WARN  object 0x44a8400 was not returned to mpool ucp_requests
[1622212445.449396] [holy7c04211:175008:0]          mpool.c:43   UCX  WARN  object 0x42b8900 was not returned to mpool ucp_requests
[1622212445.449420] [holy7c04211:175008:0]          mpool.c:43   UCX  WARN  object 0x42b8e40 was not returned to mpool ucp_requests
[1622212445.449505] [holy7c04210:233462:0]          mpool.c:43   UCX  WARN  object 0x3fff480 was not returned to mpool ucp_requests
[1622212445.449531] [holy7c04210:233462:0]          mpool.c:43   UCX  WARN  object 0x3fff640 was not returned to mpool ucp_requests
