
     Program PWSCF v.6.5 starts on 28May2021 at 10: 5:42 

     This program is part of the open-source Quantum ESPRESSO suite
     for quantum simulation of materials; please cite
         "P. Giannozzi et al., J. Phys.:Condens. Matter 21 395502 (2009);
         "P. Giannozzi et al., J. Phys.:Condens. Matter 29 465901 (2017);
          URL http://www.quantum-espresso.org", 
     in publications or presentations arising from this work. More details at
     http://www.quantum-espresso.org/quote

     Parallel version (MPI), running on    32 processors

     MPI processes distributed on     7 nodes
     R & G space division:  proc/nbgrp/npool/nimage =      32
     Reading input from YCBCO50_212_Y_cleave_2.5_sep.pwi
Warning: card &IONS ignored
Warning: card     ION_DYNAMICS = 'BFGS' ignored
Warning: card / ignored
Warning: card &CELL ignored
Warning: card     CELL_DYNAMICS = 'BFGS' ignored
Warning: card     PRESS_CONV_THR = 5 ignored
Warning: card / ignored

     Current dimensions of program PWSCF are:
     Max number of different atomic species (ntypx) = 10
     Max number of k-points (npk) =  40000
     Max angular momentum in pseudopotentials (lmaxx) =  3

     Subspace diagonalization in iterative solution of the eigenvalue problem:
     one sub-group per band group will be used
     scalapack distributed-memory algorithm (size of sub-group:  5*  5 procs)

     Message from routine setup:
     using ibrav=0 with symmetry is DISCOURAGED, use correct ibrav instead
 
     Parallelization info
     --------------------
     sticks:   dense  smooth     PW     G-vecs:    dense   smooth      PW
     Min         188      62     17                93902    18064    2693
     Max         189      63     18                93932    18111    2736
     Sum        6019    2003    565              3005429   578779   87023
 


     bravais-lattice index     =            0
     lattice parameter (alat)  =      14.8133  a.u.
     unit-cell volume          =    9212.2223 (a.u.)^3
     number of atoms/cell      =           56
     number of atomic types    =            5
     number of electrons       =       456.00
     number of Kohn-Sham states=          274
     kinetic-energy cutoff     =      60.0000  Ry
     charge density cutoff     =     720.0000  Ry
     convergence threshold     =      1.0E-08
     mixing beta               =       0.5000
     number of iterations used =           10  local-TF  mixing
     Exchange-correlation= SLA PW PBE PBE
                           (   1   4   3   4   0   0   0)

     celldm(1)=  14.813271  celldm(2)=   0.000000  celldm(3)=   0.000000
     celldm(4)=   0.000000  celldm(5)=   0.000000  celldm(6)=   0.000000

     crystal axes: (cart. coord. in units of alat)
               a(1) = (   1.000000   0.000000   0.000000 )  
               a(2) = (   0.000000   0.477453   0.000000 )  
               a(3) = (   0.000000   0.000000   5.935826 )  

     reciprocal axes: (cart. coord. in units 2 pi/alat)
               b(1) = (  1.000000  0.000000  0.000000 )  
               b(2) = (  0.000000  2.094448  0.000000 )  
               b(3) = (  0.000000  0.000000  0.168469 )  


     PseudoPot. # 1 for Ba read from file:
     ./pseudo/Ba.pbe-nsp-van.UPF
     MD5 check sum: 2b9c31dd849566dd297d80989662b7a0
     Pseudo is Ultrasoft + core correction, Zval = 10.0
     Generated by new atomic code, or converted to UPF format
     Using radial grid of  907 points,  6 beta functions with: 
                l(1) =   0
                l(2) =   0
                l(3) =   1
                l(4) =   1
                l(5) =   2
                l(6) =   2
     Q(r) pseudized with  6 coefficients,  rinner =    1.200   1.200   1.200
                                                       1.200   1.200

     PseudoPot. # 2 for Ca read from file:
     ./pseudo/Ca.pbe-nsp-van.UPF
     MD5 check sum: 6471098428ff4fa451746d08035ff179
     Pseudo is Ultrasoft + core correction, Zval = 10.0
     Generated by new atomic code, or converted to UPF format
     Using radial grid of  845 points,  6 beta functions with: 
                l(1) =   0
                l(2) =   0
                l(3) =   1
                l(4) =   1
                l(5) =   2
                l(6) =   2
     Q(r) pseudized with  6 coefficients,  rinner =    1.200   1.200   1.200
                                                       1.200   1.200

     PseudoPot. # 3 for Cu read from file:
     ./pseudo/Cu.pbe-n-van_ak.UPF
     MD5 check sum: 34e3282627ffb533726feb647e090d62
     Pseudo is Ultrasoft + core correction, Zval = 11.0
     Generated by new atomic code, or converted to UPF format
     Using radial grid of  867 points,  6 beta functions with: 
                l(1) =   0
                l(2) =   0
                l(3) =   1
                l(4) =   1
                l(5) =   2
                l(6) =   2
     Q(r) pseudized with  8 coefficients,  rinner =    1.400   1.400   1.400
                                                       1.400   1.400

     PseudoPot. # 4 for O  read from file:
     ./pseudo/O.pbe-van_ak.UPF
     MD5 check sum: 783ce7fe4c79b6a4916957118fed0856
     Pseudo is Ultrasoft, Zval =  6.0
     Generated by new atomic code, or converted to UPF format
     Using radial grid of  737 points,  4 beta functions with: 
                l(1) =   0
                l(2) =   0
                l(3) =   1
                l(4) =   1
     Q(r) pseudized with  8 coefficients,  rinner =    0.800   0.800   0.800


     PseudoPot. # 5 for Y  read from file:
     ./pseudo/Y.pbe-nsp-van.UPF
     MD5 check sum: 4412fed3ab108fed87a1b7d6a69a4a38
     Pseudo is Ultrasoft + core correction, Zval = 11.0
     Generated by new atomic code, or converted to UPF format
     Using radial grid of  885 points,  6 beta functions with: 
                l(1) =   0
                l(2) =   0
                l(3) =   1
                l(4) =   1
                l(5) =   2
                l(6) =   2
     Q(r) pseudized with  6 coefficients,  rinner =    1.200   1.200   1.200
                                                       1.200   1.200

     atomic species   valence    mass     pseudopotential
        Ba            10.00   137.32700     Ba( 1.00)
        Ca            10.00    40.07800     Ca( 1.00)
        Cu            11.00    63.54600     Cu( 1.00)
        O              6.00    15.99900     O ( 1.00)
        Y             11.00    88.90584     Y ( 1.00)

      4 Sym. Ops. (no inversion) found ( 2 have fractional translation)



   Cartesian axes

     site n.     atom                  positions (alat units)
         1           O   tau(   1) = (  -0.0008343   0.2387265  -0.0222443  )
         2           O   tau(   2) = (   0.5008340   0.2387265  -0.0222443  )
         3           Cu  tau(   3) = (   0.5017257   0.0000000   0.0109608  )
         4           Cu  tau(   4) = (  -0.0017260   0.0000000   0.0109608  )
         5           O   tau(   5) = (  -0.0028933   0.0000000   0.2506504  )
         6           O   tau(   6) = (   0.5028929   0.0000000   0.2506504  )
         7           Ba  tau(   7) = (   0.7499995   0.2387265   0.2749435  )
         8           Ba  tau(   8) = (   0.2499998   0.2387265   0.2755214  )
         9           Cu  tau(   9) = (   0.4980963   0.0000000   0.5208446  )
        10           Cu  tau(  10) = (   0.0019033   0.0000000   0.5208446  )
        11           O   tau(  11) = (   0.2499998   0.0000000   0.5341884  )
        12           O   tau(  12) = (   0.5083351   0.2387265   0.5569851  )
        13           O   tau(  13) = (  -0.0083354   0.2387265   0.5569851  )
        14           O   tau(  14) = (   0.7499995   0.0000000   0.5573831  )
        15           Ca  tau(  15) = (   0.2499998   0.2387265   0.7436937  )
        16           Y   tau(  16) = (   0.7499995   0.2387265   0.7469544  )
        17           O   tau(  17) = (  -0.0063798   0.2387265   0.9248530  )
        18           O   tau(  18) = (   0.5063794   0.2387265   0.9248530  )
        19           O   tau(  19) = (   0.7499995   0.0000000   0.9338544  )
        20           O   tau(  20) = (   0.2499998   0.0000000   0.9461329  )
        21           Cu  tau(  21) = (   0.0015717   0.0000000   0.9686860  )
        22           Cu  tau(  22) = (   0.4984280   0.0000000   0.9686860  )
        23           Ba  tau(  23) = (   0.2499998   0.2387265   1.2085224  )
        24           Ba  tau(  24) = (   0.7499995   0.2387265   1.2233294  )
        25           O   tau(  25) = (   0.0063772   0.0000000   1.2547537  )
        26           O   tau(  26) = (   0.4936224   0.0000000   1.2547537  )
        27           O   tau(  27) = (   0.5384045   0.2387265   1.4952521  )
        28           O   tau(  28) = (  -0.0384049   0.2387265   1.4952521  )
        29           Cu  tau(  29) = (   0.5006120   0.0000000   1.4952546  )
        30           Cu  tau(  30) = (  -0.0006123   0.0000000   1.4952546  )
        31           O   tau(  31) = (   0.4936212   0.0000000   1.7357531  )
        32           O   tau(  32) = (   0.0063785   0.0000000   1.7357531  )
        33           Ba  tau(  33) = (   0.7499995   0.2387265   1.7671824  )
        34           Ba  tau(  34) = (   0.2499998   0.2387265   1.7819920  )
        35           Cu  tau(  35) = (   0.4984280   0.0000000   2.0218232  )
        36           Cu  tau(  36) = (   0.0015717   0.0000000   2.0218232  )
        37           O   tau(  37) = (   0.2499998   0.0000000   2.0443814  )
        38           O   tau(  38) = (   0.7499995   0.0000000   2.0566511  )
        39           O   tau(  39) = (   0.5063781   0.2387265   2.0656562  )
        40           O   tau(  40) = (  -0.0063785   0.2387265   2.0656562  )
        41           Y   tau(  41) = (   0.7499995   0.2387265   2.2435498  )
        42           Ca  tau(  42) = (   0.2499998   0.2387265   2.2468194  )
        43           O   tau(  43) = (   0.7499995   0.0000000   2.7520417  )
        44           O   tau(  44) = (  -0.0083354   0.2387265   2.7524436  )
        45           O   tau(  45) = (   0.5083351   0.2387265   2.7524436  )
        46           O   tau(  46) = (   0.2499998   0.0000000   2.7752416  )
        47           Cu  tau(  47) = (   0.0019059   0.0000000   2.7885752  )
        48           Cu  tau(  48) = (   0.4980938   0.0000000   2.7885752  )
        49           Ba  tau(  49) = (   0.2499998   0.2387265   3.0339149  )
        50           Ba  tau(  50) = (   0.7499995   0.2387265   3.0344571  )
        51           O   tau(  51) = (  -0.0028895   0.0000000   3.0587642  )
        52           O   tau(  52) = (   0.5028891   0.0000000   3.0587642  )
        53           Cu  tau(  53) = (   0.5017844   0.0000000   3.2984487  )
        54           Cu  tau(  54) = (  -0.0017847   0.0000000   3.2984487  )
        55           O   tau(  55) = (   0.5008990   0.2387265   3.3316552  )
        56           O   tau(  56) = (  -0.0008994   0.2387265   3.3316552  )

     number of k points=    25  Gaussian smearing, width (Ry)=  0.0100
                       cart. coord. in units 2pi/alat
        k(    1) = (   0.0000000   0.0000000   0.0000000), wk =   0.0312500
        k(    2) = (   0.0000000   0.2618060   0.0000000), wk =   0.0625000
        k(    3) = (   0.0000000   0.5236121   0.0000000), wk =   0.0625000
        k(    4) = (   0.0000000   0.7854181   0.0000000), wk =   0.0625000
        k(    5) = (   0.0000000  -1.0472241   0.0000000), wk =   0.0312500
        k(    6) = (   0.1250000   0.0000000   0.0000000), wk =   0.0625000
        k(    7) = (   0.1250000   0.2618060   0.0000000), wk =   0.1250000
        k(    8) = (   0.1250000   0.5236121   0.0000000), wk =   0.1250000
        k(    9) = (   0.1250000   0.7854181   0.0000000), wk =   0.1250000
        k(   10) = (   0.1250000  -1.0472241   0.0000000), wk =   0.0625000
        k(   11) = (   0.2500000   0.0000000   0.0000000), wk =   0.0625000
        k(   12) = (   0.2500000   0.2618060   0.0000000), wk =   0.1250000
        k(   13) = (   0.2500000   0.5236121   0.0000000), wk =   0.1250000
        k(   14) = (   0.2500000   0.7854181   0.0000000), wk =   0.1250000
        k(   15) = (   0.2500000  -1.0472241   0.0000000), wk =   0.0625000
        k(   16) = (   0.3750000   0.0000000   0.0000000), wk =   0.0625000
        k(   17) = (   0.3750000   0.2618060   0.0000000), wk =   0.1250000
        k(   18) = (   0.3750000   0.5236121   0.0000000), wk =   0.1250000
        k(   19) = (   0.3750000   0.7854181   0.0000000), wk =   0.1250000
        k(   20) = (   0.3750000  -1.0472241   0.0000000), wk =   0.0625000
        k(   21) = (  -0.5000000   0.0000000   0.0000000), wk =   0.0312500
        k(   22) = (  -0.5000000   0.2618060   0.0000000), wk =   0.0625000
        k(   23) = (  -0.5000000   0.5236121   0.0000000), wk =   0.0625000
        k(   24) = (  -0.5000000   0.7854181   0.0000000), wk =   0.0625000
        k(   25) = (  -0.5000000  -1.0472241   0.0000000), wk =   0.0312500

     Dense  grid:  3005429 G-vectors     FFT dimensions: ( 128,  64, 768)

     Smooth grid:   578779 G-vectors     FFT dimensions: (  80,  36, 450)

     Estimated max dynamical RAM per process >     869.90 MB

     Estimated total dynamical RAM >      27.18 GB

     Initial potential from superposition of free atoms

     starting charge  455.69457, renormalised to  456.00000

     negative rho (up, down):  9.334E-02 0.000E+00
     Starting wfcs are  396 randomized atomic wfcs

     total cpu time spent up to now is       28.9 secs

     Self-consistent Calculation

     iteration #  1     ecut=    60.00 Ry     beta= 0.50
     Davidson diagonalization with overlap
     ethr =  1.00E-02,  avg # of iterations =  2.0

     negative rho (up, down):  8.580E-02 0.000E+00

     total cpu time spent up to now is       80.0 secs

     total energy              =   -3708.32245534 Ry
     Harris-Foulkes estimate   =   -3716.34523637 Ry
     estimated scf accuracy    <      31.04852871 Ry

     iteration #  2     ecut=    60.00 Ry     beta= 0.50
     Davidson diagonalization with overlap
     ethr =  6.81E-03,  avg # of iterations =  2.0

     negative rho (up, down):  8.522E-02 0.000E+00

     total cpu time spent up to now is      131.3 secs

     total energy              =   -3711.04214200 Ry
     Harris-Foulkes estimate   =   -3712.19399009 Ry
     estimated scf accuracy    <      16.06985431 Ry

     iteration #  3     ecut=    60.00 Ry     beta= 0.50
     Davidson diagonalization with overlap
     ethr =  3.52E-03,  avg # of iterations =  1.0

     negative rho (up, down):  8.530E-02 0.000E+00

     total cpu time spent up to now is      177.9 secs

     total energy              =   -3711.30562748 Ry
     Harris-Foulkes estimate   =   -3711.77847270 Ry
     estimated scf accuracy    <      11.12782210 Ry

     iteration #  4     ecut=    60.00 Ry     beta= 0.50
     Davidson diagonalization with overlap
     ethr =  2.44E-03,  avg # of iterations =  1.0

     negative rho (up, down):  8.592E-02 0.000E+00

     total cpu time spent up to now is      224.6 secs

     total energy              =   -3711.21758890 Ry
     Harris-Foulkes estimate   =   -3711.55534013 Ry
     estimated scf accuracy    <       4.38713911 Ry

     iteration #  5     ecut=    60.00 Ry     beta= 0.50
     Davidson diagonalization with overlap
     ethr =  9.62E-04,  avg # of iterations =  2.8

     negative rho (up, down):  8.663E-02 0.000E+00

     total cpu time spent up to now is      276.9 secs

     total energy              =   -3711.23151746 Ry
     Harris-Foulkes estimate   =   -3711.37493790 Ry
     estimated scf accuracy    <       4.84601775 Ry

     iteration #  6     ecut=    60.00 Ry     beta= 0.50
     Davidson diagonalization with overlap
     ethr =  9.62E-04,  avg # of iterations =  2.6

     negative rho (up, down):  8.826E-02 0.000E+00

     total cpu time spent up to now is      328.1 secs

     total energy              =   -3711.11323549 Ry
     Harris-Foulkes estimate   =   -3711.28497088 Ry
     estimated scf accuracy    <       3.26568276 Ry

     iteration #  7     ecut=    60.00 Ry     beta= 0.50
     Davidson diagonalization with overlap
     ethr =  7.16E-04,  avg # of iterations =  7.2

     negative rho (up, down):  8.912E-02 0.000E+00

     total cpu time spent up to now is      396.5 secs

     total energy              =   -3711.11929787 Ry
     Harris-Foulkes estimate   =   -3711.21170702 Ry
     estimated scf accuracy    <       4.27326180 Ry

     iteration #  8     ecut=    60.00 Ry     beta= 0.50
     Davidson diagonalization with overlap
     ethr =  7.16E-04,  avg # of iterations =  1.5

     negative rho (up, down):  8.905E-02 0.000E+00

     total cpu time spent up to now is      444.8 secs

     total energy              =   -3711.14167648 Ry
     Harris-Foulkes estimate   =   -3711.17469294 Ry
     estimated scf accuracy    <       0.30843074 Ry

     iteration #  9     ecut=    60.00 Ry     beta= 0.50
     Davidson diagonalization with overlap
     ethr =  6.76E-05,  avg # of iterations =  6.9

     negative rho (up, down):  8.929E-02 0.000E+00

     total cpu time spent up to now is      511.2 secs

     total energy              =   -3711.15112973 Ry
     Harris-Foulkes estimate   =   -3711.16124191 Ry
     estimated scf accuracy    <       0.51462863 Ry

     iteration # 10     ecut=    60.00 Ry     beta= 0.50
     Davidson diagonalization with overlap
     ethr =  6.76E-05,  avg # of iterations =  1.0

     negative rho (up, down):  8.938E-02 0.000E+00

     total cpu time spent up to now is      557.2 secs

     total energy              =   -3711.13967475 Ry
     Harris-Foulkes estimate   =   -3711.15419723 Ry
     estimated scf accuracy    <       0.27674912 Ry

     iteration # 11     ecut=    60.00 Ry     beta= 0.50
     Davidson diagonalization with overlap
     ethr =  6.07E-05,  avg # of iterations =  5.1

     negative rho (up, down):  8.921E-02 0.000E+00

     total cpu time spent up to now is      615.1 secs

     total energy              =   -3711.14164993 Ry
     Harris-Foulkes estimate   =   -3711.14537843 Ry
     estimated scf accuracy    <       0.18383076 Ry

     iteration # 12     ecut=    60.00 Ry     beta= 0.50
     Davidson diagonalization with overlap
     ethr =  4.03E-05,  avg # of iterations =  3.3

     negative rho (up, down):  8.904E-02 0.000E+00

     total cpu time spent up to now is      667.5 secs

     total energy              =   -3711.14032925 Ry
     Harris-Foulkes estimate   =   -3711.14274780 Ry
     estimated scf accuracy    <       0.12361242 Ry

     iteration # 13     ecut=    60.00 Ry     beta= 0.50
     Davidson diagonalization with overlap
     ethr =  2.71E-05,  avg # of iterations =  5.0

     negative rho (up, down):  8.894E-02 0.000E+00

     total cpu time spent up to now is      724.7 secs

     total energy              =   -3711.14013326 Ry
     Harris-Foulkes estimate   =   -3711.14119545 Ry
     estimated scf accuracy    <       0.11178336 Ry

     iteration # 14     ecut=    60.00 Ry     beta= 0.50
     Davidson diagonalization with overlap
     c_bands:  1 eigenvalues not converged
     ethr =  2.45E-05,  avg # of iterations =  2.5

     negative rho (up, down):  8.855E-02 0.000E+00

     total cpu time spent up to now is      774.6 secs

     total energy              =   -3711.13720566 Ry
     Harris-Foulkes estimate   =   -3711.14043416 Ry
     estimated scf accuracy    <       0.10739468 Ry

     iteration # 15     ecut=    60.00 Ry     beta= 0.50
     Davidson diagonalization with overlap
     ethr =  2.36E-05,  avg # of iterations =  1.0

     negative rho (up, down):  8.843E-02 0.000E+00

     total cpu time spent up to now is      820.8 secs

     total energy              =   -3711.13661706 Ry
     Harris-Foulkes estimate   =   -3711.13841003 Ry
     estimated scf accuracy    <       0.07688791 Ry

     iteration # 16     ecut=    60.00 Ry     beta= 0.50
     Davidson diagonalization with overlap
     c_bands:  1 eigenvalues not converged
     ethr =  1.69E-05,  avg # of iterations =  6.7

     negative rho (up, down):  1.008E-01 0.000E+00

     total cpu time spent up to now is      882.7 secs

     total energy              =   -3711.13362418 Ry
     Harris-Foulkes estimate   =   -3711.13685609 Ry
     estimated scf accuracy    <       0.05006319 Ry

     iteration # 17     ecut=    60.00 Ry     beta= 0.50
     Davidson diagonalization with overlap
     c_bands:  1 eigenvalues not converged
     c_bands:  3 eigenvalues not converged
     ethr =  1.10E-05,  avg # of iterations = 11.2

     negative rho (up, down):  1.071E-01 0.000E+00

     total cpu time spent up to now is      960.4 secs

     total energy              =   -3711.13261880 Ry
     Harris-Foulkes estimate   =   -3711.13431434 Ry
     estimated scf accuracy    <       0.01973574 Ry

     iteration # 18     ecut=    60.00 Ry     beta= 0.50
     Davidson diagonalization with overlap
     c_bands:  1 eigenvalues not converged
     c_bands:  1 eigenvalues not converged
     c_bands:  1 eigenvalues not converged
     c_bands:  1 eigenvalues not converged
     c_bands:  1 eigenvalues not converged
     ethr =  4.33E-06,  avg # of iterations = 12.1

     negative rho (up, down):  1.054E-01 0.000E+00

     total cpu time spent up to now is     1040.7 secs

     total energy              =   -3711.13224414 Ry
     Harris-Foulkes estimate   =   -3711.13295922 Ry
     estimated scf accuracy    <       0.01363172 Ry

     iteration # 19     ecut=    60.00 Ry     beta= 0.50
     Davidson diagonalization with overlap
     c_bands:  1 eigenvalues not converged
     c_bands:  1 eigenvalues not converged
     ethr =  2.99E-06,  avg # of iterations =  8.7

     negative rho (up, down):  1.036E-01 0.000E+00

     total cpu time spent up to now is     1109.0 secs

     total energy              =   -3711.13198583 Ry
     Harris-Foulkes estimate   =   -3711.13239770 Ry
     estimated scf accuracy    <       0.01328499 Ry

     iteration # 20     ecut=    60.00 Ry     beta= 0.50
     Davidson diagonalization with overlap
     ethr =  2.91E-06,  avg # of iterations =  7.3

     negative rho (up, down):  9.534E-02 0.000E+00

     total cpu time spent up to now is     1173.4 secs

     total energy              =   -3711.13166375 Ry
     Harris-Foulkes estimate   =   -3711.13206014 Ry
     estimated scf accuracy    <       0.00725994 Ry

     iteration # 21     ecut=    60.00 Ry     beta= 0.50
     Davidson diagonalization with overlap
     c_bands:  3 eigenvalues not converged
     ethr =  1.59E-06,  avg # of iterations =  8.2

     negative rho (up, down):  8.994E-02 0.000E+00

     total cpu time spent up to now is     1241.7 secs

     total energy              =   -3711.13153929 Ry
     Harris-Foulkes estimate   =   -3711.13173448 Ry
     estimated scf accuracy    <       0.00255552 Ry

     iteration # 22     ecut=    60.00 Ry     beta= 0.50
     Davidson diagonalization with overlap
     c_bands:  1 eigenvalues not converged
     c_bands:  1 eigenvalues not converged
     ethr =  5.60E-07,  avg # of iterations =  7.8

     negative rho (up, down):  9.071E-02 0.000E+00

     total cpu time spent up to now is     1307.7 secs

     total energy              =   -3711.13160819 Ry
     Harris-Foulkes estimate   =   -3711.13162853 Ry
     estimated scf accuracy    <       0.00172984 Ry

     iteration # 23     ecut=    60.00 Ry     beta= 0.50
     Davidson diagonalization with overlap
     ethr =  3.79E-07,  avg # of iterations =  5.5

     negative rho (up, down):  9.161E-02 0.000E+00

     total cpu time spent up to now is     1367.6 secs

     total energy              =   -3711.13160444 Ry
     Harris-Foulkes estimate   =   -3711.13163310 Ry
     estimated scf accuracy    <       0.00063405 Ry

     iteration # 24     ecut=    60.00 Ry     beta= 0.50
     Davidson diagonalization with overlap
     ethr =  1.39E-07,  avg # of iterations =  4.7

     negative rho (up, down):  9.225E-02 0.000E+00

     total cpu time spent up to now is     1424.1 secs

     total energy              =   -3711.13162042 Ry
     Harris-Foulkes estimate   =   -3711.13162165 Ry
     estimated scf accuracy    <       0.00036112 Ry

     iteration # 25     ecut=    60.00 Ry     beta= 0.50
     Davidson diagonalization with overlap
     ethr =  7.92E-08,  avg # of iterations =  4.8

     negative rho (up, down):  9.162E-02 0.000E+00

     total cpu time spent up to now is     1481.3 secs

     total energy              =   -3711.13161829 Ry
     Harris-Foulkes estimate   =   -3711.13162816 Ry
     estimated scf accuracy    <       0.00007911 Ry

     iteration # 26     ecut=    60.00 Ry     beta= 0.50
     Davidson diagonalization with overlap
     c_bands:  1 eigenvalues not converged
     ethr =  1.73E-08,  avg # of iterations =  5.9

     negative rho (up, down):  9.197E-02 0.000E+00

     total cpu time spent up to now is     1541.7 secs

     total energy              =   -3711.13162058 Ry
     Harris-Foulkes estimate   =   -3711.13162260 Ry
     estimated scf accuracy    <       0.00007595 Ry

     iteration # 27     ecut=    60.00 Ry     beta= 0.50
     Davidson diagonalization with overlap
     ethr =  1.67E-08,  avg # of iterations =  1.5

     negative rho (up, down):  9.179E-02 0.000E+00

     total cpu time spent up to now is     1589.1 secs

     total energy              =   -3711.13162098 Ry
     Harris-Foulkes estimate   =   -3711.13162227 Ry
     estimated scf accuracy    <       0.00002908 Ry

     iteration # 28     ecut=    60.00 Ry     beta= 0.50
     Davidson diagonalization with overlap
     ethr =  6.38E-09,  avg # of iterations =  1.0

     negative rho (up, down):  9.187E-02 0.000E+00

     total cpu time spent up to now is     1635.5 secs

     total energy              =   -3711.13162165 Ry
     Harris-Foulkes estimate   =   -3711.13162144 Ry
     estimated scf accuracy    <       0.00000920 Ry

     iteration # 29     ecut=    60.00 Ry     beta= 0.50
     Davidson diagonalization with overlap
     ethr =  2.02E-09,  avg # of iterations =  2.0

     negative rho (up, down):  9.133E-02 0.000E+00

     total cpu time spent up to now is     1684.1 secs

     total energy              =   -3711.13162086 Ry
     Harris-Foulkes estimate   =   -3711.13162197 Ry
     estimated scf accuracy    <       0.00000966 Ry

     iteration # 30     ecut=    60.00 Ry     beta= 0.50
     Davidson diagonalization with overlap
     ethr =  2.02E-09,  avg # of iterations =  1.1

     negative rho (up, down):  9.120E-02 0.000E+00

     total cpu time spent up to now is     1730.5 secs

     total energy              =   -3711.13162109 Ry
     Harris-Foulkes estimate   =   -3711.13162116 Ry
     estimated scf accuracy    <       0.00000292 Ry

     iteration # 31     ecut=    60.00 Ry     beta= 0.50
     Davidson diagonalization with overlap
     ethr =  6.39E-10,  avg # of iterations =  2.1

     negative rho (up, down):  9.127E-02 0.000E+00

     total cpu time spent up to now is     1779.9 secs

     total energy              =   -3711.13162111 Ry
     Harris-Foulkes estimate   =   -3711.13162124 Ry
     estimated scf accuracy    <       0.00000207 Ry

     iteration # 32     ecut=    60.00 Ry     beta= 0.50
     Davidson diagonalization with overlap
     ethr =  4.53E-10,  avg # of iterations =  1.1

     negative rho (up, down):  9.124E-02 0.000E+00

     total cpu time spent up to now is     1826.3 secs

     total energy              =   -3711.13162115 Ry
     Harris-Foulkes estimate   =   -3711.13162114 Ry
     estimated scf accuracy    <       0.00000065 Ry

     iteration # 33     ecut=    60.00 Ry     beta= 0.50
     Davidson diagonalization with overlap
     ethr =  1.42E-10,  avg # of iterations =  1.8

     negative rho (up, down):  9.125E-02 0.000E+00

     total cpu time spent up to now is     1874.4 secs

     total energy              =   -3711.13162116 Ry
     Harris-Foulkes estimate   =   -3711.13162116 Ry
     estimated scf accuracy    <       0.00000030 Ry

     iteration # 34     ecut=    60.00 Ry     beta= 0.50
     Davidson diagonalization with overlap
     ethr =  6.57E-11,  avg # of iterations =  2.4

     negative rho (up, down):  9.122E-02 0.000E+00

     total cpu time spent up to now is     1924.5 secs

     total energy              =   -3711.13162119 Ry
     Harris-Foulkes estimate   =   -3711.13162117 Ry
     estimated scf accuracy    <       0.00000010 Ry

     iteration # 35     ecut=    60.00 Ry     beta= 0.50
     Davidson diagonalization with overlap
     ethr =  2.11E-11,  avg # of iterations =  2.8

     negative rho (up, down):  9.119E-02 0.000E+00

     total cpu time spent up to now is     1976.8 secs

     total energy              =   -3711.13162124 Ry
     Harris-Foulkes estimate   =   -3711.13162120 Ry
     estimated scf accuracy    <       0.00000004 Ry

     iteration # 36     ecut=    60.00 Ry     beta= 0.50
     Davidson diagonalization with overlap
     ethr =  8.85E-12,  avg # of iterations =  2.0

     negative rho (up, down):  9.118E-02 0.000E+00

     total cpu time spent up to now is     2026.5 secs

     total energy              =   -3711.13162124 Ry
     Harris-Foulkes estimate   =   -3711.13162124 Ry
     estimated scf accuracy    <       0.00000001 Ry

     iteration # 37     ecut=    60.00 Ry     beta= 0.50
     Davidson diagonalization with overlap
     ethr =  2.71E-12,  avg # of iterations =  2.6

     negative rho (up, down):  9.118E-02 0.000E+00

     total cpu time spent up to now is     2077.0 secs

     total energy              =   -3711.13162125 Ry
     Harris-Foulkes estimate   =   -3711.13162124 Ry
     estimated scf accuracy    <       0.00000002 Ry

     iteration # 38     ecut=    60.00 Ry     beta= 0.50
     Davidson diagonalization with overlap
     ethr =  2.71E-12,  avg # of iterations =  1.0

     negative rho (up, down):  9.119E-02 0.000E+00

     total cpu time spent up to now is     2121.0 secs

     End of self-consistent calculation

          k = 0.0000 0.0000 0.0000 ( 72345 PWs)   bands (ev):

   -41.3670 -38.9607 -38.1607 -35.7879 -23.1394 -22.9964 -22.9488 -22.8205
   -22.7170 -22.6633 -22.5634 -22.5354 -21.4553 -21.4011 -21.2561 -20.0307
   -20.0063 -19.9261 -18.6359 -18.5317 -18.1639 -17.1359 -17.0007 -16.8177
   -16.2632 -15.7772 -15.5465 -15.5446 -15.1224 -15.0790 -15.0286 -14.9712
   -14.9176 -14.7933 -14.7687 -14.6913 -14.6145 -14.5863 -14.5419 -14.4517
   -14.2772 -14.2357 -14.1952 -14.1264 -14.1207 -14.1138 -14.0680 -14.0585
   -14.0230 -13.8567 -13.8533 -13.7836 -13.7062 -13.4261  -8.4754  -8.3703
    -8.1868  -8.1135  -8.0784  -8.0064  -7.9983  -7.9793  -7.9280  -7.8906
    -7.8601  -7.7948  -7.7945  -7.7637  -7.7438  -7.7422  -7.7092  -7.6221
    -7.5935  -7.5922  -7.5238  -7.5096  -7.3690  -7.3509  -3.6121  -3.1171
    -2.9769  -2.9494  -2.8173  -2.6819  -2.5715  -2.4031  -2.3101  -2.3057
    -2.2731  -2.2180  -2.2012  -2.1752  -2.1648  -2.0447  -2.0189  -1.9711
    -1.9338  -1.7979  -1.7757  -1.7650  -1.6836  -1.6642  -1.6461  -1.5841
    -1.5455  -1.4632  -1.3195  -1.3140  -1.2992  -1.2865  -1.2381  -1.1619
    -1.0740  -1.0618  -1.0570  -1.0532  -1.0517  -1.0225  -1.0180  -1.0108
    -1.0053  -1.0050  -0.9132  -0.8975  -0.8263  -0.7734  -0.7522  -0.7418
    -0.7014  -0.6579  -0.4567  -0.4519  -0.4243  -0.4152  -0.3869  -0.3256
    -0.3208  -0.3088  -0.2944  -0.2678  -0.2633  -0.1868  -0.1651  -0.1518
    -0.1332  -0.1326  -0.1110  -0.1045  -0.0808  -0.0807  -0.0744  -0.0388
    -0.0323  -0.0245   0.0450   0.0451   0.1329   0.1414   0.1585   0.1618
     0.1736   0.1806   0.2006   0.2334   0.2684   0.2705   0.2802   0.2822
     0.3397   0.3551   0.3923   0.4264   0.4365   0.4497   0.4522   0.4629
     0.4748   0.5070   0.5740   0.6248   0.6320   0.6762   0.7523   0.8465
     0.9087   0.9210   0.9380   0.9617   0.9847   1.0052   1.0992   1.1202
     1.1237   1.1273   1.1367   1.1429   1.1574   1.2208   1.2619   1.2675
     1.2745   1.3240   1.3387   1.3481   1.4953   1.5093   1.5303   1.5563
     1.5574   1.6365   1.6463   1.7032   1.7060   1.7111   1.7397   1.7538
     1.7875   1.8456   1.9245   1.9506   1.9522   1.9840   2.0300   2.1096
     2.1219   2.1588   2.1798   2.1932   2.2669   2.3264   2.3411   2.3701
     2.3968   2.4519   2.5038   2.5562   2.6191   2.7940   2.8999   3.5153
     4.1963   4.3197   5.1461   5.2372   5.2631   5.3096   5.5497   5.6286
     5.9745   6.3850   6.4812   6.5600   6.6047   6.7425   6.8079   6.8285
     7.1372   7.1998   7.2243   7.2924   7.3198   7.3360   7.3387   7.4855
     7.6696   7.7217   7.9869   8.0389   8.0661   8.2249   8.2809   8.4205
     8.4223   8.5477

          k = 0.0000 0.2618 0.0000 ( 72343 PWs)   bands (ev):

   -41.3649 -38.9594 -38.1580 -35.7863 -23.1159 -22.9776 -22.9242 -22.8014
   -22.6934 -22.6383 -22.5446 -22.5163 -21.4517 -21.3973 -21.2954 -20.0280
   -20.0041 -19.9476 -18.5972 -18.5244 -18.2748 -17.1065 -16.9963 -16.8837
   -16.2123 -15.7400 -15.5373 -15.4403 -15.0633 -15.0448 -15.0138 -14.9160
   -14.8729 -14.7547 -14.7284 -14.6895 -14.5775 -14.5280 -14.5278 -14.4140
   -14.2350 -14.2315 -14.1842 -14.1613 -14.1172 -14.1044 -14.0743 -14.0611
   -14.0398 -13.9137 -13.8564 -13.7800 -13.7659 -13.4562  -8.4846  -8.3606
    -8.1801  -8.0952  -8.0915  -8.0478  -8.0263  -8.0130  -7.9879  -7.9546
    -7.9029  -7.8956  -7.8787  -7.8292  -7.7942  -7.7582  -7.7046  -7.6961
    -7.6366  -7.6346  -7.6299  -7.6130  -7.5819  -7.5568  -3.7451  -3.2174
    -3.1552  -3.0112  -2.8217  -2.7153  -2.6340  -2.4947  -2.4238  -2.3591
    -2.3178  -2.2710  -2.2512  -2.1998  -2.1982  -2.1935  -2.1885  -2.1146
    -2.0161  -2.0144  -1.9829  -1.9113  -1.8357  -1.7635  -1.7446  -1.6916
    -1.5978  -1.5893  -1.5061  -1.4986  -1.4807  -1.4665  -1.4660  -1.4334
    -1.4172  -1.3949  -1.3836  -1.1694  -1.1074  -1.1048  -1.0119  -0.9887
    -0.9866  -0.9530  -0.9112  -0.8400  -0.8387  -0.7963  -0.7865  -0.7111
    -0.6419  -0.6201  -0.6057  -0.5976  -0.4919  -0.4787  -0.4325  -0.4103
    -0.4033  -0.3842  -0.3732  -0.3194  -0.3160  -0.2741  -0.2736  -0.2298
    -0.1904  -0.1762  -0.1594  -0.1014  -0.0827  -0.0697  -0.0428   0.0208
     0.0623   0.0778   0.1007   0.1012   0.1051   0.1099   0.1702   0.1773
     0.2005   0.2045   0.2189   0.2369   0.2523   0.2565   0.2765   0.3095
     0.3211   0.3542   0.3754   0.3887   0.4100   0.4236   0.5455   0.5854
     0.5888   0.6095   0.6195   0.7054   0.7635   0.8119   0.8563   0.9146
     0.9147   0.9260   0.9824   1.0059   1.0646   1.0745   1.1058   1.1289
     1.1820   1.2190   1.2419   1.2448   1.2598   1.3001   1.3209   1.3506
     1.3568   1.3779   1.4199   1.4226   1.4459   1.4764   1.4803   1.5097
     1.5713   1.5891   1.6369   1.6818   1.6886   1.7025   1.7567   1.7642
     1.8185   1.8485   1.8752   1.9039   1.9091   1.9826   2.0831   2.1066
     2.2409   2.3013   2.3264   2.3785   2.5467   2.5697   2.7276   2.7771
     2.8387   2.8536   2.8837   2.9126   2.9291   3.1153   3.1765   3.5811
     4.2149   4.4518   5.1115   5.3718   5.5289   5.6086   5.6989   5.7302
     6.1854   6.3175   6.3413   6.5752   6.8605   6.8751   7.0327   7.0568
     7.1301   7.1612   7.2645   7.3683   7.4196   7.5107   7.6495   7.6868
     7.7277   7.8129   7.9415   8.1630   8.2314   8.3761   8.4364   8.6228
     8.6435   8.7470

          k = 0.0000 0.5236 0.0000 ( 72275 PWs)   bands (ev):

   -41.3599 -38.9561 -38.1515 -35.7821 -23.0581 -22.9313 -22.8637 -22.7545
   -22.6354 -22.5767 -22.4984 -22.4695 -21.4715 -21.3883 -21.3586 -20.0404
   -19.9987 -19.9797 -18.5151 -18.5070 -18.4975 -17.0364 -17.0235 -16.9859
   -16.0771 -15.6480 -15.5306 -15.2000 -15.0988 -14.9104 -14.8301 -14.7713
   -14.7572 -14.7420 -14.7062 -14.6611 -14.5747 -14.4373 -14.3557 -14.3212
   -14.3009 -14.2254 -14.1526 -14.1314 -14.0913 -14.0812 -14.0541 -14.0540
   -14.0527 -13.9995 -13.8951 -13.8802 -13.7751 -13.5428  -8.5634  -8.4251
    -8.3677  -8.3449  -8.3322  -8.2081  -8.1434  -8.1352  -8.1155  -8.0933
    -8.0725  -7.9913  -7.9669  -7.9577  -7.9550  -7.8983  -7.8434  -7.8377
    -7.7595  -7.7365  -7.7182  -7.6979  -7.5765  -7.5475  -4.1791  -3.6094
    -3.4789  -3.2562  -2.9372  -2.9117  -2.8754  -2.8105  -2.7118  -2.6583
    -2.6456  -2.6101  -2.5367  -2.4472  -2.3867  -2.3533  -2.3120  -2.2820
    -2.2694  -2.2495  -2.2451  -2.2291  -2.1779  -2.1692  -2.1590  -2.1114
    -2.0927  -2.0497  -1.8647  -1.8383  -1.7619  -1.7139  -1.6871  -1.6692
    -1.4808  -1.4326  -1.3389  -1.3220  -1.3012  -1.1846  -1.1513  -1.0604
    -1.0460  -1.0206  -0.9829  -0.9358  -0.9333  -0.9178  -0.8675  -0.8410
    -0.8195  -0.7987  -0.7638  -0.7356  -0.6927  -0.6641  -0.6450  -0.6414
    -0.6373  -0.5928  -0.5919  -0.5506  -0.5426  -0.5031  -0.4714  -0.4511
    -0.4211  -0.3937  -0.3493  -0.3227  -0.2635  -0.2474  -0.0236  -0.0160
     0.0020   0.0341   0.1241   0.1294   0.1382   0.1636   0.2210   0.2279
     0.2283   0.2530   0.2677   0.2960   0.3342   0.4293   0.4902   0.5170
     0.5531   0.6281   0.7112   0.7566   0.8149   0.8341   0.8381   0.9014
     0.9359   0.9666   0.9919   1.0003   1.0357   1.0378   1.0533   1.0828
     1.1090   1.1479   1.1755   1.1811   1.2033   1.2249   1.2368   1.2686
     1.2783   1.2949   1.3030   1.3105   1.3245   1.3689   1.3693   1.4144
     1.4582   1.5032   1.5101   1.5607   1.5714   1.5881   1.6158   1.6687
     1.7214   1.7324   1.7420   1.7542   1.7715   1.8035   1.8337   1.8536
     1.8689   1.9083   1.9998   2.0112   2.0257   2.0389   2.0781   2.0980
     2.3059   2.3435   2.4340   2.5638   2.8841   3.0007   3.0393   3.0919
     3.1667   3.3803   3.4404   3.5180   3.6986   3.7508   3.8735   4.0791
     4.2878   4.7586   4.8951   5.3264   5.7950   5.9691   5.9935   6.4327
     6.5067   6.5315   6.5532   6.6695   6.6837   6.8838   6.9558   7.0253
     7.2245   7.6592   7.7313   7.8326   7.9542   8.0337   8.0731   8.2150
     8.3497   8.3682   8.4328   8.5370   8.5640   8.6410   8.7479   8.7759
     8.9263   8.9950

          k = 0.0000 0.7854 0.0000 ( 72250 PWs)   bands (ev):

   -41.3549 -38.9528 -38.1450 -35.7780 -22.9988 -22.8839 -22.8013 -22.7066
   -22.5759 -22.5131 -22.4511 -22.4218 -21.5474 -21.3793 -21.3619 -20.0863
   -19.9933 -19.9770 -18.7239 -18.4895 -18.3915 -17.1584 -16.9755 -16.9500
   -15.9046 -15.5588 -15.5524 -15.1717 -14.9841 -14.8520 -14.7847 -14.7286
   -14.6493 -14.6030 -14.5933 -14.5851 -14.5591 -14.4216 -14.2524 -14.2401
   -14.2285 -14.2242 -14.2149 -14.1348 -14.0515 -14.0407 -14.0342 -14.0083
   -13.9890 -13.9855 -13.9642 -13.9129 -13.7962 -13.6652  -8.9174  -8.7627
    -8.6268  -8.5065  -8.5032  -8.4927  -8.4875  -8.3062  -8.2508  -8.2115
    -8.1965  -8.1470  -8.0781  -8.0360  -8.0020  -7.8395  -7.8266  -7.7917
    -7.7873  -7.7619  -7.7165  -7.7129  -7.4527  -7.4370  -4.6460  -4.0939
    -3.7570  -3.6597  -3.3334  -3.2975  -3.2543  -3.1774  -3.0599  -3.0151
    -2.9682  -2.9486  -2.9280  -2.8622  -2.8196  -2.8108  -2.6823  -2.5140
    -2.4250  -2.4177  -2.4145  -2.3149  -2.2761  -2.2732  -2.2361  -2.2207
    -2.2089  -2.1332  -1.9555  -1.8961  -1.8102  -1.7749  -1.7305  -1.7236
    -1.6519  -1.6077  -1.5711  -1.5472  -1.5162  -1.2701  -1.2653  -1.2619
    -1.1787  -1.0967  -1.0909  -1.0686  -1.0563  -1.0422  -1.0053  -0.9937
    -0.9834  -0.9407  -0.9188  -0.9088  -0.8837  -0.8677  -0.8497  -0.8097
    -0.8056  -0.7833  -0.7750  -0.7650  -0.7379  -0.6929  -0.6700  -0.6462
    -0.6375  -0.6238  -0.4477  -0.2819  -0.2603  -0.2250  -0.2118  -0.0610
    -0.0114   0.1155   0.1492   0.2024   0.2102   0.2237   0.2467   0.2527
     0.3082   0.4068   0.4378   0.4575   0.4993   0.5631   0.7039   0.7078
     0.7851   0.7854   0.8975   0.9297   0.9302   0.9614   0.9982   1.0186
     1.0600   1.0742   1.1196   1.1225   1.1857   1.2147   1.2355   1.2578
     1.2611   1.2953   1.3092   1.3429   1.3634   1.3808   1.3862   1.4629
     1.4948   1.5317   1.5394   1.5497   1.5583   1.5913   1.6032   1.6188
     1.6641   1.6850   1.6925   1.7022   1.7452   1.7529   1.7715   1.8273
     1.8436   1.8524   1.8984   1.9023   1.9200   1.9603   1.9780   2.1057
     2.1300   2.1377   2.1631   2.1805   2.1941   2.2309   2.3110   2.3596
     2.3608   2.4042   2.4469   2.8483   2.8559   2.9438   2.9517   3.0830
     3.1778   3.4495   3.8582   4.0040   4.0459   4.3966   4.4612   4.4960
     4.6762   4.7763   5.0169   5.2135   5.5295   5.6807   6.0212   6.1434
     6.2951   6.6743   6.8629   7.0197   7.2135   7.3626   7.4292   7.4688
     7.7496   7.8823   7.9564   8.2128   8.3075   8.3869   8.5049   8.6281
     8.6823   8.7189   8.7356   8.7778   8.8706   8.9710   8.9849   9.0687
     9.1236   9.2228

          k = 0.0000-1.0472 0.0000 ( 72382 PWs)   bands (ev):

   -41.3528 -38.9515 -38.1423 -35.7763 -22.9737 -22.8640 -22.7749 -22.6864
   -22.5507 -22.4861 -22.4312 -22.4017 -21.5852 -21.3755 -21.3558 -20.1084
   -19.9911 -19.9725 -18.8045 -18.4823 -18.3443 -17.2088 -16.9713 -16.9143
   -15.7950 -15.6090 -15.5117 -15.2063 -14.9910 -14.8313 -14.7892 -14.7105
   -14.6255 -14.5632 -14.5219 -14.4772 -14.4395 -14.3981 -14.3608 -14.2719
   -14.2458 -14.1923 -14.1345 -14.0701 -14.0420 -14.0109 -14.0107 -14.0091
   -13.9905 -13.9518 -13.9401 -13.8979 -13.8969 -13.7141  -9.0705  -8.9160
    -8.7437  -8.6494  -8.6459  -8.6219  -8.5095  -8.3685  -8.2959  -8.2877
    -8.2481  -8.1527  -8.0719  -8.0636  -8.0121  -7.8358  -7.8006  -7.7963
    -7.7939  -7.7905  -7.7006  -7.6639  -7.3987  -7.3886  -4.8341  -4.2961
    -3.8697  -3.8461  -3.5250  -3.4656  -3.4519  -3.3870  -3.2064  -3.1710
    -3.1605  -3.1195  -3.0924  -3.0510  -3.0079  -2.9654  -2.7111  -2.5428
    -2.5367  -2.4521  -2.3228  -2.2987  -2.2983  -2.2888  -2.2449  -2.1961
    -2.1535  -2.1230  -2.0171  -2.0142  -1.9810  -1.8198  -1.8181  -1.7949
    -1.7145  -1.6924  -1.6445  -1.5459  -1.3939  -1.3650  -1.3366  -1.2710
    -1.2311  -1.2096  -1.1491  -1.1482  -1.1268  -1.1206  -1.1004  -1.0984
    -1.0045  -0.9922  -0.9867  -0.9804  -0.9750  -0.9413  -0.9017  -0.8821
    -0.8784  -0.8763  -0.8587  -0.8527  -0.8374  -0.7590  -0.7217  -0.6588
    -0.6505  -0.5528  -0.4881  -0.3117  -0.2695  -0.2431  -0.1994  -0.1376
    -0.0723   0.1361   0.1588   0.2023   0.2140   0.2204   0.2447   0.2603
     0.3452   0.4865   0.5103   0.5189   0.5464   0.6628   0.7932   0.8229
     0.8239   0.8269   0.9179   0.9240   0.9346   0.9491   0.9865   1.1352
     1.1452   1.1540   1.1906   1.2090   1.2531   1.2757   1.2854   1.2904
     1.2925   1.3295   1.3336   1.3491   1.3620   1.3689   1.4376   1.4904
     1.5590   1.5593   1.6209   1.6426   1.6794   1.6874   1.7015   1.7017
     1.7614   1.7652   1.8126   1.8410   1.8510   1.8911   1.9176   1.9204
     2.0067   2.0456   2.0476   2.0481   2.1149   2.1220   2.1532   2.1638
     2.1860   2.2241   2.2288   2.2469   2.2747   2.3464   2.3831   2.3921
     2.4237   2.5675   2.6055   2.6164   2.7175   2.7827   2.9276   3.0074
     3.2728   3.4195   3.9086   4.1283   4.2293   4.6033   4.6719   4.7156
     4.7699   4.8626   4.9102   5.2500   5.4198   5.5725   5.7818   5.9192
     6.4171   6.5620   7.0440   7.1966   7.4338   7.5627   7.7602   7.8339
     7.8866   7.8986   8.1433   8.1826   8.3125   8.3261   8.5494   8.6119
     8.7130   8.7650   8.8742   8.8990   8.9423   9.0714   9.1360   9.1792
     9.2091   9.3134

          k = 0.1250 0.0000 0.0000 ( 72381 PWs)   bands (ev):

   -41.3670 -38.9607 -38.1607 -35.7880 -23.1359 -23.0001 -22.9443 -22.8252
   -22.7137 -22.6586 -22.5670 -22.5404 -21.4553 -21.4004 -21.2561 -20.0306
   -20.0075 -19.9261 -18.6351 -18.5285 -18.1639 -17.1389 -17.0127 -16.8177
   -16.2539 -15.8032 -15.5257 -15.5189 -15.1082 -15.0716 -15.0279 -14.9569
   -14.9218 -14.7856 -14.7617 -14.7039 -14.6615 -14.5941 -14.5493 -14.4184
   -14.3012 -14.2315 -14.1832 -14.1303 -14.1205 -14.1146 -14.0700 -14.0621
   -14.0279 -13.8743 -13.8485 -13.7633 -13.7129 -13.4320  -8.4774  -8.3757
    -8.1891  -8.1030  -8.0826  -7.9990  -7.9848  -7.9834  -7.9320  -7.8965
    -7.8518  -7.8028  -7.8022  -7.7703  -7.7524  -7.7204  -7.6943  -7.6315
    -7.5848  -7.5847  -7.5256  -7.5148  -7.3775  -7.3608  -3.5901  -3.0823
    -2.9721  -2.9169  -2.8526  -2.6464  -2.5507  -2.4297  -2.3183  -2.3021
    -2.2727  -2.2366  -2.1911  -2.1719  -2.1716  -2.0414  -2.0336  -1.9687
    -1.9482  -1.8070  -1.8054  -1.7277  -1.7067  -1.6438  -1.6398  -1.5850
    -1.5065  -1.5058  -1.3255  -1.3172  -1.2621  -1.2583  -1.1827  -1.1501
    -1.1048  -1.0754  -1.0710  -1.0525  -1.0512  -1.0501  -1.0401  -1.0218
    -1.0166  -0.9858  -0.9198  -0.8608  -0.8062  -0.7581  -0.7507  -0.7350
    -0.6804  -0.6676  -0.5418  -0.4690  -0.4543  -0.4399  -0.4368  -0.3269
    -0.3221  -0.3170  -0.2864  -0.2846  -0.2748  -0.2061  -0.1935  -0.1726
    -0.1390  -0.1059  -0.1030  -0.0931  -0.0835  -0.0728  -0.0502  -0.0437
    -0.0391  -0.0343   0.0430   0.0969   0.1266   0.1304   0.1432   0.1633
     0.1676   0.1702   0.1798   0.1987   0.2384   0.2871   0.2886   0.3188
     0.3546   0.3689   0.3962   0.4127   0.4265   0.4470   0.4740   0.4892
     0.4945   0.5333   0.5697   0.6169   0.6322   0.6563   0.7712   0.8293
     0.8669   0.8968   0.9600   0.9637   0.9771   1.0091   1.0577   1.0794
     1.1032   1.1330   1.1479   1.1582   1.1966   1.2225   1.2364   1.2855
     1.3192   1.3518   1.3533   1.3628   1.4530   1.4989   1.5203   1.5677
     1.6260   1.6407   1.6627   1.7012   1.7045   1.7234   1.7360   1.7711
     1.7839   1.8128   1.9199   1.9332   1.9539   1.9708   2.0251   2.0470
     2.1350   2.1691   2.1749   2.1752   2.2793   2.3247   2.3669   2.3696
     2.4055   2.4677   2.5120   2.5547   2.6352   2.7882   2.9021   3.4463
     4.2547   4.3514   5.1962   5.2404   5.3036   5.3097   5.5943   5.6119
     6.0125   6.3804   6.4603   6.6134   6.6182   6.6819   6.8334   6.8671
     6.8818   6.9076   7.1723   7.2249   7.3298   7.4842   7.6602   7.7027
     7.7411   7.7490   7.9760   8.0581   8.0673   8.2576   8.3148   8.4208
     8.4655   8.5637

          k = 0.1250 0.2618 0.0000 ( 72315 PWs)   bands (ev):

   -41.3649 -38.9594 -38.1580 -35.7863 -23.1126 -22.9811 -22.9200 -22.8059
   -22.6903 -22.6339 -22.5480 -22.5211 -21.4517 -21.3966 -21.2954 -20.0279
   -20.0053 -19.9476 -18.5965 -18.5213 -18.2748 -17.1093 -17.0078 -16.8836
   -16.2035 -15.7653 -15.5194 -15.4136 -15.0515 -15.0443 -15.0061 -14.9042
   -14.8767 -14.7480 -14.7243 -14.6955 -14.5876 -14.5816 -14.5310 -14.3752
   -14.2578 -14.2272 -14.1872 -14.1518 -14.1178 -14.1063 -14.0737 -14.0646
   -14.0432 -13.9241 -13.8566 -13.7695 -13.7625 -13.4612  -8.4861  -8.3641
    -8.1821  -8.1438  -8.0975  -8.0972  -8.0106  -7.9955  -7.9795  -7.9525
    -7.9378  -7.8853  -7.8397  -7.8045  -7.7828  -7.7727  -7.7443  -7.7322
    -7.6823  -7.6654  -7.5726  -7.5602  -7.5377  -7.5176  -3.7202  -3.1814
    -3.1666  -2.9759  -2.8277  -2.6785  -2.6623  -2.4767  -2.4320  -2.3613
    -2.3098  -2.2746  -2.2471  -2.2071  -2.1999  -2.1854  -2.1545  -2.1192
    -2.0309  -2.0126  -1.9829  -1.9072  -1.8641  -1.8285  -1.7375  -1.6888
    -1.6085  -1.5738  -1.5128  -1.4944  -1.4690  -1.4650  -1.4494  -1.4473
    -1.4345  -1.3590  -1.3331  -1.1808  -1.1151  -1.1068  -1.0863  -1.0200
    -0.9831  -0.9271  -0.9217  -0.8415  -0.8210  -0.8126  -0.7669  -0.7630
    -0.7136  -0.6723  -0.6676  -0.5933  -0.5108  -0.4720  -0.4442  -0.4160
    -0.3951  -0.3820  -0.3628  -0.3251  -0.3049  -0.2749  -0.2466  -0.2202
    -0.1737  -0.1641  -0.1424  -0.1063  -0.0913  -0.0720  -0.0453  -0.0032
     0.0592   0.0785   0.0807   0.0832   0.0946   0.1245   0.1624   0.1673
     0.2015   0.2163   0.2181   0.2363   0.2488   0.2499   0.2768   0.3074
     0.3186   0.3591   0.3744   0.3892   0.4094   0.4275   0.5188   0.5651
     0.5946   0.6165   0.6776   0.7077   0.7802   0.8354   0.8577   0.8779
     0.9387   0.9568   0.9942   1.0066   1.0370   1.0653   1.1011   1.1513
     1.1728   1.2023   1.2032   1.2132   1.2693   1.2991   1.3184   1.3292
     1.3735   1.3871   1.4120   1.4347   1.4496   1.4725   1.5132   1.5308
     1.5889   1.6280   1.6332   1.6821   1.6942   1.7035   1.7278   1.7762
     1.7906   1.8122   1.8689   1.9202   2.0110   2.0212   2.0697   2.1156
     2.1332   2.3487   2.3495   2.4632   2.5501   2.5810   2.7240   2.7810
     2.8424   2.8579   2.8819   2.9137   2.9286   3.1077   3.1759   3.5176
     4.2814   4.4692   5.1113   5.3741   5.5666   5.6344   5.7065   5.7401
     6.2189   6.3012   6.3481   6.5826   6.8060   6.8673   6.9296   6.9675
     7.0858   7.1874   7.2724   7.3367   7.4473   7.5634   7.6952   7.8260
     7.8376   7.9029   7.9769   8.1819   8.2412   8.4081   8.4663   8.6030
     8.6818   8.7476

          k = 0.1250 0.5236 0.0000 ( 72272 PWs)   bands (ev):

   -41.3599 -38.9561 -38.1515 -35.7821 -23.0553 -22.9344 -22.8599 -22.7585
   -22.6327 -22.5727 -22.5013 -22.4737 -21.4715 -21.3876 -21.3586 -20.0404
   -19.9999 -19.9796 -18.5150 -18.5039 -18.4969 -17.0380 -17.0244 -16.9960
   -16.0696 -15.6704 -15.5161 -15.1755 -15.0971 -14.9028 -14.8269 -14.7671
   -14.7568 -14.7427 -14.7059 -14.6556 -14.5746 -14.4302 -14.4130 -14.3347
   -14.2584 -14.2266 -14.1513 -14.1497 -14.0899 -14.0805 -14.0556 -14.0538
   -14.0506 -14.0017 -13.9003 -13.8782 -13.7653 -13.5453  -8.5782  -8.4432
    -8.4014  -8.3320  -8.2865  -8.2020  -8.1630  -8.1350  -8.1329  -8.1307
    -8.0791  -8.0351  -7.9825  -7.9228  -7.8923  -7.8595  -7.8411  -7.7940
    -7.7858  -7.7780  -7.7496  -7.7281  -7.5233  -7.5098  -4.1485  -3.5739
    -3.4942  -3.2192  -2.9380  -2.9212  -2.8398  -2.8064  -2.7042  -2.6562
    -2.6462  -2.6232  -2.5316  -2.4491  -2.3841  -2.3543  -2.3116  -2.2808
    -2.2663  -2.2463  -2.2391  -2.2215  -2.1763  -2.1699  -2.1579  -2.1104
    -2.0917  -2.0168  -1.9048  -1.8289  -1.7572  -1.7413  -1.7076  -1.6698
    -1.4838  -1.4655  -1.3159  -1.3149  -1.2982  -1.2656  -1.2040  -1.0769
    -1.0588  -1.0494  -1.0167  -0.9671  -0.9399  -0.9284  -0.8952  -0.8488
    -0.7934  -0.7901  -0.7695  -0.7630  -0.7037  -0.6862  -0.6742  -0.6241
    -0.6092  -0.5852  -0.5727  -0.5587  -0.5363  -0.5033  -0.4683  -0.4669
    -0.4146  -0.4106  -0.3589  -0.3434  -0.2530  -0.2412  -0.0494  -0.0013
     0.0194   0.0307   0.0807   0.1492   0.1532   0.1627   0.1805   0.2055
     0.2336   0.2519   0.2890   0.3128   0.3570   0.4226   0.4762   0.5093
     0.5966   0.6336   0.7062   0.7677   0.7769   0.7915   0.8128   0.9143
     0.9211   0.9483   1.0089   1.0205   1.0391   1.0485   1.0795   1.1012
     1.1141   1.1273   1.1588   1.1813   1.2002   1.2018   1.2436   1.2502
     1.2802   1.2915   1.3225   1.3564   1.3604   1.3757   1.3939   1.4013
     1.4768   1.4961   1.5308   1.5392   1.5639   1.5773   1.6078   1.6628
     1.7044   1.7470   1.7492   1.7529   1.7847   1.8147   1.8329   1.8386
     1.9497   1.9904   1.9979   2.0293   2.0334   2.0514   2.0782   2.1847
     2.1960   2.4882   2.4945   2.5836   2.8994   3.0018   3.0404   3.0946
     3.1702   3.3616   3.4183   3.5198   3.6610   3.7189   3.8446   4.0451
     4.3474   4.7645   4.9007   5.3340   5.8052   5.9461   5.9929   6.4482
     6.5225   6.5345   6.5609   6.6751   6.6912   6.9025   6.9226   7.0483
     7.2179   7.4804   7.7805   7.8842   7.9965   8.1097   8.1943   8.2521
     8.3380   8.3908   8.4327   8.4812   8.5611   8.6624   8.7618   8.7979
     8.8955   9.0014

          k = 0.1250 0.7854 0.0000 ( 72264 PWs)   bands (ev):

   -41.3549 -38.9528 -38.1450 -35.7780 -22.9963 -22.8865 -22.7981 -22.7099
   -22.5736 -22.5097 -22.4535 -22.4253 -21.5474 -21.3786 -21.3619 -20.0863
   -19.9945 -19.9769 -18.7239 -18.4865 -18.3910 -17.1584 -16.9849 -16.9522
   -15.8995 -15.5756 -15.5405 -15.1713 -14.9683 -14.8352 -14.7777 -14.7288
   -14.6444 -14.6097 -14.5935 -14.5845 -14.5596 -14.4218 -14.2661 -14.2546
   -14.2386 -14.2176 -14.2090 -14.1268 -14.0582 -14.0416 -14.0395 -14.0092
   -13.9883 -13.9829 -13.9666 -13.9164 -13.7947 -13.6651  -8.9052  -8.7530
    -8.5924  -8.5007  -8.4841  -8.4754  -8.4610  -8.3090  -8.2531  -8.2073
    -8.1590  -8.1460  -8.0831  -8.0789  -8.0030  -7.8710  -7.8391  -7.8279
    -7.8016  -7.7713  -7.7315  -7.7152  -7.4678  -7.4538  -4.6099  -4.0571
    -3.7780  -3.6250  -3.3415  -3.3005  -3.2257  -3.1798  -3.0682  -2.9972
    -2.9584  -2.9488  -2.9255  -2.8647  -2.8213  -2.8124  -2.6686  -2.5037
    -2.4813  -2.3983  -2.3886  -2.3098  -2.2777  -2.2756  -2.2203  -2.2089
    -2.2070  -2.1268  -1.9493  -1.8762  -1.8328  -1.8007  -1.7609  -1.7305
    -1.6825  -1.6314  -1.5875  -1.5542  -1.5344  -1.2968  -1.2693  -1.2401
    -1.1684  -1.1317  -1.0961  -1.0759  -1.0645  -1.0593  -1.0356  -1.0259
    -1.0017  -0.9783  -0.9105  -0.8853  -0.8622  -0.8478  -0.8366  -0.8265
    -0.8051  -0.7835  -0.7611  -0.7586  -0.7431  -0.6950  -0.6735  -0.6425
    -0.6341  -0.5903  -0.5680  -0.2916  -0.2468  -0.2323  -0.2035  -0.0073
     0.0488   0.1032   0.1138   0.1702   0.1901   0.2487   0.2663   0.2907
     0.2972   0.4012   0.4161   0.4912   0.5018   0.5627   0.6421   0.6842
     0.8011   0.8121   0.8749   0.9142   0.9288   0.9913   1.0291   1.0300
     1.0461   1.0554   1.1073   1.1158   1.1745   1.1889   1.2056   1.2472
     1.2860   1.2887   1.3269   1.3429   1.3687   1.4098   1.4222   1.4375
     1.4414   1.4709   1.5399   1.5772   1.5952   1.6074   1.6274   1.6740
     1.6778   1.6904   1.7006   1.7091   1.7494   1.7700   1.8055   1.8404
     1.8513   1.8707   1.8903   1.9186   1.9196   1.9679   2.0505   2.0853
     2.0941   2.1255   2.1814   2.1892   2.2409   2.2474   2.2846   2.3954
     2.4249   2.4300   2.4952   2.8259   2.8502   2.9488   2.9568   3.0883
     3.1901   3.4476   3.8547   3.9559   4.0174   4.3324   4.4034   4.5265
     4.6263   4.7857   5.0286   5.2139   5.5650   5.6579   6.0765   6.1904
     6.2899   6.7013   6.8385   7.0119   7.1812   7.3294   7.4125   7.4381
     7.6927   7.7440   7.9141   8.2712   8.3311   8.4590   8.5295   8.6526
     8.7169   8.7269   8.7529   8.8071   8.9031   8.9980   9.0134   9.0849
     9.1308   9.2007

          k = 0.1250-1.0472 0.0000 ( 72362 PWs)   bands (ev):

   -41.3528 -38.9515 -38.1423 -35.7763 -22.9714 -22.8663 -22.7720 -22.6894
   -22.5487 -22.4830 -22.4333 -22.4049 -21.5852 -21.3749 -21.3558 -20.1084
   -19.9923 -19.9723 -18.8045 -18.4794 -18.3438 -17.2088 -16.9803 -16.9163
   -15.7925 -15.6052 -15.5147 -15.2095 -14.9797 -14.8208 -14.7654 -14.7088
   -14.6126 -14.5848 -14.5354 -14.4700 -14.4398 -14.3976 -14.3539 -14.2647
   -14.2570 -14.2098 -14.1463 -14.0752 -14.0398 -14.0104 -14.0089 -14.0086
   -13.9915 -13.9524 -13.9420 -13.9016 -13.8921 -13.7177  -9.0408  -8.8857
    -8.7140  -8.6202  -8.6160  -8.5914  -8.5075  -8.3376  -8.2984  -8.2802
    -8.2587  -8.1489  -8.0986  -8.0748  -8.0132  -7.8682  -7.8431  -7.8357
    -7.7876  -7.7871  -7.7077  -7.7033  -7.4430  -7.4282  -4.7961  -4.2581
    -3.8931  -3.8118  -3.5253  -3.4786  -3.4246  -3.3892  -3.2170  -3.1699
    -3.1586  -3.1001  -3.0951  -3.0528  -3.0122  -2.9560  -2.6942  -2.5224
    -2.5169  -2.4321  -2.3415  -2.3007  -2.2944  -2.2869  -2.2452  -2.1971
    -2.1933  -2.1179  -2.1014  -2.0126  -1.9466  -1.8190  -1.8131  -1.7633
    -1.6875  -1.6643  -1.6476  -1.5640  -1.5031  -1.4290  -1.3462  -1.2709
    -1.2473  -1.2054  -1.1902  -1.1465  -1.1377  -1.1285  -1.1080  -1.0998
    -1.0303  -0.9904  -0.9647  -0.9622  -0.9509  -0.9099  -0.8999  -0.8934
    -0.8842  -0.8673  -0.8547  -0.8342  -0.8231  -0.7640  -0.7272  -0.6555
    -0.6469  -0.6365  -0.5273  -0.2824  -0.2584  -0.2472  -0.2110  -0.0473
    -0.0258   0.1113   0.1304   0.1716   0.1826   0.2355   0.2722   0.3226
     0.3299   0.4972   0.5171   0.5198   0.5688   0.6259   0.6857   0.7803
     0.8502   0.8693   0.9332   0.9452   0.9472   0.9555   0.9786   1.1150
     1.1413   1.1439   1.1805   1.1925   1.2085   1.2144   1.2773   1.3065
     1.3199   1.3291   1.3458   1.3562   1.3654   1.4289   1.4337   1.5258
     1.5593   1.5619   1.5966   1.6546   1.6766   1.6907   1.6991   1.7737
     1.7751   1.8092   1.8122   1.8381   1.8853   1.9020   1.9131   1.9526
     2.0271   2.0473   2.0499   2.0955   2.1052   2.1357   2.1585   2.1822
     2.2009   2.2191   2.2201   2.2703   2.2827   2.3423   2.3899   2.4004
     2.4316   2.5603   2.5993   2.6206   2.7283   2.7935   2.9382   2.9780
     3.2784   3.4258   3.9053   4.1045   4.1765   4.5244   4.5980   4.7150
     4.8033   4.8293   4.8949   5.2412   5.4574   5.5518   5.8499   5.9873
     6.4036   6.5923   6.9978   7.2029   7.3318   7.5444   7.6679   7.7992
     7.8269   7.9007   8.1303   8.1533   8.1627   8.2591   8.6099   8.7231
     8.7604   8.8300   8.9391   8.9784   9.0276   9.0689   9.2051   9.2163
     9.2222   9.3154

          k = 0.2500 0.0000 0.0000 ( 72271 PWs)   bands (ev):

   -41.3670 -38.9607 -38.1607 -35.7880 -23.1267 -23.0100 -22.9317 -22.8386
   -22.7050 -22.6452 -22.5764 -22.5546 -21.4554 -21.3986 -21.2561 -20.0304
   -20.0105 -19.9261 -18.6334 -18.5206 -18.1639 -17.1460 -17.0411 -16.8177
   -16.2285 -15.8598 -15.4887 -15.4451 -15.0747 -15.0525 -15.0237 -14.9343
   -14.9166 -14.7827 -14.7625 -14.7477 -14.7061 -14.6134 -14.5644 -14.3714
   -14.3620 -14.2179 -14.1539 -14.1356 -14.1254 -14.1142 -14.0743 -14.0683
   -14.0388 -13.9113 -13.8487 -13.7284 -13.7173 -13.4480  -8.4825  -8.3872
    -8.1939  -8.0904  -8.0769  -7.9944  -7.9778  -7.9514  -7.9430  -7.9073
    -7.8282  -7.8259  -7.8127  -7.7893  -7.7598  -7.6860  -7.6603  -7.6577
    -7.5633  -7.5599  -7.5316  -7.5300  -7.4010  -7.3885  -3.5304  -2.9817
    -2.9595  -2.9338  -2.8227  -2.5486  -2.5119  -2.4864  -2.3374  -2.3193
    -2.2813  -2.2694  -2.1998  -2.1624  -2.1483  -2.0991  -2.0381  -2.0050
    -1.9622  -1.8433  -1.8238  -1.7423  -1.6456  -1.6008  -1.5960  -1.5764
    -1.5736  -1.4229  -1.3383  -1.3204  -1.3113  -1.1877  -1.1796  -1.1210
    -1.1097  -1.0923  -1.0836  -1.0719  -1.0485  -1.0444  -1.0197  -1.0152
    -1.0139  -0.9566  -0.9008  -0.8380  -0.7799  -0.7490  -0.7471  -0.7195
    -0.6901  -0.6869  -0.6244  -0.5861  -0.5273  -0.4518  -0.4295  -0.3975
    -0.3462  -0.3350  -0.3193  -0.3155  -0.2871  -0.2609  -0.2561  -0.2349
    -0.2250  -0.1295  -0.1146  -0.0937  -0.0731  -0.0717  -0.0576  -0.0457
    -0.0394   0.0479   0.0632   0.0948   0.1085   0.1456   0.1589   0.1673
     0.1677   0.1829   0.1940   0.1967   0.2313   0.3007   0.3054   0.3720
     0.3801   0.3898   0.3932   0.3958   0.4235   0.4348   0.4867   0.5183
     0.5572   0.5619   0.5996   0.6063   0.6269   0.6791   0.7713   0.7941
     0.8286   0.8825   0.9179   0.9200   0.9552   0.9767   1.0111   1.0475
     1.0994   1.1083   1.1701   1.1985   1.2094   1.2384   1.2718   1.3091
     1.3180   1.3630   1.3996   1.4575   1.4781   1.4870   1.4881   1.5837
     1.5997   1.6289   1.6741   1.6814   1.7083   1.7194   1.7270   1.7744
     1.8061   1.8116   1.8857   1.8869   1.9355   1.9394   2.0140   2.0599
     2.1261   2.1275   2.1607   2.2114   2.3081   2.3204   2.3597   2.3972
     2.4258   2.5289   2.5444   2.5584   2.6806   2.7659   2.8992   3.2963
     4.3228   4.4857   5.2484   5.2801   5.3371   5.4186   5.5723   5.7157
     6.1231   6.3779   6.4202   6.4487   6.5170   6.6169   6.6403   6.7781
     7.0169   7.0354   7.1020   7.2263   7.3457   7.4682   7.7645   7.8246
     7.9094   8.0295   8.0415   8.0701   8.1680   8.2763   8.3417   8.4013
     8.4681   8.6554

          k = 0.2500 0.2618 0.0000 ( 72312 PWs)   bands (ev):

   -41.3649 -38.9594 -38.1580 -35.7863 -23.1039 -22.9905 -22.9079 -22.8186
   -22.6821 -22.6210 -22.5569 -22.5346 -21.4518 -21.3949 -21.2954 -20.0277
   -20.0082 -19.9476 -18.5948 -18.5135 -18.2748 -17.1161 -17.0348 -16.8834
   -16.1794 -15.8195 -15.4856 -15.3415 -15.0472 -15.0161 -14.9873 -14.8883
   -14.8711 -14.7356 -14.7218 -14.7195 -14.6733 -14.5963 -14.5324 -14.3289
   -14.3155 -14.2162 -14.1925 -14.1292 -14.1183 -14.1115 -14.0720 -14.0707
   -14.0499 -13.9513 -13.8606 -13.7769 -13.7231 -13.4748  -8.4897  -8.3758
    -8.1947  -8.1883  -8.1516  -8.1176  -8.0641  -8.0053  -7.9829  -7.9261
    -7.8982  -7.8928  -7.8397  -7.8203  -7.7706  -7.7660  -7.7582  -7.7280
    -7.7234  -7.6900  -7.5002  -7.4991  -7.4764  -7.4613  -3.6513  -3.2049
    -3.0774  -2.8767  -2.8374  -2.7139  -2.5774  -2.4731  -2.4459  -2.3704
    -2.2918  -2.2792  -2.2431  -2.2278  -2.2171  -2.1440  -2.1299  -2.0792
    -2.0602  -2.0046  -1.9814  -1.9675  -1.9197  -1.8923  -1.7309  -1.6815
    -1.6366  -1.5400  -1.5289  -1.4885  -1.4717  -1.4633  -1.4458  -1.4379
    -1.3690  -1.3144  -1.2837  -1.2563  -1.2061  -1.1194  -1.1096  -1.0842
    -1.0382  -0.9830  -0.9362  -0.8743  -0.8452  -0.8177  -0.7762  -0.7676
    -0.7503  -0.6914  -0.6754  -0.6307  -0.5934  -0.5293  -0.4721  -0.4303
    -0.3981  -0.3851  -0.3825  -0.3696  -0.2848  -0.2466  -0.2207  -0.2043
    -0.1623  -0.1464  -0.1285  -0.1253  -0.0990  -0.0658  -0.0588  -0.0353
     0.0036   0.0543   0.0752   0.0769   0.0948   0.1134   0.1477   0.1682
     0.1837   0.2121   0.2413   0.2513   0.2629   0.2819   0.2945   0.3143
     0.3267   0.3709   0.3748   0.3982   0.4321   0.4574   0.5038   0.5239
     0.5463   0.6202   0.6873   0.7943   0.8229   0.8422   0.8610   0.9089
     0.9470   0.9770   1.0045   1.0242   1.0507   1.0603   1.0779   1.1033
     1.1400   1.1579   1.1607   1.2011   1.2573   1.2868   1.3046   1.3193
     1.3650   1.4124   1.4302   1.4464   1.4699   1.5277   1.5608   1.5769
     1.5894   1.6004   1.6376   1.6583   1.6760   1.6862   1.7233   1.7812
     1.7846   1.8476   1.8511   1.9269   1.9990   2.0393   2.1095   2.1451
     2.2470   2.2786   2.4558   2.5051   2.6236   2.6852   2.7104   2.7917
     2.8526   2.8691   2.8745   2.9153   2.9255   3.0776   3.1623   3.3844
     4.3932   4.5471   5.1046   5.3556   5.6424   5.6754   5.7627   5.8113
     6.2640   6.3191   6.3731   6.5829   6.5994   6.6677   6.7333   7.0875
     7.1092   7.1799   7.3374   7.3846   7.4162   7.6275   7.7948   8.0028
     8.0484   8.0721   8.0986   8.2180   8.3339   8.4727   8.5255   8.5652
     8.6273   8.7403

          k = 0.2500 0.5236 0.0000 ( 72250 PWs)   bands (ev):

   -41.3599 -38.9561 -38.1515 -35.7822 -23.0477 -22.9424 -22.8494 -22.7695
   -22.6257 -22.5614 -22.5089 -22.4855 -21.4715 -21.3859 -21.3586 -20.0403
   -20.0028 -19.9795 -18.5149 -18.4963 -18.4955 -17.0427 -17.0267 -17.0192
   -16.0495 -15.7156 -15.4917 -15.1092 -15.0929 -14.8858 -14.8180 -14.7600
   -14.7557 -14.7415 -14.7067 -14.6413 -14.5749 -14.5082 -14.4083 -14.3433
   -14.2395 -14.2287 -14.1961 -14.1386 -14.0858 -14.0789 -14.0600 -14.0531
   -14.0450 -14.0077 -13.9110 -13.8755 -13.7432 -13.5519  -8.5966  -8.4556
    -8.4369  -8.3320  -8.3184  -8.1923  -8.1838  -8.1713  -8.1469  -8.1445
    -8.0839  -8.0030  -7.9870  -7.9184  -7.9156  -7.8709  -7.8369  -7.7882
    -7.7505  -7.7481  -7.7385  -7.7152  -7.4755  -7.4721  -4.0627  -3.5435
    -3.4733  -3.1174  -2.9550  -2.9398  -2.8018  -2.7446  -2.7167  -2.6819
    -2.6389  -2.5801  -2.5146  -2.4569  -2.3737  -2.3588  -2.3095  -2.2803
    -2.2603  -2.2396  -2.2237  -2.1976  -2.1772  -2.1645  -2.1547  -2.1073
    -2.0831  -2.0003  -1.9322  -1.9138  -1.8142  -1.7034  -1.6890  -1.6587
    -1.5687  -1.5018  -1.4868  -1.3466  -1.3019  -1.2531  -1.1995  -1.1893
    -1.1299  -1.0702  -1.0166  -1.0148  -1.0053  -0.9765  -0.9437  -0.9006
    -0.8710  -0.8233  -0.7816  -0.7429  -0.7142  -0.7119  -0.6637  -0.6552
    -0.5871  -0.5671  -0.5627  -0.5306  -0.5042  -0.4913  -0.4817  -0.4773
    -0.4553  -0.3934  -0.3619  -0.3332  -0.2271  -0.2248  -0.1175  -0.0262
    -0.0049   0.0001   0.0301   0.0900   0.1205   0.1694   0.1801   0.2393
     0.2746   0.3176   0.3353   0.3825   0.4095   0.4130   0.4529   0.4945
     0.6374   0.6885   0.6945   0.7135   0.7404   0.7611   0.8017   0.8744
     0.9143   0.9451   0.9928   1.0029   1.0182   1.0357   1.0434   1.0707
     1.1084   1.1193   1.1433   1.1719   1.1988   1.2297   1.2894   1.2905
     1.3196   1.3301   1.3556   1.3843   1.4026   1.4151   1.4353   1.4549
     1.4575   1.4909   1.5156   1.5313   1.5780   1.5831   1.6245   1.6261
     1.6444   1.6837   1.7641   1.7843   1.7861   1.8421   1.8853   1.9521
     1.9661   1.9934   2.0061   2.0180   2.0246   2.1036   2.1203   2.2726
     2.4148   2.4624   2.6999   2.8151   2.9573   3.0046   3.0464   3.1009
     3.1900   3.2754   3.3723   3.5226   3.5892   3.6217   3.7539   3.9504
     4.4743   4.7772   4.9154   5.3388   5.8106   5.9391   5.9764   6.4888
     6.5375   6.5663   6.5780   6.6862   6.7049   6.8590   6.9592   7.1036
     7.1763   7.2639   7.9166   8.0094   8.1106   8.1190   8.2404   8.2894
     8.3411   8.4083   8.4573   8.5810   8.6183   8.7003   8.7714   8.8501
     8.8753   9.0248

          k = 0.2500 0.7854 0.0000 ( 72314 PWs)   bands (ev):

   -41.3549 -38.9528 -38.1450 -35.7780 -22.9900 -22.8932 -22.7893 -22.7191
   -22.5678 -22.5000 -22.4597 -22.4353 -21.5474 -21.3770 -21.3620 -20.0863
   -19.9974 -19.9767 -18.7238 -18.4792 -18.3897 -17.1584 -17.0073 -16.9574
   -15.8864 -15.5987 -15.5301 -15.1704 -14.9284 -14.7851 -14.7579 -14.7403
   -14.6292 -14.6290 -14.5899 -14.5832 -14.5576 -14.4225 -14.3365 -14.2861
   -14.2230 -14.1986 -14.1925 -14.1242 -14.0770 -14.0631 -14.0360 -14.0119
   -13.9864 -13.9770 -13.9715 -13.9244 -13.7912 -13.6649  -8.8620  -8.7131
    -8.5151  -8.4785  -8.4459  -8.4293  -8.3679  -8.3519  -8.2995  -8.2102
    -8.1306  -8.0953  -8.0862  -8.0740  -8.0023  -7.9610  -7.9454  -7.9009
    -7.8059  -7.7876  -7.7677  -7.7211  -7.5245  -7.5093  -4.5090  -3.9545
    -3.8429  -3.5310  -3.3818  -3.2986  -3.1860  -3.1521  -3.0957  -2.9625
    -2.9514  -2.9183  -2.9081  -2.8718  -2.8257  -2.8170  -2.6244  -2.6008
    -2.4653  -2.3513  -2.3100  -2.3069  -2.2844  -2.2759  -2.2204  -2.2032
    -2.1503  -2.0980  -2.0279  -1.9454  -1.8757  -1.8594  -1.7935  -1.7506
    -1.7192  -1.6514  -1.5702  -1.5298  -1.5041  -1.4448  -1.3139  -1.2815
    -1.2017  -1.1973  -1.1868  -1.1553  -1.1011  -1.0751  -1.0438  -1.0360
    -1.0272  -0.9620  -0.9177  -0.9065  -0.8645  -0.8368  -0.8288  -0.8096
    -0.7708  -0.7695  -0.7442  -0.7300  -0.7091  -0.7029  -0.6782  -0.6569
    -0.6317  -0.5945  -0.5591  -0.3253  -0.2521  -0.2269  -0.1741  -0.0654
     0.0279   0.0686   0.1062   0.1862   0.2430   0.2898   0.2960   0.3132
     0.3417   0.3672   0.4477   0.4734   0.5514   0.5935   0.6225   0.6254
     0.8146   0.8425   0.8676   0.8968   0.9263   0.9754   0.9975   1.0291
     1.0391   1.0829   1.0944   1.1122   1.1481   1.1709   1.2276   1.2468
     1.2777   1.3116   1.3221   1.3395   1.3809   1.3985   1.4071   1.4367
     1.4749   1.5044   1.5056   1.5508   1.6060   1.6275   1.6279   1.6714
     1.6773   1.6888   1.7096   1.7285   1.7475   1.7649   1.7979   1.8164
     1.8475   1.8841   1.9058   1.9222   1.9445   1.9950   2.0577   2.0908
     2.1282   2.2135   2.2188   2.2647   2.2864   2.3025   2.3720   2.4131
     2.4471   2.6706   2.6939   2.7873   2.8562   2.9607   2.9920   3.1134
     3.2434   3.4379   3.7762   3.8610   3.9767   4.1430   4.2327   4.4572
     4.5954   4.8243   5.0540   5.2133   5.5793   5.6976   6.2216   6.2330
     6.3792   6.7408   6.8092   6.9786   7.0684   7.2174   7.3300   7.3378
     7.5192   7.6893   7.9234   8.1367   8.4400   8.5275   8.5824   8.6783
     8.7067   8.7799   8.8441   8.9301   8.9695   9.0685   9.0992   9.1553
     9.1747   9.2129

          k = 0.2500-1.0472 0.0000 ( 72256 PWs)   bands (ev):

   -41.3528 -38.9515 -38.1423 -35.7763 -22.9656 -22.8724 -22.7639 -22.6978
   -22.5434 -22.4740 -22.4389 -22.4142 -21.5852 -21.3732 -21.3559 -20.1085
   -19.9951 -19.9721 -18.8044 -18.4721 -18.3426 -17.2089 -17.0019 -16.9211
   -15.7864 -15.5947 -15.5231 -15.2174 -14.9474 -14.7906 -14.7144 -14.7008
   -14.6227 -14.5777 -14.5728 -14.4611 -14.4406 -14.3962 -14.3346 -14.2881
   -14.2594 -14.2444 -14.1772 -14.0941 -14.0339 -14.0095 -14.0071 -13.9996
   -13.9940 -13.9538 -13.9467 -13.9126 -13.8794 -13.7276  -8.9565  -8.7989
    -8.6289  -8.5370  -8.5303  -8.5027  -8.5015  -8.3704  -8.2996  -8.2478
    -8.1968  -8.1862  -8.1385  -8.0833  -8.0200  -7.9589  -7.9406  -7.9341
    -7.8280  -7.7914  -7.7797  -7.7114  -7.5639  -7.5353  -4.6896  -4.1530
    -3.9643  -3.7190  -3.5489  -3.4985  -3.3949  -3.3543  -3.2506  -3.1684
    -3.1522  -3.1028  -3.0577  -3.0433  -3.0244  -2.9253  -2.6411  -2.4802
    -2.4431  -2.4241  -2.4127  -2.3759  -2.3080  -2.2865  -2.2449  -2.2267
    -2.1969  -2.1372  -2.0913  -1.9988  -1.8608  -1.8364  -1.7988  -1.7467
    -1.7098  -1.6933  -1.6330  -1.6038  -1.5723  -1.5498  -1.5125  -1.3680
    -1.2750  -1.2043  -1.2026  -1.1718  -1.1429  -1.1420  -1.1224  -1.0835
    -1.0466  -1.0403  -0.9730  -0.9387  -0.9192  -0.9137  -0.9032  -0.8926
    -0.8617  -0.8508  -0.8010  -0.7919  -0.7906  -0.7701  -0.7285  -0.7020
    -0.6725  -0.6010  -0.5247  -0.3015  -0.2447  -0.2442  -0.1864  -0.0757
     0.0251   0.0894   0.1129   0.1554   0.2671   0.2805   0.3010   0.3043
     0.4273   0.4759   0.4807   0.4982   0.6119   0.6439   0.6822   0.7093
     0.8736   0.9195   0.9354   0.9663   0.9668   0.9903   1.0346   1.0470
     1.0837   1.1330   1.1527   1.1657   1.1792   1.1940   1.2102   1.3203
     1.3391   1.3492   1.3595   1.4103   1.4236   1.4588   1.4700   1.4803
     1.5135   1.5462   1.5777   1.5916   1.5994   1.6907   1.6916   1.7237
     1.7887   1.7980   1.8269   1.8483   1.8707   1.8975   1.9850   2.0482
     2.0490   2.0533   2.0701   2.1199   2.1238   2.1399   2.1480   2.1692
     2.1735   2.1964   2.3348   2.3571   2.4091   2.4271   2.4540   2.5397
     2.5402   2.5742   2.5818   2.6347   2.7545   2.8709   2.8976   3.0023
     3.3016   3.4403   3.8741   3.9525   4.1353   4.2966   4.3858   4.6202
     4.7317   4.8665   4.9526   5.2203   5.4657   5.6035   6.0425   6.1807
     6.3673   6.6722   6.9276   7.0656   7.1192   7.4193   7.5552   7.5771
     7.8318   7.8759   7.9371   8.1034   8.1270   8.2287   8.7334   8.7612
     8.8268   8.9317   9.0560   9.1373   9.1580   9.2275   9.2610   9.2658
     9.3121   9.3683

          k = 0.3750 0.0000 0.0000 ( 72350 PWs)   bands (ev):

   -41.3670 -38.9608 -38.1607 -35.7880 -23.1156 -23.0218 -22.9135 -22.8575
   -22.6948 -22.6249 -22.5873 -22.5757 -21.4555 -21.3969 -21.2561 -20.0301
   -20.0136 -19.9262 -18.6316 -18.5126 -18.1639 -17.1531 -17.0687 -16.8177
   -16.1967 -15.9160 -15.4583 -15.3501 -15.0520 -15.0391 -15.0096 -14.9551
   -14.8590 -14.8484 -14.7769 -14.7525 -14.7140 -14.6359 -14.5609 -14.4373
   -14.3422 -14.2012 -14.1404 -14.1331 -14.1246 -14.0983 -14.0779 -14.0729
   -14.0481 -13.9642 -13.8512 -13.7430 -13.6721 -13.4683  -8.4877  -8.3971
    -8.1980  -8.0958  -8.0478  -8.0064  -7.9562  -7.9467  -7.9162  -7.9112
    -7.8591  -7.8187  -7.8181  -7.7933  -7.7666  -7.6952  -7.6495  -7.6255
    -7.5525  -7.5420  -7.5328  -7.5221  -7.4338  -7.4291  -3.4553  -3.0209
    -2.9451  -2.8265  -2.6863  -2.5371  -2.4826  -2.4515  -2.4217  -2.3688
    -2.3076  -2.2482  -2.2413  -2.1803  -2.1526  -2.1322  -2.0601  -1.9819
    -1.9538  -1.8433  -1.8398  -1.7692  -1.6336  -1.6192  -1.6112  -1.5961
    -1.5558  -1.4141  -1.3331  -1.3047  -1.2905  -1.1609  -1.1176  -1.1126
    -1.0773  -1.0765  -1.0587  -1.0465  -1.0429  -1.0173  -1.0169  -1.0128
    -0.9573  -0.9475  -0.9386  -0.8794  -0.8202  -0.7962  -0.7681  -0.7423
    -0.6605  -0.6523  -0.6268  -0.5835  -0.5544  -0.5468  -0.5435  -0.4672
    -0.4568  -0.4276  -0.3475  -0.3437  -0.3198  -0.2850  -0.2633  -0.2525
    -0.2127  -0.1488  -0.1225  -0.1135  -0.1019  -0.0545  -0.0534  -0.0462
    -0.0299  -0.0018   0.0966   0.1015   0.1155   0.1522   0.1660   0.1733
     0.1876   0.2146   0.2561   0.2606   0.2703   0.3129   0.3436   0.3470
     0.3595   0.3952   0.4017   0.4060   0.4275   0.4748   0.4818   0.4990
     0.5394   0.5756   0.6147   0.6257   0.6416   0.7241   0.7600   0.7912
     0.8205   0.8569   0.8753   0.8850   0.9034   0.9495   1.0415   1.0553
     1.0823   1.0979   1.1544   1.2187   1.2494   1.2651   1.2855   1.3106
     1.3671   1.3785   1.4170   1.4296   1.4433   1.4597   1.5489   1.5666
     1.6039   1.6151   1.6417   1.6473   1.7140   1.7278   1.7348   1.7587
     1.7630   1.8178   1.8411   1.8551   1.8897   1.8923   2.0559   2.0689
     2.0903   2.1536   2.2031   2.2552   2.3160   2.3370   2.3529   2.4164
     2.4312   2.5194   2.5806   2.6899   2.7201   2.7501   2.8765   3.1296
     4.3595   4.6698   5.1875   5.2565   5.5091   5.5417   5.6327   5.8578
     6.1015   6.1696   6.2721   6.3869   6.4091   6.6281   6.6556   6.9541
     7.0232   7.1182   7.2276   7.2391   7.2852   7.6042   7.7443   7.8060
     7.9362   7.9525   8.0559   8.0730   8.1312   8.3187   8.3789   8.4769
     8.5587   8.7562

          k = 0.3750 0.2618 0.0000 ( 72342 PWs)   bands (ev):

   -41.3649 -38.9594 -38.1580 -35.7863 -23.0933 -23.0016 -22.8907 -22.8365
   -22.6724 -22.6017 -22.5671 -22.5547 -21.4519 -21.3932 -21.2954 -20.0274
   -20.0113 -19.9476 -18.5931 -18.5056 -18.2748 -17.1228 -17.0612 -16.8833
   -16.1494 -15.8727 -15.4587 -15.2472 -15.0469 -14.9897 -14.9647 -14.9075
   -14.8241 -14.7852 -14.7539 -14.7326 -14.6832 -14.6130 -14.5132 -14.3870
   -14.3026 -14.2071 -14.1969 -14.1215 -14.1171 -14.0931 -14.0730 -14.0692
   -14.0565 -13.9901 -13.8680 -13.7824 -13.6847 -13.4915  -8.4931  -8.3926
    -8.2172  -8.1983  -8.1898  -8.1429  -8.0908  -8.0163  -8.0060  -7.9356
    -7.8770  -7.8727  -7.8585  -7.8551  -7.7802  -7.7599  -7.7542  -7.7143
    -7.7005  -7.6831  -7.4566  -7.4475  -7.4320  -7.4220  -3.5580  -3.2709
    -2.9189  -2.8408  -2.7587  -2.7293  -2.5652  -2.4573  -2.4463  -2.3881
    -2.2916  -2.2719  -2.2643  -2.2479  -2.2234  -2.1456  -2.1345  -2.0984
    -2.0541  -2.0039  -1.9847  -1.9599  -1.9196  -1.8524  -1.7266  -1.6739
    -1.6609  -1.6005  -1.5386  -1.5089  -1.4826  -1.4763  -1.4537  -1.4431
    -1.4115  -1.3738  -1.2939  -1.2361  -1.1819  -1.1524  -1.0954  -1.0833
    -1.0618  -1.0026  -0.9535  -0.9336  -0.9299  -0.8148  -0.8065  -0.7586
    -0.7530  -0.7504  -0.6745  -0.6161  -0.5988  -0.5697  -0.5003  -0.4861
    -0.4583  -0.4233  -0.3695  -0.3388  -0.3262  -0.2501  -0.2424  -0.1945
    -0.1723  -0.1662  -0.1506  -0.1295  -0.1236  -0.0838  -0.0626  -0.0315
    -0.0007   0.0398   0.0617   0.0858   0.1151   0.1245   0.1420   0.1651
     0.2018   0.2439   0.2629   0.2853   0.2936   0.3019   0.3243   0.3275
     0.3459   0.3747   0.3943   0.4165   0.4441   0.4597   0.4887   0.4942
     0.5482   0.5886   0.6446   0.7572   0.8403   0.8694   0.9195   0.9379
     0.9598   0.9725   0.9889   1.0308   1.0412   1.0673   1.0730   1.0947
     1.1391   1.1672   1.1708   1.1994   1.2405   1.2940   1.3032   1.3116
     1.3998   1.4324   1.4509   1.4581   1.5045   1.5206   1.5300   1.5485
     1.5552   1.5695   1.6096   1.6345   1.6684   1.6758   1.7142   1.7401
     1.8142   1.8406   1.8630   1.9301   2.0302   2.0978   2.1461   2.1933
     2.1987   2.4201   2.4362   2.6298   2.6804   2.7177   2.8078   2.8149
     2.8539   2.8701   2.9027   2.9116   2.9334   3.0141   3.1217   3.2465
     4.4454   4.7104   5.0644   5.2997   5.6154   5.8422   5.9021   5.9221
     6.2295   6.3063   6.3781   6.3901   6.4870   6.6196   6.7158   6.9758
     7.1803   7.1944   7.3447   7.5548   7.5776   7.8120   7.8497   7.9746
     8.0756   8.1314   8.1812   8.2558   8.3921   8.4558   8.5221   8.5658
     8.6363   8.7726

          k = 0.3750 0.5236 0.0000 ( 72253 PWs)   bands (ev):

   -41.3599 -38.9561 -38.1515 -35.7822 -23.0387 -22.9519 -22.8346 -22.7848
   -22.6176 -22.5444 -22.5175 -22.5031 -21.4715 -21.3843 -21.3587 -20.0402
   -20.0057 -19.9794 -18.5148 -18.4941 -18.4886 -17.0482 -17.0443 -17.0259
   -16.0252 -15.7584 -15.4741 -15.0887 -15.0222 -14.8775 -14.8046 -14.7703
   -14.7411 -14.7362 -14.7109 -14.6316 -14.5920 -14.5757 -14.3715 -14.3499
   -14.2639 -14.2548 -14.2141 -14.1214 -14.0814 -14.0771 -14.0651 -14.0521
   -14.0370 -14.0162 -13.9215 -13.8739 -13.7224 -13.5595  -8.5868  -8.4737
    -8.4350  -8.4144  -8.3320  -8.2975  -8.1702  -8.1585  -8.1458  -8.0786
    -8.0690  -8.0343  -8.0259  -7.9838  -7.8921  -7.8744  -7.8342  -7.7582
    -7.7442  -7.7413  -7.6472  -7.6286  -7.4783  -7.4752  -3.9421  -3.6293
    -3.3284  -3.0351  -2.9734  -2.9414  -2.8093  -2.7590  -2.6952  -2.6472
    -2.6283  -2.4821  -2.4769  -2.4539  -2.3757  -2.3455  -2.3027  -2.2807
    -2.2560  -2.2312  -2.2174  -2.2136  -2.1645  -2.1494  -2.1396  -2.1041
    -2.0990  -2.0909  -2.0261  -1.9140  -1.7945  -1.7645  -1.6708  -1.6315
    -1.5681  -1.5614  -1.5396  -1.4962  -1.4039  -1.2976  -1.2337  -1.1848
    -1.1536  -1.1342  -1.0840  -1.0769  -1.0384  -1.0088  -0.9701  -0.9373
    -0.8715  -0.7978  -0.7944  -0.7803  -0.7470  -0.7430  -0.6570  -0.6555
    -0.5730  -0.5728  -0.5451  -0.5240  -0.5037  -0.5032  -0.4632  -0.4574
    -0.4428  -0.3706  -0.3617  -0.3287  -0.2369  -0.2083  -0.1772  -0.0971
    -0.0531  -0.0474  -0.0164   0.0825   0.1105   0.1644   0.2394   0.2889
     0.3312   0.3652   0.3743   0.4128   0.4423   0.4465   0.4919   0.5258
     0.6307   0.6548   0.6684   0.6866   0.7417   0.7682   0.8254   0.8383
     0.8997   0.9397   0.9521   0.9761   0.9985   1.0044   1.0204   1.0374
     1.0652   1.0704   1.0975   1.1689   1.2238   1.2636   1.2956   1.3032
     1.3453   1.3810   1.4138   1.4312   1.4381   1.4442   1.4766   1.4927
     1.5016   1.5109   1.5231   1.5269   1.5436   1.5777   1.6097   1.6257
     1.6426   1.6999   1.7414   1.7880   1.8289   1.8444   1.9028   1.9207
     1.9478   1.9844   2.0185   2.0473   2.0518   2.0640   2.2230   2.2798
     2.5346   2.8096   2.9393   2.9632   3.0082   3.0713   3.0985   3.1030
     3.1081   3.2928   3.3271   3.4334   3.5255   3.5499   3.5989   3.7927
     4.6046   4.7822   4.9312   5.3142   5.8150   5.9069   6.0154   6.5347
     6.5370   6.5908   6.6230   6.6965   6.7052   6.8198   7.0192   7.0443
     7.1520   7.2131   8.0045   8.0956   8.1566   8.1979   8.2639   8.2813
     8.3945   8.4020   8.5036   8.6715   8.7408   8.7660   8.7897   8.9283
     8.9981   9.0292

          k = 0.3750 0.7854 0.0000 ( 72298 PWs)   bands (ev):

   -41.3549 -38.9528 -38.1450 -35.7780 -22.9826 -22.9009 -22.7771 -22.7317
   -22.5612 -22.4855 -22.4666 -22.4502 -21.5474 -21.3753 -21.3621 -20.0863
   -20.0001 -19.9765 -18.7237 -18.4717 -18.3885 -17.1583 -17.0294 -16.9625
   -15.8716 -15.6194 -15.5237 -15.1695 -14.8783 -14.7736 -14.7283 -14.7113
   -14.6582 -14.6085 -14.5869 -14.5812 -14.5454 -14.4413 -14.3975 -14.3313
   -14.1968 -14.1699 -14.1674 -14.1386 -14.1038 -14.0950 -14.0307 -14.0165
   -13.9836 -13.9763 -13.9707 -13.9322 -13.7882 -13.6647  -8.7824  -8.6317
    -8.5038  -8.4909  -8.3841  -8.3655  -8.3593  -8.3468  -8.2854  -8.2067
    -8.1216  -8.1031  -8.0958  -8.0920  -8.0556  -7.9753  -7.9460  -7.9107
    -7.8925  -7.8089  -7.7602  -7.7294  -7.6291  -7.6027  -4.3689  -3.9479
    -3.8131  -3.4631  -3.4089  -3.2937  -3.1931  -3.1436  -3.0661  -2.9640
    -2.9276  -2.9077  -2.8825  -2.8310  -2.8225  -2.8142  -2.7026  -2.5450
    -2.4018  -2.3551  -2.3245  -2.2954  -2.2855  -2.2408  -2.2226  -2.1913
    -2.1643  -2.0584  -2.0447  -2.0111  -2.0100  -1.8583  -1.7796  -1.7437
    -1.6983  -1.6590  -1.6516  -1.5900  -1.5219  -1.4772  -1.4334  -1.3735
    -1.3501  -1.2179  -1.1899  -1.1690  -1.1228  -1.0931  -1.0909  -1.0511
    -1.0307  -0.9765  -0.9589  -0.8892  -0.8814  -0.8372  -0.8238  -0.8132
    -0.7922  -0.7545  -0.7193  -0.7060  -0.6889  -0.6724  -0.6549  -0.6096
    -0.5554  -0.5531  -0.4879  -0.3762  -0.3036  -0.2677  -0.1304  -0.1198
    -0.0402   0.0108   0.1405   0.1685   0.2432   0.2908   0.3031   0.3379
     0.4260   0.4300   0.4596   0.5321   0.5451   0.5906   0.6426   0.7495
     0.7757   0.8216   0.8606   0.8773   0.9054   0.9412   0.9954   1.0362
     1.0481   1.0540   1.0739   1.0776   1.1851   1.1988   1.2091   1.2732
     1.2876   1.3247   1.3350   1.3434   1.3783   1.4009   1.4278   1.4618
     1.4679   1.4818   1.5490   1.5806   1.5838   1.5882   1.6278   1.6333
     1.6494   1.6692   1.7097   1.7286   1.7363   1.7546   1.7735   1.7799
     1.8143   1.8828   1.9126   1.9221   1.9543   1.9909   2.0100   2.0444
     2.0985   2.2512   2.2975   2.3032   2.3284   2.3372   2.3867   2.6040
     2.6288   2.7936   2.8613   2.9306   2.9730   2.9770   3.1538   3.2076
     3.3629   3.4606   3.5665   3.7988   3.8707   3.9452   3.9710   4.1816
     4.6659   4.8597   5.0772   5.2099   5.5249   5.8636   6.1857   6.4645
     6.6061   6.6328   6.8712   6.9175   6.9558   7.0318   7.1391   7.2451
[...]
    -1.9963  -1.9865  -1.9730  -1.9292  -1.8927  -1.7984  -1.7581  -1.7129
    -1.6693  -1.6179  -1.6052  -1.5488  -1.4953  -1.4805  -1.4783  -1.4492
    -1.4491  -1.3783  -1.3174  -1.1649  -1.1422  -1.1313  -1.0503  -1.0457
    -1.0369  -1.0212  -1.0010  -0.9890  -0.9585  -0.9031  -0.8489  -0.7967
    -0.7485  -0.7024  -0.6751  -0.5691  -0.5595  -0.5485  -0.5306  -0.5068
    -0.4969  -0.4946  -0.3888  -0.3549  -0.3113  -0.2713  -0.2136  -0.2073
    -0.1832  -0.1791  -0.1606  -0.1456  -0.1171  -0.0893  -0.0744  -0.0163
     0.0139   0.0363   0.0553   0.0924   0.1253   0.1271   0.1406   0.1538
     0.1999   0.2740   0.2798   0.2902   0.3109   0.3325   0.3490   0.3567
     0.3645   0.3658   0.3875   0.4265   0.4289   0.4443   0.4806   0.4955
     0.5227   0.5831   0.6426   0.7464   0.8466   0.8766   0.8854   0.9328
     0.9642   0.9672   0.9971   1.0057   1.0288   1.0434   1.0698   1.1529
     1.1649   1.1688   1.1904   1.2382   1.2827   1.3052   1.3153   1.3461
     1.3493   1.3953   1.4731   1.4893   1.4919   1.4999   1.5052   1.5194
     1.5356   1.5669   1.6185   1.6341   1.6402   1.6621   1.7034   1.7051
     1.8194   1.8317   1.8734   1.9412   2.0898   2.1137   2.1197   2.1746
     2.2844   2.3531   2.5187   2.6335   2.7471   2.7822   2.8257   2.8270
     2.8364   2.8585   2.9220   2.9350   2.9436   2.9776   3.1085   3.1535
     4.4595   4.8367   4.9927   5.2702   5.6048   5.9556   6.0472   6.0647
     6.1192   6.1354   6.2103   6.3986   6.5890   6.6453   6.7474   6.8763
     7.0539   7.1872   7.6258   7.6811   7.7346   7.8437   7.8534   7.8907
     7.9034   8.0786   8.1247   8.2585   8.3913   8.4727   8.5297   8.6436
     8.7800   8.7906

          k =-0.5000 0.5236 0.0000 ( 72270 PWs)   bands (ev):

   -41.3599 -38.9561 -38.1515 -35.7822 -23.0343 -22.9564 -22.8245 -22.7951
   -22.6138 -22.5268 -22.5214 -22.5209 -21.4716 -21.3836 -21.3587 -20.0401
   -20.0069 -19.9793 -18.5147 -18.4935 -18.4854 -17.0545 -17.0499 -17.0263
   -16.0132 -15.7769 -15.4679 -15.0870 -14.9660 -14.8885 -14.7925 -14.7812
   -14.7317 -14.7314 -14.7161 -14.6559 -14.6011 -14.5783 -14.3517 -14.3338
   -14.3011 -14.2770 -14.2090 -14.1143 -14.0802 -14.0758 -14.0673 -14.0515
   -14.0298 -14.0235 -13.9261 -13.8734 -13.7140 -13.5631  -8.5497  -8.5265
    -8.4358  -8.4010  -8.3719  -8.3321  -8.1454  -8.1336  -8.1218  -8.1117
    -8.0940  -8.0779  -8.0089  -8.0029  -7.8810  -7.8377  -7.8020  -7.7911
    -7.7551  -7.7439  -7.5864  -7.5418  -7.5264  -7.4992  -3.8541  -3.7034
    -3.2037  -3.1260  -2.9421  -2.8705  -2.8416  -2.7860  -2.7024  -2.6504
    -2.5579  -2.5052  -2.4451  -2.4050  -2.3567  -2.3049  -2.2832  -2.2813
    -2.2637  -2.2540  -2.2250  -2.2199  -2.1781  -2.1439  -2.1324  -2.1264
    -2.1215  -2.1052  -2.1030  -1.9122  -1.8036  -1.7589  -1.6655  -1.5872
    -1.5832  -1.5724  -1.5450  -1.5323  -1.4607  -1.3768  -1.3203  -1.2006
    -1.1940  -1.1142  -1.0881  -1.0667  -1.0068  -0.9996  -0.9694  -0.9199
    -0.9189  -0.8694  -0.7841  -0.7814  -0.7673  -0.7526  -0.6492  -0.6169
    -0.6080  -0.5670  -0.5286  -0.5172  -0.5149  -0.4983  -0.4637  -0.4187
    -0.4043  -0.3818  -0.3720  -0.3430  -0.3001  -0.1763  -0.1717  -0.1330
    -0.0922  -0.0468  -0.0401   0.0715   0.1247   0.1564   0.2819   0.3285
     0.3398   0.3763   0.3942   0.4066   0.4162   0.5172   0.5240   0.5837
     0.5958   0.6304   0.6417   0.6580   0.7593   0.7641   0.8152   0.8689
     0.9085   0.9133   0.9262   0.9733   0.9940   0.9952   0.9953   1.0075
     1.0516   1.0528   1.0803   1.1652   1.2407   1.2935   1.2957   1.3033
     1.3645   1.3833   1.4056   1.4158   1.4560   1.4656   1.4811   1.4956
     1.4994   1.5243   1.5302   1.5409   1.5553   1.5720   1.6268   1.6712
     1.6771   1.6850   1.7249   1.8043   1.8079   1.8732   1.8763   1.8835
     1.9678   1.9740   2.0199   2.0553   2.0786   2.0920   2.1698   2.2482
     2.8129   2.8751   2.9748   2.9766   3.0054   3.0947   3.1136   3.1524
     3.2044   3.2704   3.3082   3.3886   3.5068   3.5303   3.5502   3.6167
     4.6724   4.7735   4.9377   5.2923   5.8474   5.8581   6.0481   6.5300
     6.5631   6.5912   6.6664   6.6854   6.7024   6.8189   6.9343   7.1061
     7.1529   7.2042   7.9627   8.1062   8.2199   8.2364   8.2552   8.3594
     8.3771   8.4883   8.6101   8.6135   8.7048   8.8516   8.8778   8.9538
     8.9825   8.9855

          k =-0.5000 0.7854 0.0000 ( 72274 PWs)   bands (ev):

   -41.3549 -38.9528 -38.1450 -35.7780 -22.9790 -22.9046 -22.7692 -22.7397
   -22.5582 -22.4708 -22.4697 -22.4650 -21.5474 -21.3746 -21.3622 -20.0863
   -20.0013 -19.9765 -18.7237 -18.4685 -18.3879 -17.1583 -17.0385 -16.9647
   -15.8649 -15.6281 -15.5215 -15.1692 -14.8369 -14.8103 -14.6961 -14.6902
   -14.6648 -14.5932 -14.5887 -14.5788 -14.5375 -14.4887 -14.3854 -14.3688
   -14.1670 -14.1662 -14.1422 -14.1413 -14.1293 -14.1240 -14.0262 -14.0207
   -13.9804 -13.9801 -13.9675 -13.9358 -13.7871 -13.6646  -8.7028  -8.6050
    -8.5277  -8.4892  -8.4863  -8.3333  -8.2723  -8.2550  -8.2330  -8.2282
    -8.2163  -8.1249  -8.1166  -8.1094  -8.0312  -8.0306  -7.9855  -7.8449
    -7.8015  -7.7951  -7.7876  -7.7351  -7.7248  -7.6818  -4.2750  -4.0275
    -3.7152  -3.5353  -3.3198  -3.3094  -3.1934  -3.1848  -3.0062  -2.9929
    -2.8994  -2.8955  -2.8946  -2.8335  -2.8251  -2.8075  -2.6705  -2.4813
    -2.4653  -2.3851  -2.3343  -2.3205  -2.2725  -2.2246  -2.2126  -2.1748
    -2.1602  -2.1234  -2.0153  -1.9906  -1.8845  -1.8837  -1.8107  -1.7914
    -1.7723  -1.6934  -1.6462  -1.6195  -1.6038  -1.5216  -1.4297  -1.3524
    -1.3397  -1.2117  -1.1974  -1.1803  -1.1767  -1.1764  -1.0779  -1.0682
    -1.0295  -0.9664  -0.9229  -0.8705  -0.8687  -0.8617  -0.8457  -0.8206
    -0.7999  -0.7549  -0.7151  -0.7143  -0.6712  -0.6640  -0.6020  -0.5761
    -0.5383  -0.5367  -0.4120  -0.4051  -0.3818  -0.2473  -0.2131  -0.0710
    -0.0578   0.0558   0.0747   0.1874   0.1941   0.2330   0.3815   0.3830
     0.3875   0.4455   0.4993   0.5196   0.5924   0.6339   0.7408   0.7441
     0.7449   0.7712   0.7941   0.9008   0.9271   0.9445   0.9789   1.0181
     1.0543   1.0571   1.0863   1.1044   1.1102   1.2086   1.2347   1.2649
     1.2853   1.3148   1.3200   1.3564   1.4026   1.4500   1.4559   1.4779
     1.4837   1.4957   1.5282   1.5469   1.5741   1.5958   1.5963   1.6279
     1.6313   1.6527   1.6776   1.7125   1.7229   1.7551   1.7870   1.7917
     1.8228   1.8724   1.9034   1.9237   1.9846   1.9852   1.9936   2.0115
     2.0616   2.2889   2.2998   2.3049   2.3327   2.3373   2.3945   2.5255
     2.8416   2.8666   2.9627   2.9780   3.0300   3.0342   3.2167   3.3952
     3.4385   3.4879   3.5844   3.6094   3.8049   3.8412   3.8487   3.9549
     4.7001   4.8681   5.0880   5.2060   5.5036   5.9704   6.1694   6.5294
     6.7109   6.7524   6.8488   6.8619   6.9090   6.9176   6.9930   7.2184
     7.4736   7.5137   7.9880   8.0550   8.5727   8.6315   8.6399   8.6786
     8.7122   8.8121   8.8152   8.8717   8.9924   9.0842   9.1438   9.2368
     9.2399   9.4703

          k =-0.5000-1.0472 0.0000 ( 72268 PWs)   bands (ev):

   -41.3528 -38.9515 -38.1423 -35.7763 -22.9557 -22.8827 -22.7459 -22.7163
   -22.5348 -22.4479 -22.4472 -22.4414 -21.5852 -21.3709 -21.3561 -20.1085
   -19.9989 -19.9719 -18.8042 -18.4615 -18.3409 -17.2090 -17.0321 -16.9279
   -15.7774 -15.5716 -15.5435 -15.2288 -14.8597 -14.7941 -14.6871 -14.6861
   -14.6352 -14.5607 -14.5136 -14.4587 -14.4423 -14.3941 -14.3711 -14.3547
   -14.2734 -14.2568 -14.1874 -14.1514 -14.0217 -14.0112 -14.0014 -14.0006
   -13.9673 -13.9551 -13.9549 -13.9443 -13.8574 -13.7458  -8.7256  -8.6097
    -8.5311  -8.4941  -8.4804  -8.3876  -8.3016  -8.2996  -8.2580  -8.2529
    -8.2291  -8.2060  -8.2048  -8.1825  -8.1038  -8.1012  -8.0021  -7.9577
    -7.9344  -7.9319  -7.7966  -7.7809  -7.7622  -7.7176  -4.4465  -4.1584
    -3.9165  -3.6965  -3.5177  -3.5087  -3.3987  -3.3521  -3.2217  -3.1895
    -3.1283  -3.1276  -3.0662  -3.0486  -2.8922  -2.7945  -2.7170  -2.6764
    -2.4711  -2.3623  -2.3438  -2.3183  -2.2950  -2.2392  -2.2195  -2.1864
    -2.1453  -2.1007  -2.0638  -2.0302  -1.9503  -1.9463  -1.8889  -1.8624
    -1.8380  -1.6665  -1.6572  -1.6380  -1.6284  -1.5587  -1.4760  -1.4733
    -1.4633  -1.2622  -1.2400  -1.2297  -1.2176  -1.1955  -1.1819  -1.1636
    -1.0692  -0.9944  -0.9619  -0.9608  -0.9108  -0.9039  -0.9013  -0.8351
    -0.8257  -0.8053  -0.7921  -0.7427  -0.7356  -0.7251  -0.6375  -0.5994
    -0.5640  -0.5510  -0.4330  -0.4099  -0.3623  -0.2716  -0.2296  -0.0530
    -0.0430   0.1062   0.1262   0.2242   0.2242   0.2569   0.3914   0.3997
     0.4140   0.4594   0.4785   0.6264   0.6273   0.7941   0.7973   0.7981
     0.8391   0.8578   0.8722   0.9643   0.9999   1.0463   1.0543   1.0953
     1.1020   1.1325   1.1562   1.2209   1.2362   1.2495   1.2589   1.2628
     1.2917   1.2992   1.2996   1.3237   1.3318   1.3736   1.3766   1.4511
     1.5090   1.5596   1.5760   1.5782   1.6396   1.6889   1.6976   1.7154
     1.7368   1.7634   1.7646   1.8159   1.8408   1.8475   1.8754   1.9211
     1.9453   1.9929   2.0472   2.0528   2.0586   2.1211   2.1248   2.1632
     2.1659   2.3262   2.4690   2.4780   2.4936   2.5102   2.5547   2.6393
     2.6541   2.7285   2.7770   2.7947   3.0608   3.0676   3.2538   3.4104
     3.4927   3.5462   3.5927   3.6869   3.8090   3.9116   3.9230   4.1394
     4.7731   4.9396   5.0538   5.1922   5.3572   5.9158   6.3044   6.5279
     6.6526   6.6993   6.7935   6.8493   6.8723   6.9161   6.9747   7.5352
     7.6945   7.8419   8.0280   8.0414   8.1365   8.1735   8.7161   8.8541
     8.8619   9.0352   9.1411   9.3239   9.3592   9.3896   9.4118   9.4658
     9.4768   9.4904

     the Fermi energy is     2.6493 ev

!    total energy              =   -3711.13162124 Ry
     Harris-Foulkes estimate   =   -3711.13162125 Ry
     estimated scf accuracy    <          5.2E-09 Ry

     The total energy is the sum of the following terms:

     one-electron contribution =  -60715.02078094 Ry
     hartree contribution      =   30659.46982302 Ry
     xc contribution           =   -1263.34987843 Ry
     ewald contribution        =   27607.78285584 Ry
     smearing contrib. (-TS)   =      -0.01364073 Ry

     convergence has been achieved in  38 iterations

     negative rho (up, down):  9.119E-02 0.000E+00

     Forces acting on atoms (cartesian axes, Ry/au):

     atom    1 type  4   force =    -0.00001092    0.00000000   -0.00011579
     atom    2 type  4   force =     0.00001092    0.00000000   -0.00011579
     atom    3 type  3   force =    -0.00001777    0.00000000   -0.00000282
     atom    4 type  3   force =     0.00001777    0.00000000   -0.00000282
     atom    5 type  4   force =    -0.00000309    0.00000000   -0.00004119
     atom    6 type  4   force =     0.00000309    0.00000000   -0.00004119
     atom    7 type  1   force =     0.00000000    0.00000000   -0.00011337
     atom    8 type  1   force =     0.00000000    0.00000000   -0.00010054
     atom    9 type  3   force =     0.00002767    0.00000000   -0.00004646
     atom   10 type  3   force =    -0.00002767    0.00000000   -0.00004646
     atom   11 type  4   force =     0.00000000    0.00000000    0.00013406
     atom   12 type  4   force =    -0.00000211    0.00000000    0.00006234
     atom   13 type  4   force =     0.00000211    0.00000000    0.00006234
     atom   14 type  4   force =     0.00000000    0.00000000    0.00019360
     atom   15 type  2   force =     0.00000000    0.00000000   -0.00050864
     atom   16 type  5   force =     0.00000000    0.00000000   -0.00078170
     atom   17 type  4   force =     0.00009689    0.00000000    0.00084505
     atom   18 type  4   force =    -0.00009689    0.00000000    0.00084505
     atom   19 type  4   force =     0.00000000    0.00000000    0.00093774
     atom   20 type  4   force =     0.00000000    0.00000000    0.00120401
     atom   21 type  3   force =    -0.00004747    0.00000000   -0.00128730
     atom   22 type  3   force =     0.00004747    0.00000000   -0.00128730
     atom   23 type  1   force =     0.00000000    0.00000000   -0.00222931
     atom   24 type  1   force =     0.00000000    0.00000000   -0.00234558
     atom   25 type  4   force =    -0.00024262    0.00000000    0.00405580
     atom   26 type  4   force =     0.00024262    0.00000000    0.00405580
     atom   27 type  4   force =    -0.00044174    0.00000000    0.00479926
     atom   28 type  4   force =     0.00044174    0.00000000    0.00479926
     atom   29 type  3   force =     0.00189007    0.00000000   -0.00951471
     atom   30 type  3   force =    -0.00189007    0.00000000   -0.00951471
     atom   31 type  4   force =    -0.00051223    0.00000000    0.01423410
     atom   32 type  4   force =     0.00051223    0.00000000    0.01423410
     atom   33 type  1   force =     0.00000000    0.00000000   -0.02460897
     atom   34 type  1   force =     0.00000000    0.00000000   -0.01861645
     atom   35 type  3   force =    -0.00082774    0.00000000    0.00809784
     atom   36 type  3   force =     0.00082774    0.00000000    0.00809784
     atom   37 type  4   force =     0.00000000    0.00000000    0.05680616
     atom   38 type  4   force =     0.00000000    0.00000000    0.07335342
     atom   39 type  4   force =     0.02120467    0.00000000    0.06912134
     atom   40 type  4   force =    -0.02120467    0.00000000    0.06912134
     atom   41 type  5   force =     0.00000000    0.00000000   -0.13092364
     atom   42 type  2   force =     0.00000000    0.00000000   -0.07405919
     atom   43 type  4   force =     0.00000000    0.00000000    0.01247700
     atom   44 type  4   force =    -0.00150027    0.00000000    0.00426587
     atom   45 type  4   force =     0.00150027    0.00000000    0.00426587
     atom   46 type  4   force =     0.00000000    0.00000000    0.01428616
     atom   47 type  3   force =    -0.00043300    0.00000000   -0.01853005
     atom   48 type  3   force =     0.00043300    0.00000000   -0.01853005
     atom   49 type  1   force =     0.00000000    0.00000000   -0.02323228
     atom   50 type  1   force =     0.00000000    0.00000000   -0.02887342
     atom   51 type  4   force =     0.00109386    0.00000000   -0.00292604
     atom   52 type  4   force =    -0.00109386    0.00000000   -0.00292604
     atom   53 type  3   force =    -0.00023126    0.00000000    0.00076717
     atom   54 type  3   force =     0.00023126    0.00000000    0.00076717
     atom   55 type  4   force =     0.00008990    0.00000000   -0.00028396
     atom   56 type  4   force =    -0.00008990    0.00000000   -0.00028396

     Total force =     0.214353     Total SCF correction =     0.000391


     Computing stress (Cartesian axis) and pressure


     negative rho (up, down):  9.119E-02 0.000E+00
          total   stress  (Ry/bohr**3)                   (kbar)     P=       -8.09
  -0.00001960   0.00000000   0.00000000           -2.88        0.00        0.00
   0.00000000   0.00000000   0.00000000            0.00        0.00        0.00
   0.00000000   0.00000000  -0.00014547            0.00        0.00      -21.40

 
     init_run     :     27.18s CPU     27.84s WALL (       1 calls)
     electrons    :   2020.47s CPU   2092.10s WALL (       1 calls)
     forces       :     11.01s CPU     11.31s WALL (       1 calls)
     stress       :    105.16s CPU    106.11s WALL (       1 calls)

     Called by init_run:
     wfcinit      :     22.19s CPU     22.47s WALL (       1 calls)
     potinit      :      1.14s CPU      1.16s WALL (       1 calls)
     hinit0       :      1.63s CPU      1.65s WALL (       1 calls)

     Called by electrons:
     c_bands      :   1673.29s CPU   1705.70s WALL (      38 calls)
     sum_band     :    259.95s CPU    282.48s WALL (      38 calls)
     v_of_rho     :      6.18s CPU      6.26s WALL (      39 calls)
     newd         :     39.49s CPU     56.01s WALL (      39 calls)
     mix_rho      :     42.11s CPU     42.47s WALL (      38 calls)

     Called by c_bands:
     init_us_2    :     17.66s CPU     17.73s WALL (    1975 calls)
     cegterg      :   1588.34s CPU   1619.60s WALL (     950 calls)

     Called by sum_band:
     sum_band:bec :      1.22s CPU      1.23s WALL (     950 calls)
     addusdens    :     39.17s CPU     59.53s WALL (      38 calls)

     Called by *egterg:
     h_psi        :    793.84s CPU    806.96s WALL (    4706 calls)
     s_psi        :    110.24s CPU    110.73s WALL (    4706 calls)
     g_psi        :      1.66s CPU      1.68s WALL (    3731 calls)
     cdiaghg      :    352.26s CPU    353.52s WALL (    4681 calls)

     Called by h_psi:
     h_psi:calbec :    121.46s CPU    121.89s WALL (    4706 calls)
     vloc_psi     :    558.37s CPU    565.35s WALL (    4706 calls)
     add_vuspsi   :    110.63s CPU    111.11s WALL (    4706 calls)

     General routines
     calbec       :    200.14s CPU    200.81s WALL (    5781 calls)
     fft          :      5.62s CPU      5.64s WALL (     530 calls)
     ffts         :     22.17s CPU     22.38s WALL (   21586 calls)
     fftw         :    637.66s CPU    645.55s WALL ( 1340104 calls)
     interpolate  :      0.57s CPU      0.57s WALL (      39 calls)
 
     Parallel routines
     fft_scatt_xy :     77.86s CPU     78.89s WALL ( 1362220 calls)
     fft_scatt_yz :    375.71s CPU    380.45s WALL ( 1362220 calls)
 
     PWSCF        :  36m 4.88s CPU  37m18.48s WALL

 
   This run was terminated on:  10:43: 1  28May2021            

=------------------------------------------------------------------------------=
   JOB DONE.
=------------------------------------------------------------------------------=
[1622212981.508855] [holy7c06104:55923:0]          mpool.c:43   UCX  WARN  object 0x32a6300 was not returned to mpool ucp_requests
[1622212981.508873] [holy7c06104:55923:0]          mpool.c:43   UCX  WARN  object 0x32a6840 was not returned to mpool ucp_requests
[1622212981.512112] [holy7c04512:61276:0]          mpool.c:43   UCX  WARN  object 0x297a340 was not returned to mpool ucp_requests
[1622212981.512138] [holy7c04512:61276:0]          mpool.c:43   UCX  WARN  object 0x297a6c0 was not returned to mpool ucp_requests
[1622212981.512745] [holy7c04509:183512:0]          mpool.c:43   UCX  WARN  object 0x3d046c0 was not returned to mpool ucp_requests
[1622212981.522349] [holy7c06108:173508:0]          mpool.c:43   UCX  WARN  object 0x3150c00 was not returned to mpool ucp_requests
[1622212981.519282] [holy7c06101:198468:0]          mpool.c:43   UCX  WARN  object 0x2c51d80 was not returned to mpool ucp_requests
[1622212981.517883] [holy7c04512:61275:0]          mpool.c:43   UCX  WARN  object 0x43b7800 was not returned to mpool ucp_requests
[1622212981.513946] [holy7c06107:172390:0]          mpool.c:43   UCX  WARN  object 0x3dc9c40 was not returned to mpool ucp_requests
[1622212981.523901] [holy7c06108:173507:0]          mpool.c:43   UCX  WARN  object 0x2f4dc40 was not returned to mpool ucp_requests
[1622212981.520292] [holy7c06101:198472:0]          mpool.c:43   UCX  WARN  object 0x340e340 was not returned to mpool ucp_requests
[1622212981.524338] [holy7c06101:198467:0]          mpool.c:43   UCX  WARN  object 0x433c840 was not returned to mpool ucp_requests
[1622212981.524362] [holy7c06101:198467:0]          mpool.c:43   UCX  WARN  object 0x433cd80 was not returned to mpool ucp_requests
[1622212981.530985] [holy7c06101:198469:0]          mpool.c:43   UCX  WARN  object 0x3838680 was not returned to mpool ucp_requests
[1622212981.531009] [holy7c06101:198469:0]          mpool.c:43   UCX  WARN  object 0x3838840 was not returned to mpool ucp_requests
[1622212981.523087] [holy7c06107:172391:0]          mpool.c:43   UCX  WARN  object 0x4580b00 was not returned to mpool ucp_requests
[1622212981.525981] [holy7c06107:172393:0]          mpool.c:43   UCX  WARN  object 0x34e0100 was not returned to mpool ucp_requests
[1622212981.525998] [holy7c06107:172393:0]          mpool.c:43   UCX  WARN  object 0x34e0800 was not returned to mpool ucp_requests
