
     Program PWSCF v.6.5 starts on 28May2021 at 10: 0:21 

     This program is part of the open-source Quantum ESPRESSO suite
     for quantum simulation of materials; please cite
         "P. Giannozzi et al., J. Phys.:Condens. Matter 21 395502 (2009);
         "P. Giannozzi et al., J. Phys.:Condens. Matter 29 465901 (2017);
          URL http://www.quantum-espresso.org", 
     in publications or presentations arising from this work. More details at
     http://www.quantum-espresso.org/quote

     Parallel version (MPI), running on    32 processors

     MPI processes distributed on     6 nodes
     R & G space division:  proc/nbgrp/npool/nimage =      32
     Reading input from YCBCO50_212_CuO_cleave_1.75_sep.pwi
Warning: card &IONS ignored
Warning: card     ION_DYNAMICS = 'BFGS' ignored
Warning: card / ignored
Warning: card &CELL ignored
Warning: card     CELL_DYNAMICS = 'BFGS' ignored
Warning: card     PRESS_CONV_THR = 5 ignored
Warning: card / ignored

     Current dimensions of program PWSCF are:
     Max number of different atomic species (ntypx) = 10
     Max number of k-points (npk) =  40000
     Max angular momentum in pseudopotentials (lmaxx) =  3

     Subspace diagonalization in iterative solution of the eigenvalue problem:
     one sub-group per band group will be used
     scalapack distributed-memory algorithm (size of sub-group:  5*  5 procs)

     Message from routine setup:
     using ibrav=0 with symmetry is DISCOURAGED, use correct ibrav instead
 
     Parallelization info
     --------------------
     sticks:   dense  smooth     PW     G-vecs:    dense   smooth      PW
     Min         188      62     17                92390    17770    2651
     Max         189      63     18                92418    17815    2690
     Sum        6019    2003    565              2956985   569373   85611
 


     bravais-lattice index     =            0
     lattice parameter (alat)  =      14.8133  a.u.
     unit-cell volume          =    9063.7339 (a.u.)^3
     number of atoms/cell      =           56
     number of atomic types    =            5
     number of electrons       =       456.00
     number of Kohn-Sham states=          274
     kinetic-energy cutoff     =      60.0000  Ry
     charge density cutoff     =     720.0000  Ry
     convergence threshold     =      1.0E-08
     mixing beta               =       0.5000
     number of iterations used =           10  local-TF  mixing
     Exchange-correlation= SLA PW PBE PBE
                           (   1   4   3   4   0   0   0)

     celldm(1)=  14.813271  celldm(2)=   0.000000  celldm(3)=   0.000000
     celldm(4)=   0.000000  celldm(5)=   0.000000  celldm(6)=   0.000000

     crystal axes: (cart. coord. in units of alat)
               a(1) = (   1.000000   0.000000   0.000000 )  
               a(2) = (   0.000000   0.477453   0.000000 )  
               a(3) = (   0.000000   0.000000   5.840148 )  

     reciprocal axes: (cart. coord. in units 2 pi/alat)
               b(1) = (  1.000000  0.000000  0.000000 )  
               b(2) = (  0.000000  2.094448  0.000000 )  
               b(3) = (  0.000000  0.000000  0.171229 )  


     PseudoPot. # 1 for Ba read from file:
     ./pseudo/Ba.pbe-nsp-van.UPF
     MD5 check sum: 2b9c31dd849566dd297d80989662b7a0
     Pseudo is Ultrasoft + core correction, Zval = 10.0
     Generated by new atomic code, or converted to UPF format
     Using radial grid of  907 points,  6 beta functions with: 
                l(1) =   0
                l(2) =   0
                l(3) =   1
                l(4) =   1
                l(5) =   2
                l(6) =   2
     Q(r) pseudized with  6 coefficients,  rinner =    1.200   1.200   1.200
                                                       1.200   1.200

     PseudoPot. # 2 for Ca read from file:
     ./pseudo/Ca.pbe-nsp-van.UPF
     MD5 check sum: 6471098428ff4fa451746d08035ff179
     Pseudo is Ultrasoft + core correction, Zval = 10.0
     Generated by new atomic code, or converted to UPF format
     Using radial grid of  845 points,  6 beta functions with: 
                l(1) =   0
                l(2) =   0
                l(3) =   1
                l(4) =   1
                l(5) =   2
                l(6) =   2
     Q(r) pseudized with  6 coefficients,  rinner =    1.200   1.200   1.200
                                                       1.200   1.200

     PseudoPot. # 3 for Cu read from file:
     ./pseudo/Cu.pbe-n-van_ak.UPF
     MD5 check sum: 34e3282627ffb533726feb647e090d62
     Pseudo is Ultrasoft + core correction, Zval = 11.0
     Generated by new atomic code, or converted to UPF format
     Using radial grid of  867 points,  6 beta functions with: 
                l(1) =   0
                l(2) =   0
                l(3) =   1
                l(4) =   1
                l(5) =   2
                l(6) =   2
     Q(r) pseudized with  8 coefficients,  rinner =    1.400   1.400   1.400
                                                       1.400   1.400

     PseudoPot. # 4 for O  read from file:
     ./pseudo/O.pbe-van_ak.UPF
     MD5 check sum: 783ce7fe4c79b6a4916957118fed0856
     Pseudo is Ultrasoft, Zval =  6.0
     Generated by new atomic code, or converted to UPF format
     Using radial grid of  737 points,  4 beta functions with: 
                l(1) =   0
                l(2) =   0
                l(3) =   1
                l(4) =   1
     Q(r) pseudized with  8 coefficients,  rinner =    0.800   0.800   0.800


     PseudoPot. # 5 for Y  read from file:
     ./pseudo/Y.pbe-nsp-van.UPF
     MD5 check sum: 4412fed3ab108fed87a1b7d6a69a4a38
     Pseudo is Ultrasoft + core correction, Zval = 11.0
     Generated by new atomic code, or converted to UPF format
     Using radial grid of  885 points,  6 beta functions with: 
                l(1) =   0
                l(2) =   0
                l(3) =   1
                l(4) =   1
                l(5) =   2
                l(6) =   2
     Q(r) pseudized with  6 coefficients,  rinner =    1.200   1.200   1.200
                                                       1.200   1.200

     atomic species   valence    mass     pseudopotential
        Ba            10.00   137.32700     Ba( 1.00)
        Ca            10.00    40.07800     Ca( 1.00)
        Cu            11.00    63.54600     Cu( 1.00)
        O              6.00    15.99900     O ( 1.00)
        Y             11.00    88.90584     Y ( 1.00)

      4 Sym. Ops. (no inversion) found ( 2 have fractional translation)



   Cartesian axes

     site n.     atom                  positions (alat units)
         1           O   tau(   1) = (  -0.0008343   0.2387265  -0.0222443  )
         2           O   tau(   2) = (   0.5008340   0.2387265  -0.0222443  )
         3           Cu  tau(   3) = (   0.5017257   0.0000000   0.0109608  )
         4           Cu  tau(   4) = (  -0.0017260   0.0000000   0.0109608  )
         5           O   tau(   5) = (  -0.0028933   0.0000000   0.2506504  )
         6           O   tau(   6) = (   0.5028929   0.0000000   0.2506504  )
         7           Ba  tau(   7) = (   0.7499995   0.2387265   0.2749435  )
         8           Ba  tau(   8) = (   0.2499998   0.2387265   0.2755214  )
         9           Cu  tau(   9) = (   0.4980963   0.0000000   0.5208446  )
        10           Cu  tau(  10) = (   0.0019033   0.0000000   0.5208446  )
        11           O   tau(  11) = (   0.2499998   0.0000000   0.5341884  )
        12           O   tau(  12) = (   0.5083351   0.2387265   0.5569851  )
        13           O   tau(  13) = (  -0.0083354   0.2387265   0.5569851  )
        14           O   tau(  14) = (   0.7499995   0.0000000   0.5573831  )
        15           Ca  tau(  15) = (   0.2499998   0.2387265   0.7436937  )
        16           Y   tau(  16) = (   0.7499995   0.2387265   0.7469544  )
        17           O   tau(  17) = (  -0.0063798   0.2387265   0.9248530  )
        18           O   tau(  18) = (   0.5063794   0.2387265   0.9248530  )
        19           O   tau(  19) = (   0.7499995   0.0000000   0.9338544  )
        20           O   tau(  20) = (   0.2499998   0.0000000   0.9461329  )
        21           Cu  tau(  21) = (   0.0015717   0.0000000   0.9686860  )
        22           Cu  tau(  22) = (   0.4984280   0.0000000   0.9686860  )
        23           Ba  tau(  23) = (   0.2499998   0.2387265   1.2085224  )
        24           Ba  tau(  24) = (   0.7499995   0.2387265   1.2233294  )
        25           O   tau(  25) = (   0.0063772   0.0000000   1.2547537  )
        26           O   tau(  26) = (   0.4936224   0.0000000   1.2547537  )
        27           O   tau(  27) = (   0.5384045   0.2387265   1.4952521  )
        28           O   tau(  28) = (  -0.0384049   0.2387265   1.4952521  )
        29           Cu  tau(  29) = (   0.5006120   0.0000000   1.4952546  )
        30           Cu  tau(  30) = (  -0.0006123   0.0000000   1.4952546  )
        31           O   tau(  31) = (   0.4936212   0.0000000   1.9590002  )
        32           O   tau(  32) = (   0.0063785   0.0000000   1.9590002  )
        33           Ba  tau(  33) = (   0.7499995   0.2387265   1.9904296  )
        34           Ba  tau(  34) = (   0.2499998   0.2387265   2.0052392  )
        35           Cu  tau(  35) = (   0.4984280   0.0000000   2.2450704  )
        36           Cu  tau(  36) = (   0.0015717   0.0000000   2.2450704  )
        37           O   tau(  37) = (   0.2499998   0.0000000   2.2676286  )
        38           O   tau(  38) = (   0.7499995   0.0000000   2.2798982  )
        39           O   tau(  39) = (   0.5063781   0.2387265   2.2889034  )
        40           O   tau(  40) = (  -0.0063785   0.2387265   2.2889034  )
        41           Y   tau(  41) = (   0.7499995   0.2387265   2.4667969  )
        42           Ca  tau(  42) = (   0.2499998   0.2387265   2.4700665  )
        43           O   tau(  43) = (   0.7499995   0.0000000   2.6563644  )
        44           O   tau(  44) = (  -0.0083354   0.2387265   2.6567662  )
        45           O   tau(  45) = (   0.5083351   0.2387265   2.6567662  )
        46           O   tau(  46) = (   0.2499998   0.0000000   2.6795642  )
        47           Cu  tau(  47) = (   0.0019059   0.0000000   2.6928978  )
        48           Cu  tau(  48) = (   0.4980938   0.0000000   2.6928978  )
        49           Ba  tau(  49) = (   0.2499998   0.2387265   2.9382375  )
        50           Ba  tau(  50) = (   0.7499995   0.2387265   2.9387797  )
        51           O   tau(  51) = (  -0.0028895   0.0000000   2.9630869  )
        52           O   tau(  52) = (   0.5028891   0.0000000   2.9630869  )
        53           Cu  tau(  53) = (   0.5017844   0.0000000   3.2027714  )
        54           Cu  tau(  54) = (  -0.0017847   0.0000000   3.2027714  )
        55           O   tau(  55) = (   0.5008990   0.2387265   3.2359778  )
        56           O   tau(  56) = (  -0.0008994   0.2387265   3.2359778  )

     number of k points=    25  Gaussian smearing, width (Ry)=  0.0100
                       cart. coord. in units 2pi/alat
        k(    1) = (   0.0000000   0.0000000   0.0000000), wk =   0.0312500
        k(    2) = (   0.0000000   0.2618060   0.0000000), wk =   0.0625000
        k(    3) = (   0.0000000   0.5236121   0.0000000), wk =   0.0625000
        k(    4) = (   0.0000000   0.7854181   0.0000000), wk =   0.0625000
        k(    5) = (   0.0000000  -1.0472241   0.0000000), wk =   0.0312500
        k(    6) = (   0.1250000   0.0000000   0.0000000), wk =   0.0625000
        k(    7) = (   0.1250000   0.2618060   0.0000000), wk =   0.1250000
        k(    8) = (   0.1250000   0.5236121   0.0000000), wk =   0.1250000
        k(    9) = (   0.1250000   0.7854181   0.0000000), wk =   0.1250000
        k(   10) = (   0.1250000  -1.0472241   0.0000000), wk =   0.0625000
        k(   11) = (   0.2500000   0.0000000   0.0000000), wk =   0.0625000
        k(   12) = (   0.2500000   0.2618060   0.0000000), wk =   0.1250000
        k(   13) = (   0.2500000   0.5236121   0.0000000), wk =   0.1250000
        k(   14) = (   0.2500000   0.7854181   0.0000000), wk =   0.1250000
        k(   15) = (   0.2500000  -1.0472241   0.0000000), wk =   0.0625000
        k(   16) = (   0.3750000   0.0000000   0.0000000), wk =   0.0625000
        k(   17) = (   0.3750000   0.2618060   0.0000000), wk =   0.1250000
        k(   18) = (   0.3750000   0.5236121   0.0000000), wk =   0.1250000
        k(   19) = (   0.3750000   0.7854181   0.0000000), wk =   0.1250000
        k(   20) = (   0.3750000  -1.0472241   0.0000000), wk =   0.0625000
        k(   21) = (  -0.5000000   0.0000000   0.0000000), wk =   0.0312500
        k(   22) = (  -0.5000000   0.2618060   0.0000000), wk =   0.0625000
        k(   23) = (  -0.5000000   0.5236121   0.0000000), wk =   0.0625000
        k(   24) = (  -0.5000000   0.7854181   0.0000000), wk =   0.0625000
        k(   25) = (  -0.5000000  -1.0472241   0.0000000), wk =   0.0312500

     Dense  grid:  2956985 G-vectors     FFT dimensions: ( 128,  64, 750)

     Smooth grid:   569373 G-vectors     FFT dimensions: (  80,  36, 432)

     Estimated max dynamical RAM per process >     856.47 MB

     Estimated total dynamical RAM >      26.76 GB

     Initial potential from superposition of free atoms

     starting charge  455.69457, renormalised to  456.00000

     negative rho (up, down):  9.299E-02 0.000E+00
     Starting wfcs are  396 randomized atomic wfcs

     total cpu time spent up to now is       26.7 secs

     Self-consistent Calculation

     iteration #  1     ecut=    60.00 Ry     beta= 0.50
     Davidson diagonalization with overlap
     ethr =  1.00E-02,  avg # of iterations =  2.0

     negative rho (up, down):  8.607E-02 0.000E+00

     total cpu time spent up to now is       73.8 secs

     total energy              =   -3708.23078730 Ry
     Harris-Foulkes estimate   =   -3716.40431480 Ry
     estimated scf accuracy    <      31.11563493 Ry

     iteration #  2     ecut=    60.00 Ry     beta= 0.50
     Davidson diagonalization with overlap
     ethr =  6.82E-03,  avg # of iterations =  2.0

     negative rho (up, down):  8.584E-02 0.000E+00

     total cpu time spent up to now is      120.8 secs

     total energy              =   -3710.96325784 Ry
     Harris-Foulkes estimate   =   -3712.25886839 Ry
     estimated scf accuracy    <       6.44106053 Ry

     iteration #  3     ecut=    60.00 Ry     beta= 0.50
     Davidson diagonalization with overlap
     ethr =  1.41E-03,  avg # of iterations =  2.0

     negative rho (up, down):  8.621E-02 0.000E+00

     total cpu time spent up to now is      168.2 secs

     total energy              =   -3711.53654228 Ry
     Harris-Foulkes estimate   =   -3711.91946305 Ry
     estimated scf accuracy    <       9.51102980 Ry

     iteration #  4     ecut=    60.00 Ry     beta= 0.50
     Davidson diagonalization with overlap
     ethr =  1.41E-03,  avg # of iterations =  1.0

     negative rho (up, down):  8.699E-02 0.000E+00

     total cpu time spent up to now is      211.2 secs

     total energy              =   -3711.59595565 Ry
     Harris-Foulkes estimate   =   -3711.72038278 Ry
     estimated scf accuracy    <       2.14214258 Ry

     iteration #  5     ecut=    60.00 Ry     beta= 0.50
     Davidson diagonalization with overlap
     ethr =  4.70E-04,  avg # of iterations =  1.5

     negative rho (up, down):  8.801E-02 0.000E+00

     total cpu time spent up to now is      255.2 secs

     total energy              =   -3711.56819900 Ry
     Harris-Foulkes estimate   =   -3711.65640954 Ry
     estimated scf accuracy    <       1.48543573 Ry

     iteration #  6     ecut=    60.00 Ry     beta= 0.50
     Davidson diagonalization with overlap
     ethr =  3.26E-04,  avg # of iterations =  3.3

     negative rho (up, down):  8.919E-02 0.000E+00

     total cpu time spent up to now is      304.5 secs

     total energy              =   -3711.56390118 Ry
     Harris-Foulkes estimate   =   -3711.60708491 Ry
     estimated scf accuracy    <       1.37403242 Ry

     iteration #  7     ecut=    60.00 Ry     beta= 0.50
     Davidson diagonalization with overlap
     ethr =  3.01E-04,  avg # of iterations =  3.6

     negative rho (up, down):  9.003E-02 0.000E+00

     total cpu time spent up to now is      354.7 secs

     total energy              =   -3711.56313443 Ry
     Harris-Foulkes estimate   =   -3711.57978624 Ry
     estimated scf accuracy    <       0.41964122 Ry

     iteration #  8     ecut=    60.00 Ry     beta= 0.50
     Davidson diagonalization with overlap
     ethr =  9.20E-05,  avg # of iterations = 10.4

     negative rho (up, down):  9.043E-02 0.000E+00

     total cpu time spent up to now is      428.2 secs

     total energy              =   -3711.56384914 Ry
     Harris-Foulkes estimate   =   -3711.57396877 Ry
     estimated scf accuracy    <       0.39764889 Ry

     iteration #  9     ecut=    60.00 Ry     beta= 0.50
     Davidson diagonalization with overlap
     ethr =  8.72E-05,  avg # of iterations =  1.7

     negative rho (up, down):  9.055E-02 0.000E+00

     total cpu time spent up to now is      473.4 secs

     total energy              =   -3711.56073364 Ry
     Harris-Foulkes estimate   =   -3711.56742253 Ry
     estimated scf accuracy    <       0.19821223 Ry

     iteration # 10     ecut=    60.00 Ry     beta= 0.50
     Davidson diagonalization with overlap
     ethr =  4.35E-05,  avg # of iterations =  1.7

     negative rho (up, down):  9.040E-02 0.000E+00

     total cpu time spent up to now is      518.0 secs

     total energy              =   -3711.55459233 Ry
     Harris-Foulkes estimate   =   -3711.56267450 Ry
     estimated scf accuracy    <       0.18489066 Ry

     iteration # 11     ecut=    60.00 Ry     beta= 0.50
     Davidson diagonalization with overlap
     ethr =  4.05E-05,  avg # of iterations =  4.1

     negative rho (up, down):  9.011E-02 0.000E+00

     total cpu time spent up to now is      569.7 secs

     total energy              =   -3711.55129803 Ry
     Harris-Foulkes estimate   =   -3711.55639948 Ry
     estimated scf accuracy    <       0.12476720 Ry

     iteration # 12     ecut=    60.00 Ry     beta= 0.50
     Davidson diagonalization with overlap
     ethr =  2.74E-05,  avg # of iterations =  7.0

     negative rho (up, down):  8.973E-02 0.000E+00

     total cpu time spent up to now is      629.4 secs

     total energy              =   -3711.55153464 Ry
     Harris-Foulkes estimate   =   -3711.55254030 Ry
     estimated scf accuracy    <       0.06903935 Ry

     iteration # 13     ecut=    60.00 Ry     beta= 0.50
     Davidson diagonalization with overlap
     ethr =  1.51E-05,  avg # of iterations =  2.8

     negative rho (up, down):  9.050E-02 0.000E+00

     total cpu time spent up to now is      677.0 secs

     total energy              =   -3711.54959841 Ry
     Harris-Foulkes estimate   =   -3711.55210728 Ry
     estimated scf accuracy    <       0.09025343 Ry

     iteration # 14     ecut=    60.00 Ry     beta= 0.50
     Davidson diagonalization with overlap
     ethr =  1.51E-05,  avg # of iterations =  3.5

     negative rho (up, down):  9.094E-02 0.000E+00

     total cpu time spent up to now is      726.4 secs

     total energy              =   -3711.54842258 Ry
     Harris-Foulkes estimate   =   -3711.55007333 Ry
     estimated scf accuracy    <       0.08199457 Ry

     iteration # 15     ecut=    60.00 Ry     beta= 0.50
     Davidson diagonalization with overlap
     ethr =  1.51E-05,  avg # of iterations =  1.5

     negative rho (up, down):  1.004E-01 0.000E+00

     total cpu time spent up to now is      770.4 secs

     total energy              =   -3711.54700418 Ry
     Harris-Foulkes estimate   =   -3711.54890391 Ry
     estimated scf accuracy    <       0.09452990 Ry

     iteration # 16     ecut=    60.00 Ry     beta= 0.50
     Davidson diagonalization with overlap
     ethr =  1.51E-05,  avg # of iterations =  6.0

     negative rho (up, down):  1.323E-01 0.000E+00

     total cpu time spent up to now is      826.5 secs

     total energy              =   -3711.54384790 Ry
     Harris-Foulkes estimate   =   -3711.54723089 Ry
     estimated scf accuracy    <       0.05638063 Ry

     iteration # 17     ecut=    60.00 Ry     beta= 0.50
     Davidson diagonalization with overlap
     ethr =  1.24E-05,  avg # of iterations =  9.5

     negative rho (up, down):  1.281E-01 0.000E+00

     total cpu time spent up to now is      898.1 secs

     total energy              =   -3711.54344914 Ry
     Harris-Foulkes estimate   =   -3711.54455490 Ry
     estimated scf accuracy    <       0.01035517 Ry

     iteration # 18     ecut=    60.00 Ry     beta= 0.50
     Davidson diagonalization with overlap
     c_bands:  1 eigenvalues not converged
     c_bands:  1 eigenvalues not converged
     c_bands:  1 eigenvalues not converged
     ethr =  2.27E-06,  avg # of iterations =  9.9

     negative rho (up, down):  1.195E-01 0.000E+00

     total cpu time spent up to now is      967.2 secs

     total energy              =   -3711.54277934 Ry
     Harris-Foulkes estimate   =   -3711.54356498 Ry
     estimated scf accuracy    <       0.00644206 Ry

     iteration # 19     ecut=    60.00 Ry     beta= 0.50
     Davidson diagonalization with overlap
     c_bands:  1 eigenvalues not converged
     ethr =  1.41E-06,  avg # of iterations =  9.6

     negative rho (up, down):  1.100E-01 0.000E+00

     total cpu time spent up to now is     1035.2 secs

     total energy              =   -3711.54209431 Ry
     Harris-Foulkes estimate   =   -3711.54287827 Ry
     estimated scf accuracy    <       0.00357857 Ry

     iteration # 20     ecut=    60.00 Ry     beta= 0.50
     Davidson diagonalization with overlap
     c_bands:  1 eigenvalues not converged
     ethr =  7.85E-07,  avg # of iterations =  8.9

     negative rho (up, down):  1.024E-01 0.000E+00

     total cpu time spent up to now is     1102.5 secs

     total energy              =   -3711.54203731 Ry
     Harris-Foulkes estimate   =   -3711.54222444 Ry
     estimated scf accuracy    <       0.00102147 Ry

     iteration # 21     ecut=    60.00 Ry     beta= 0.50
     Davidson diagonalization with overlap
     c_bands:  1 eigenvalues not converged
     ethr =  2.24E-07,  avg # of iterations =  6.4

     negative rho (up, down):  9.701E-02 0.000E+00

     total cpu time spent up to now is     1160.2 secs

     total energy              =   -3711.54200868 Ry
     Harris-Foulkes estimate   =   -3711.54208525 Ry
     estimated scf accuracy    <       0.00099662 Ry

     iteration # 22     ecut=    60.00 Ry     beta= 0.50
     Davidson diagonalization with overlap
     c_bands:  1 eigenvalues not converged
     c_bands:  1 eigenvalues not converged
     ethr =  2.19E-07,  avg # of iterations =  6.9

     negative rho (up, down):  9.175E-02 0.000E+00

     total cpu time spent up to now is     1218.7 secs

     total energy              =   -3711.54204672 Ry
     Harris-Foulkes estimate   =   -3711.54203546 Ry
     estimated scf accuracy    <       0.00040247 Ry

     iteration # 23     ecut=    60.00 Ry     beta= 0.50
     Davidson diagonalization with overlap
     c_bands:  1 eigenvalues not converged
     c_bands:  1 eigenvalues not converged
     c_bands:  1 eigenvalues not converged
     c_bands:  1 eigenvalues not converged
     c_bands:  1 eigenvalues not converged
     c_bands:  2 eigenvalues not converged
     ethr =  8.83E-08,  avg # of iterations = 12.0

     negative rho (up, down):  9.124E-02 0.000E+00

     total cpu time spent up to now is     1293.1 secs

     total energy              =   -3711.54208813 Ry
     Harris-Foulkes estimate   =   -3711.54205660 Ry
     estimated scf accuracy    <       0.00006438 Ry

     iteration # 24     ecut=    60.00 Ry     beta= 0.50
     Davidson diagonalization with overlap
     c_bands:  1 eigenvalues not converged
     c_bands:  1 eigenvalues not converged
     ethr =  1.41E-08,  avg # of iterations =  5.8

     negative rho (up, down):  9.169E-02 0.000E+00

     total cpu time spent up to now is     1349.0 secs

     total energy              =   -3711.54209949 Ry
     Harris-Foulkes estimate   =   -3711.54209169 Ry
     estimated scf accuracy    <       0.00004016 Ry

     iteration # 25     ecut=    60.00 Ry     beta= 0.50
     Davidson diagonalization with overlap
     ethr =  8.81E-09,  avg # of iterations =  2.0

     negative rho (up, down):  9.141E-02 0.000E+00

     total cpu time spent up to now is     1394.8 secs

     total energy              =   -3711.54210590 Ry
     Harris-Foulkes estimate   =   -3711.54210073 Ry
     estimated scf accuracy    <       0.00003264 Ry

     iteration # 26     ecut=    60.00 Ry     beta= 0.50
     Davidson diagonalization with overlap
     c_bands:  1 eigenvalues not converged
     ethr =  7.16E-09,  avg # of iterations =  4.6

     negative rho (up, down):  9.125E-02 0.000E+00

     total cpu time spent up to now is     1446.9 secs

     total energy              =   -3711.54210602 Ry
     Harris-Foulkes estimate   =   -3711.54210650 Ry
     estimated scf accuracy    <       0.00001691 Ry

     iteration # 27     ecut=    60.00 Ry     beta= 0.50
     Davidson diagonalization with overlap
     ethr =  3.71E-09,  avg # of iterations =  1.2

     negative rho (up, down):  9.162E-02 0.000E+00

     total cpu time spent up to now is     1489.9 secs

     total energy              =   -3711.54210553 Ry
     Harris-Foulkes estimate   =   -3711.54210640 Ry
     estimated scf accuracy    <       0.00000608 Ry

     iteration # 28     ecut=    60.00 Ry     beta= 0.50
     Davidson diagonalization with overlap
     ethr =  1.33E-09,  avg # of iterations =  1.7

     negative rho (up, down):  9.157E-02 0.000E+00

     total cpu time spent up to now is     1534.3 secs

     total energy              =   -3711.54210571 Ry
     Harris-Foulkes estimate   =   -3711.54210578 Ry
     estimated scf accuracy    <       0.00000760 Ry

     iteration # 29     ecut=    60.00 Ry     beta= 0.50
     Davidson diagonalization with overlap
     ethr =  1.33E-09,  avg # of iterations =  1.0

     negative rho (up, down):  9.180E-02 0.000E+00

     total cpu time spent up to now is     1577.0 secs

     total energy              =   -3711.54210526 Ry
     Harris-Foulkes estimate   =   -3711.54210590 Ry
     estimated scf accuracy    <       0.00000144 Ry

     iteration # 30     ecut=    60.00 Ry     beta= 0.50
     Davidson diagonalization with overlap
     ethr =  3.15E-10,  avg # of iterations =  2.9

     negative rho (up, down):  9.184E-02 0.000E+00

     total cpu time spent up to now is     1625.3 secs

     total energy              =   -3711.54210527 Ry
     Harris-Foulkes estimate   =   -3711.54210537 Ry
     estimated scf accuracy    <       0.00000158 Ry

     iteration # 31     ecut=    60.00 Ry     beta= 0.50
     Davidson diagonalization with overlap
     ethr =  3.15E-10,  avg # of iterations =  1.0

     negative rho (up, down):  9.185E-02 0.000E+00

     total cpu time spent up to now is     1668.3 secs

     total energy              =   -3711.54210527 Ry
     Harris-Foulkes estimate   =   -3711.54210529 Ry
     estimated scf accuracy    <       0.00000071 Ry

     iteration # 32     ecut=    60.00 Ry     beta= 0.50
     Davidson diagonalization with overlap
     ethr =  1.55E-10,  avg # of iterations =  1.0

     negative rho (up, down):  9.191E-02 0.000E+00

     total cpu time spent up to now is     1711.0 secs

     total energy              =   -3711.54210517 Ry
     Harris-Foulkes estimate   =   -3711.54210528 Ry
     estimated scf accuracy    <       0.00000013 Ry

     iteration # 33     ecut=    60.00 Ry     beta= 0.50
     Davidson diagonalization with overlap
     ethr =  2.87E-11,  avg # of iterations =  2.9

     negative rho (up, down):  9.191E-02 0.000E+00

     total cpu time spent up to now is     1759.3 secs

     total energy              =   -3711.54210519 Ry
     Harris-Foulkes estimate   =   -3711.54210518 Ry
     estimated scf accuracy    <       0.00000005 Ry

     iteration # 34     ecut=    60.00 Ry     beta= 0.50
     Davidson diagonalization with overlap
     ethr =  1.08E-11,  avg # of iterations =  1.7

     negative rho (up, down):  9.193E-02 0.000E+00

     total cpu time spent up to now is     1803.6 secs

     total energy              =   -3711.54210516 Ry
     Harris-Foulkes estimate   =   -3711.54210519 Ry
     estimated scf accuracy    <       0.00000002 Ry

     iteration # 35     ecut=    60.00 Ry     beta= 0.50
     Davidson diagonalization with overlap
     ethr =  3.59E-12,  avg # of iterations =  2.4

     negative rho (up, down):  9.193E-02 0.000E+00

     total cpu time spent up to now is     1849.5 secs

     End of self-consistent calculation

          k = 0.0000 0.0000 0.0000 ( 71173 PWs)   bands (ev):

   -38.2774 -38.2176 -35.9115 -35.8434 -23.0246 -23.0144 -22.9615 -22.8963
   -22.8861 -22.8626 -22.6969 -22.4526 -18.7506 -18.6992 -18.6503 -18.5919
   -18.2813 -18.2205 -17.2576 -17.1920 -17.1241 -17.0599 -16.9427 -16.8715
   -15.6551 -15.6152 -15.1978 -15.1797 -14.9807 -14.8692 -14.8099 -14.8034
   -14.7610 -14.7287 -14.6721 -14.6624 -14.6513 -14.6324 -14.5182 -14.5071
   -14.3411 -14.3008 -14.2288 -14.2001 -14.1915 -14.1898 -14.1844 -14.1752
   -14.1441 -14.0727 -13.9969 -13.9391 -13.0761 -12.6125  -8.2824  -8.2634
    -8.2459  -8.1556  -8.1432  -8.1014  -8.0737  -8.0641  -7.9690  -7.9356
    -7.9257  -7.8727  -7.8391  -7.8298  -7.8241  -7.7482  -7.7475  -7.6977
    -7.6957  -7.6941  -7.6877  -7.5152  -7.2980  -7.1943  -3.2025  -3.1809
    -3.0859  -2.9938  -2.3778  -2.3721  -2.2891  -2.2872  -2.2849  -2.2526
    -2.1401  -2.0909  -2.0829  -2.0563  -2.0496  -2.0180  -1.9912  -1.9723
    -1.9222  -1.8875  -1.8794  -1.8284  -1.7732  -1.7204  -1.5808  -1.5532
    -1.3918  -1.3449  -1.3310  -1.3081  -1.2434  -1.1735  -1.1412  -1.1274
    -1.1235  -1.1219  -1.1154  -1.1132  -1.0889  -1.0879  -1.0232  -0.9525
    -0.8982  -0.8915  -0.6468  -0.6047  -0.5364  -0.4716  -0.4608  -0.4525
    -0.4501  -0.4430  -0.4234  -0.4060  -0.3948  -0.3747  -0.3398  -0.3350
    -0.3334  -0.3332  -0.3158  -0.2778  -0.2503  -0.1805  -0.1586  -0.1474
    -0.1470  -0.1426  -0.1263  -0.1182  -0.0744  -0.0617  -0.0530  -0.0291
    -0.0269  -0.0265  -0.0239   0.0278   0.0715   0.0787   0.0987   0.1111
     0.1180   0.1244   0.1619   0.1958   0.2058   0.2214   0.2745   0.3166
     0.3531   0.3777   0.3809   0.3820   0.3950   0.4062   0.4107   0.4120
     0.5728   0.5999   0.6670   0.7265   0.7465   0.7833   0.8348   0.8461
     0.8605   0.8813   0.8858   0.9217   1.0006   1.0323   1.0457   1.0642
     1.0673   1.0729   1.0732   1.0785   1.1564   1.1797   1.1894   1.2239
     1.2282   1.2373   1.2517   1.2787   1.3119   1.3324   1.4028   1.4527
     1.4651   1.4968   1.5649   1.5713   1.5774   1.6374   1.6393   1.6443
     1.6764   1.6976   1.7120   1.7544   1.7970   1.9064   1.9185   1.9840
     2.0791   2.0847   2.2069   2.2504   2.2551   2.3270   2.3357   2.4316
     2.4334   2.4620   2.4728   2.5085   2.7109   2.7596   4.8569   5.0847
     5.1062   5.7543   5.8553   6.4500   6.4793   6.5769   6.7407   6.8107
     6.9542   7.1251   7.1358   7.2217   7.2286   7.3759   7.4312   7.8003
     7.8990   7.9449   7.9920   8.0020   8.0825   8.2987   8.3378   8.3382
     8.3637   8.4379   8.4948   8.5701   8.8343   8.9400   8.9895   9.0044
     9.0929   9.1721

          k = 0.0000 0.2618 0.0000 ( 71195 PWs)   bands (ev):

   -38.2747 -38.2149 -35.9098 -35.8417 -23.0001 -22.9898 -22.9426 -22.8772
   -22.8670 -22.8388 -22.6779 -22.4320 -18.7120 -18.6604 -18.6430 -18.5846
   -18.3920 -18.3318 -17.2282 -17.1625 -17.1198 -17.0556 -17.0086 -16.9376
   -15.5490 -15.5094 -15.1420 -15.1239 -14.9263 -14.8310 -14.7991 -14.7651
   -14.7571 -14.6598 -14.6424 -14.6385 -14.6021 -14.5864 -14.4837 -14.4719
   -14.3359 -14.2968 -14.2899 -14.2466 -14.2082 -14.1794 -14.1779 -14.1739
   -14.1676 -14.1092 -13.9887 -13.9793 -13.0296 -12.6766  -8.2713  -8.2567
    -8.2421  -8.1682  -8.1565  -8.1135  -8.0300  -8.0204  -7.9786  -7.9710
    -7.9681  -7.9614  -7.9603  -7.9049  -7.8950  -7.8680  -7.8361  -7.8201
    -7.7937  -7.7756  -7.7333  -7.7259  -7.3818  -7.3159  -3.3121  -3.2780
    -3.1403  -3.0491  -2.5044  -2.4914  -2.4656  -2.3968  -2.3913  -2.3849
    -2.2674  -2.2610  -2.2478  -2.2029  -2.1366  -2.0825  -2.0136  -1.9847
    -1.9337  -1.9176  -1.8875  -1.8587  -1.8282  -1.8095  -1.7014  -1.6556
    -1.6509  -1.6378  -1.5724  -1.5629  -1.5609  -1.5392  -1.5373  -1.5280
    -1.4921  -1.4160  -1.2114  -1.0619  -1.0295  -0.9894  -0.9226  -0.9084
    -0.8575  -0.7877  -0.7753  -0.7687  -0.7097  -0.7029  -0.5507  -0.5444
    -0.5208  -0.4992  -0.4847  -0.4739  -0.4606  -0.4466  -0.3996  -0.3770
    -0.3717  -0.3558  -0.2968  -0.2910  -0.2065  -0.1880  -0.1706  -0.1402
    -0.1328  -0.0961  -0.0585  -0.0537  -0.0477  -0.0038  -0.0009   0.0092
     0.0163   0.0371   0.0402   0.0412   0.0853   0.1358   0.1396   0.1406
     0.1725   0.1783   0.1908   0.2261   0.2385   0.2497   0.2623   0.2811
     0.2873   0.3025   0.3205   0.3379   0.4756   0.5146   0.5219   0.5851
     0.5950   0.6177   0.6821   0.7007   0.7874   0.8057   0.8193   0.8562
     0.9177   0.9828   1.0000   1.0187   1.0439   1.0525   1.0610   1.0751
     1.1244   1.1357   1.1564   1.1617   1.1882   1.2124   1.2391   1.2522
     1.3166   1.3354   1.3505   1.3586   1.3767   1.3838   1.4001   1.5163
     1.5221   1.5392   1.5784   1.5895   1.5972   1.6131   1.6526   1.6857
     1.6878   1.6960   1.7219   1.7654   1.7710   1.8492   1.9049   1.9597
     2.1912   2.2165   2.4612   2.4775   2.5776   2.6408   2.6626   2.6910
     2.7331   2.7417   2.7848   2.8101   2.9946   3.0207   5.1473   5.4624
     5.4718   6.0292   6.1117   6.7300   6.7898   6.8012   6.9102   6.9608
     6.9702   7.0922   7.1428   7.4169   7.4628   7.5791   7.5994   7.6343
     7.6470   7.9736   8.0725   8.1833   8.2516   8.4907   8.5017   8.5401
     8.5756   8.6014   8.6627   8.7378   8.9950   9.0077   9.0465   9.1530
     9.1735   9.1794

          k = 0.0000 0.5236 0.0000 ( 71061 PWs)   bands (ev):

   -38.2682 -38.2084 -35.9057 -35.8376 -22.9395 -22.9293 -22.8961 -22.8303
   -22.8202 -22.7803 -22.6313 -22.3816 -18.6328 -18.6255 -18.6117 -18.5734
   -18.5670 -18.5597 -17.1619 -17.1446 -17.1094 -17.0913 -17.0788 -17.0451
   -15.3075 -15.2702 -14.9951 -14.9765 -14.8500 -14.8133 -14.7932 -14.7385
   -14.6707 -14.6394 -14.6352 -14.5512 -14.4421 -14.4343 -14.4194 -14.3999
   -14.3862 -14.3614 -14.3103 -14.2883 -14.2769 -14.1859 -14.1653 -14.1527
   -14.1269 -14.1163 -14.0553 -13.9833 -12.9105 -12.8270  -8.4433  -8.4333
    -8.2835  -8.2740  -8.2637  -8.2490  -8.2199  -8.2080  -8.1490  -8.1385
    -8.1359  -8.1084  -8.0841  -8.0423  -8.0324  -7.9832  -7.9331  -7.9133
    -7.9035  -7.8710  -7.7611  -7.7026  -7.4772  -7.4603  -3.7173  -3.6658
    -3.3782  -3.2916  -2.9999  -2.9777  -2.8541  -2.7914  -2.6189  -2.6068
    -2.5278  -2.4831  -2.4250  -2.4184  -2.4164  -2.3843  -2.3775  -2.2989
    -2.2402  -2.2329  -2.2299  -2.2226  -2.1509  -2.1121  -2.0090  -1.9678
    -1.9461  -1.9330  -1.8668  -1.8176  -1.7973  -1.7938  -1.7461  -1.7444
    -1.4096  -1.3612  -1.2827  -1.1590  -1.1458  -1.1178  -1.0672  -1.0236
    -0.9919  -0.9823  -0.9563  -0.9458  -0.8119  -0.8023  -0.7990  -0.7649
    -0.7272  -0.7191  -0.7190  -0.6991  -0.6628  -0.6551  -0.6170  -0.5877
    -0.5774  -0.5429  -0.5216  -0.4917  -0.4843  -0.4274  -0.4169  -0.4127
    -0.3432  -0.2546  -0.2294  -0.1987  -0.1292  -0.0906  -0.0308  -0.0189
     0.0574   0.0590   0.0877   0.1148   0.1570   0.1657   0.1677   0.1979
     0.2466   0.2526   0.2669   0.3503   0.4502   0.4853   0.4971   0.5148
     0.6140   0.6713   0.6715   0.6901   0.7010   0.8645   0.8928   0.8993
     0.9090   0.9217   0.9265   0.9550   1.0263   1.0567   1.0956   1.1071
     1.1188   1.1220   1.1246   1.1498   1.1512   1.2180   1.2260   1.2356
     1.2504   1.2764   1.2793   1.3041   1.3200   1.3352   1.3469   1.4153
     1.4356   1.4734   1.5127   1.5252   1.5309   1.5547   1.5682   1.5918
     1.6618   1.6621   1.6673   1.6705   1.6973   1.7216   1.7302   1.7755
     1.7851   1.8254   1.8502   1.8971   1.9283   1.9368   2.0192   2.0213
     2.0847   2.1072   2.4045   2.5864   2.8956   2.8961   2.9486   2.9840
     3.0010   3.0099   3.6522   3.6723   3.7401   3.7702   5.6450   6.3612
     6.3687   6.4776   6.4872   6.7106   6.7878   6.8164   6.8955   6.9685
     7.6422   7.6633   7.6956   7.7133   7.9722   7.9965   8.1192   8.2713
     8.2854   8.3814   8.4481   8.4997   8.5152   8.5589   8.5844   8.6955
     8.7906   8.7985   8.8454   8.9523   9.0109   9.1368   9.1727   9.2660
     9.2821   9.2852

          k = 0.0000 0.7854 0.0000 ( 71116 PWs)   bands (ev):

   -38.2616 -38.2019 -35.9016 -35.8335 -22.8772 -22.8669 -22.8488 -22.7824
   -22.7722 -22.7203 -22.5835 -22.3297 -18.8408 -18.7819 -18.6081 -18.5495
   -18.5067 -18.4543 -17.2835 -17.2125 -17.0990 -17.0719 -17.0347 -17.0065
   -15.0755 -15.0540 -14.9660 -14.9161 -14.8213 -14.7995 -14.7568 -14.7014
   -14.6721 -14.6520 -14.5914 -14.4771 -14.4659 -14.4553 -14.3471 -14.3201
   -14.3176 -14.3026 -14.2717 -14.2570 -14.2433 -14.1755 -14.1129 -14.1019
   -14.1003 -14.0809 -14.0698 -14.0202 -12.9696 -12.7801  -8.8383  -8.8283
    -8.6496  -8.5787  -8.5690  -8.4846  -8.3687  -8.2456  -8.2287  -8.2237
    -8.2091  -8.1552  -8.1431  -8.1246  -8.1114  -8.1015  -7.9765  -7.8855
    -7.7921  -7.7853  -7.7823  -7.5901  -7.5536  -7.4194  -4.2035  -4.1522
    -3.7819  -3.7012  -3.4026  -3.3844  -3.2192  -3.1513  -2.9995  -2.9906
    -2.9666  -2.9333  -2.9243  -2.8643  -2.7579  -2.7506  -2.6569  -2.6035
    -2.5187  -2.4770  -2.3471  -2.3424  -2.2800  -2.2758  -2.0594  -2.0069
    -1.9800  -1.9719  -1.9688  -1.9307  -1.8343  -1.8020  -1.6660  -1.6329
    -1.6168  -1.3822  -1.3819  -1.3431  -1.2934  -1.2332  -1.2250  -1.1825
    -1.1623  -1.1516  -1.1114  -1.1056  -1.0713  -1.0270  -1.0223  -0.9519
    -0.9406  -0.9298  -0.9159  -0.8834  -0.8744  -0.8649  -0.8625  -0.8401
    -0.7613  -0.7408  -0.7331  -0.7319  -0.7134  -0.6819  -0.5707  -0.3517
    -0.3439  -0.2775  -0.2422  -0.2336  -0.2046  -0.1417  -0.1397   0.0298
     0.0592   0.0798   0.0935   0.0976   0.1282   0.1648   0.1708   0.1871
     0.3292   0.3585   0.3931   0.4361   0.6540   0.6598   0.7302   0.7688
     0.8244   0.8641   0.9050   0.9116   0.9230   0.9316   1.0335   1.0733
     1.0846   1.1197   1.1360   1.1429   1.1553   1.1817   1.1900   1.2356
     1.2433   1.2549   1.2950   1.3327   1.4007   1.4318   1.4370   1.4449
     1.4700   1.5437   1.5543   1.5557   1.5580   1.5875   1.5918   1.6059
     1.6168   1.6596   1.6643   1.6834   1.7003   1.7010   1.7334   1.7425
     1.7584   1.7944   1.8095   1.8375   1.8635   1.8670   1.8841   1.9765
     2.0158   2.0708   2.1071   2.1121   2.1169   2.1219   2.2377   2.3326
     2.3412   2.4281   2.4327   2.5296   2.7491   2.8051   2.8331   2.9039
     2.9546   3.0054   4.2822   4.3116   4.3507   4.3675   5.7324   5.9489
     5.9559   6.5381   6.6321   7.0838   7.2848   7.2966   7.6142   7.6726
     8.0612   8.0830   8.2611   8.2848   8.3348   8.4164   8.4399   8.5677
     8.6148   8.6497   8.7124   8.7271   8.7555   8.8449   8.8778   8.9819
     9.0491   9.0603   9.1312   9.1407   9.2082   9.2694   9.2814   9.3993
     9.4612   9.4820

          k = 0.0000-1.0472 0.0000 ( 71150 PWs)   bands (ev):

   -38.2589 -38.1992 -35.8999 -35.8317 -22.8508 -22.8405 -22.8289 -22.7622
   -22.7520 -22.6949 -22.5633 -22.3079 -18.9213 -18.8626 -18.6009 -18.5422
   -18.4596 -18.4068 -17.3338 -17.2629 -17.0948 -17.0363 -17.0304 -16.9709
   -15.0769 -15.0540 -14.8987 -14.8662 -14.8332 -14.7600 -14.7318 -14.7021
   -14.6492 -14.6341 -14.6304 -14.4817 -14.4603 -14.3675 -14.3278 -14.3138
   -14.3102 -14.2744 -14.2709 -14.2460 -14.1757 -14.1173 -14.1122 -14.0819
   -14.0746 -14.0704 -14.0633 -14.0518 -13.0258 -12.7220  -8.9916  -8.9815
    -8.8035  -8.6974  -8.6877  -8.6230  -8.4738  -8.3675  -8.2297  -8.2285
    -8.2067  -8.1499  -8.1390  -8.1365  -8.1328  -8.1292  -8.0054  -7.8773
    -7.7954  -7.7396  -7.7297  -7.5756  -7.5409  -7.3892  -4.4052  -4.3551
    -3.9682  -3.8890  -3.5570  -3.5410  -3.3691  -3.2968  -3.2343  -3.2245
    -3.1755  -3.1634  -3.1543  -3.0808  -2.7865  -2.7792  -2.6777  -2.6440
    -2.6211  -2.6024  -2.3692  -2.3649  -2.2672  -2.2631  -2.1207  -2.0760
    -2.0706  -2.0327  -1.9864  -1.9414  -1.7594  -1.7473  -1.7188  -1.5065
    -1.4825  -1.4577  -1.4573  -1.4491  -1.3767  -1.3397  -1.3354  -1.2857
    -1.2190  -1.2169  -1.1916  -1.1855  -1.1849  -1.1772  -1.0600  -1.0358
    -1.0303  -1.0055  -0.9825  -0.9785  -0.9723  -0.9631  -0.9459  -0.9353
    -0.8347  -0.8298  -0.8295  -0.8221  -0.6838  -0.6789  -0.6193  -0.3156
    -0.3078  -0.2503  -0.2485  -0.2351  -0.2304  -0.1989  -0.1664  -0.1319
     0.0516   0.0736   0.0873   0.1240   0.1374   0.1509   0.1644   0.1944
     0.3596   0.4107   0.4526   0.4580   0.7277   0.7347   0.7531   0.8415
     0.8827   0.9193   0.9229   0.9460   1.0352   1.0401   1.0457   1.0947
     1.0979   1.1501   1.2024   1.2160   1.2242   1.2317   1.2331   1.2417
     1.2529   1.2867   1.3099   1.3239   1.4661   1.4876   1.5107   1.5236
     1.5664   1.5941   1.5969   1.6127   1.6502   1.6918   1.7472   1.7523
     1.7586   1.7859   1.7880   1.7908   1.8166   1.8341   1.8426   1.8521
     1.8736   1.9626   1.9669   1.9945   2.0283   2.0498   2.0679   2.0792
     2.0898   2.0908   2.1992   2.2871   2.3117   2.3201   2.3404   2.3809
     2.4960   2.5046   2.5105   2.5721   2.5876   2.5959   2.6635   2.7459
     2.8263   2.9188   4.4785   4.5111   4.5709   4.5849   5.6539   5.7095
     5.7167   6.4173   6.5240   7.5032   7.6865   7.6958   7.8832   8.0305
     8.0336   8.1996   8.2216   8.2268   8.2629   8.4361   8.6558   8.6613
     8.7019   8.7396   8.7482   8.8271   8.9691   8.9857   9.0158   9.0479
     9.0973   9.0989   9.1070   9.2109   9.2148   9.3389   9.4022   9.4985
     9.6197   9.6251

          k = 0.1250 0.0000 0.0000 ( 71201 PWs)   bands (ev):

   -38.2774 -38.2176 -35.9115 -35.8434 -23.0201 -23.0099 -22.9609 -22.9011
   -22.8909 -22.8595 -22.7004 -22.4534 -18.7499 -18.6985 -18.6470 -18.5886
   -18.2813 -18.2205 -17.2606 -17.1950 -17.1361 -17.0722 -16.9427 -16.8715
   -15.6276 -15.5875 -15.1821 -15.1650 -14.9725 -14.8608 -14.8196 -14.7955
   -14.7731 -14.7677 -14.7202 -14.6714 -14.6592 -14.6401 -14.4954 -14.4756
   -14.3332 -14.2945 -14.2306 -14.2013 -14.1935 -14.1926 -14.1857 -14.1767
   -14.1497 -14.0767 -14.0020 -13.9387 -13.0600 -12.6315  -8.2828  -8.2657
    -8.2480  -8.1598  -8.1476  -8.1059  -8.0599  -8.0502  -7.9817  -7.9274
    -7.9175  -7.8541  -7.8457  -7.8362  -7.8265  -7.7407  -7.7400  -7.7071
    -7.6972  -7.6964  -7.6918  -7.5236  -7.3018  -7.1971  -3.1678  -3.1460
    -3.0527  -2.9603  -2.3744  -2.3680  -2.3085  -2.3034  -2.2833  -2.2490
    -2.1697  -2.1067  -2.0888  -2.0666  -2.0542  -2.0244  -2.0075  -1.9833
    -1.9302  -1.8965  -1.8947  -1.8684  -1.7547  -1.7005  -1.6221  -1.5926
    -1.3647  -1.3268  -1.2857  -1.2540  -1.2444  -1.1716  -1.1658  -1.1221
    -1.1207  -1.1130  -1.1120  -1.1114  -1.1019  -1.0629  -0.9828  -0.9045
    -0.8782  -0.8716  -0.6247  -0.5994  -0.5437  -0.5286  -0.5023  -0.4697
    -0.4457  -0.4303  -0.4194  -0.4112  -0.3900  -0.3890  -0.3865  -0.3610
    -0.3530  -0.3525  -0.3411  -0.3137  -0.3103  -0.1888  -0.1664  -0.1549
    -0.1502  -0.1447  -0.1347  -0.1202  -0.0995  -0.0769  -0.0195  -0.0128
     0.0055   0.0161   0.0185   0.0242   0.0732   0.0804   0.0897   0.1096
     0.1170   0.1588   0.1720   0.2089   0.2283   0.2297   0.2769   0.3270
     0.3546   0.3753   0.3773   0.3826   0.3945   0.4158   0.4173   0.4245
     0.5572   0.5781   0.6659   0.7325   0.7394   0.7547   0.7867   0.7925
     0.8620   0.8832   0.9133   0.9264   0.9608   0.9921   0.9958   1.0260
     1.0285   1.0593   1.0812   1.0989   1.1151   1.1222   1.2099   1.2364
     1.2426   1.2819   1.2958   1.3114   1.3330   1.3585   1.3946   1.4420
     1.5065   1.5546   1.5791   1.5853   1.5889   1.6377   1.6513   1.6729
     1.6745   1.6788   1.7186   1.7728   1.7909   1.8930   1.9058   1.9698
     2.0685   2.0766   2.2165   2.2523   2.2603   2.2883   2.3498   2.4057
     2.4389   2.4689   2.4735   2.5115   2.7053   2.7543   4.9041   5.1334
     5.1501   5.8051   5.9008   6.4506   6.5181   6.5378   6.6509   6.7622
     6.7695   6.8222   7.2487   7.3579   7.4361   7.5903   7.5990   7.7633
     7.8648   7.9461   7.9962   8.0031   8.1160   8.2637   8.3013   8.4037
     8.4226   8.4947   8.5064   8.5457   8.7519   8.9070   8.9963   9.0067
     9.1153   9.1696

          k = 0.1250 0.2618 0.0000 ( 71153 PWs)   bands (ev):

   -38.2747 -38.2149 -35.9098 -35.8417 -22.9958 -22.9855 -22.9420 -22.8817
   -22.8716 -22.8359 -22.6812 -22.4328 -18.7113 -18.6597 -18.6398 -18.5814
   -18.3920 -18.3318 -17.2310 -17.1654 -17.1312 -17.0672 -17.0085 -16.9375
   -15.5222 -15.4825 -15.1281 -15.1110 -14.9194 -14.8235 -14.8056 -14.7634
   -14.7589 -14.6872 -14.6618 -14.6480 -14.6456 -14.6097 -14.4573 -14.4346
   -14.3289 -14.2917 -14.2909 -14.2493 -14.2126 -14.1815 -14.1799 -14.1743
   -14.1694 -14.1120 -14.0018 -13.9692 -13.0168 -12.6904  -8.2713  -8.2586
    -8.2441  -8.1740  -8.1626  -8.1176  -8.0861  -8.0763  -8.0134  -8.0036
    -7.9737  -7.9154  -7.9056  -7.8913  -7.8584  -7.8520  -7.8483  -7.8458
    -7.8277  -7.7338  -7.7125  -7.6944  -7.3692  -7.3036  -3.2763  -3.2418
    -3.1045  -3.0134  -2.5136  -2.4996  -2.4682  -2.3985  -2.3837  -2.3765
    -2.2777  -2.2687  -2.2490  -2.2070  -2.1528  -2.0991  -2.0326  -1.9932
    -1.9470  -1.9459  -1.9384  -1.8972  -1.8503  -1.7981  -1.6876  -1.6499
    -1.6386  -1.6348  -1.5656  -1.5560  -1.5420  -1.5316  -1.5303  -1.5080
    -1.4697  -1.3928  -1.2045  -1.0613  -1.0436  -0.9992  -0.9102  -0.8916
    -0.8413  -0.8186  -0.7834  -0.7738  -0.7329  -0.7260  -0.5977  -0.5786
    -0.5271  -0.5136  -0.5125  -0.4913  -0.4888  -0.4619  -0.4404  -0.3850
    -0.3226  -0.3174  -0.2772  -0.2765  -0.2119  -0.1897  -0.1637  -0.1440
    -0.1370  -0.1116  -0.0756  -0.0658  -0.0637  -0.0196   0.0034   0.0122
     0.0190   0.0255   0.0566   0.0596   0.0928   0.1270   0.1375   0.1479
     0.1547   0.1888   0.2057   0.2355   0.2407   0.2498   0.2628   0.2720
     0.3111   0.3166   0.3381   0.3440   0.4899   0.4955   0.5015   0.5778
     0.6073   0.6198   0.6964   0.7170   0.7775   0.7991   0.8326   0.8870
     0.9257   0.9437   0.9696   1.0174   1.0405   1.0559   1.0679   1.0735
     1.0850   1.1263   1.1337   1.1443   1.1636   1.2143   1.2430   1.2552
     1.2574   1.2638   1.3452   1.3621   1.3787   1.4357   1.4567   1.5068
     1.5216   1.5625   1.5666   1.5733   1.5849   1.6152   1.6314   1.6465
     1.6511   1.6905   1.7139   1.8086   1.8456   1.9543   2.0078   2.0428
     2.0606   2.3308   2.4623   2.4882   2.5788   2.6378   2.6605   2.6905
     2.7345   2.7435   2.7838   2.8093   2.9866   3.0129   5.1790   5.4992
     5.5082   6.0688   6.1489   6.5568   6.7946   6.8026   6.8345   6.8573
     6.9487   7.1467   7.3550   7.4352   7.4955   7.5693   7.6315   7.7358
     7.7672   7.9855   8.0830   8.1800   8.2819   8.4147   8.4802   8.5578
     8.5963   8.6280   8.6776   8.7692   8.9340   8.9965   9.0326   9.0689
     9.0977   9.1711

          k = 0.1250 0.5236 0.0000 ( 71120 PWs)   bands (ev):

   -38.2682 -38.2084 -35.9057 -35.8376 -22.9358 -22.9255 -22.8956 -22.8343
   -22.8241 -22.7778 -22.6341 -22.3822 -18.6327 -18.6224 -18.6112 -18.5733
   -18.5638 -18.5592 -17.1632 -17.1459 -17.1194 -17.0932 -17.0796 -17.0553
   -15.2827 -15.2454 -14.9866 -14.9692 -14.8481 -14.8115 -14.7902 -14.7327
   -14.6710 -14.6391 -14.6354 -14.5535 -14.4958 -14.4765 -14.4427 -14.3967
   -14.3621 -14.3240 -14.3098 -14.2910 -14.2789 -14.1834 -14.1639 -14.1510
   -14.1285 -14.1177 -14.0550 -13.9841 -12.9068 -12.8296  -8.4770  -8.4671
    -8.2924  -8.2492  -8.2388  -8.2280  -8.2071  -8.1963  -8.1552  -8.1552
    -8.1447  -8.1111  -8.1007  -8.1005  -8.0388  -7.9755  -7.9497  -7.9148
    -7.8612  -7.8514  -7.7630  -7.6665  -7.5249  -7.4007  -3.6818  -3.6303
    -3.3410  -3.2544  -3.0106  -2.9868  -2.8564  -2.7937  -2.6133  -2.6013
    -2.5260  -2.4807  -2.4261  -2.4195  -2.4129  -2.3839  -2.3770  -2.3017
    -2.2409  -2.2335  -2.2289  -2.2216  -2.1181  -2.0793  -2.0313  -1.9937
    -1.9720  -1.9443  -1.8660  -1.8407  -1.8259  -1.7938  -1.7821  -1.7346
    -1.4154  -1.3684  -1.2927  -1.1665  -1.1585  -1.1230  -1.0757  -1.0492
    -1.0072  -0.9832  -0.9483  -0.9204  -0.8721  -0.8595  -0.8482  -0.7950
    -0.7865  -0.7494  -0.7167  -0.6838  -0.6618  -0.6486  -0.6422  -0.5955
    -0.5837  -0.5377  -0.5100  -0.4799  -0.4791  -0.4293  -0.4090  -0.4050
    -0.3427  -0.2544  -0.2295  -0.1932  -0.0842  -0.0524  -0.0331  -0.0104
     0.0186   0.0266   0.0892   0.1029   0.1367   0.1666   0.1740   0.1906
     0.2676   0.2858   0.2908   0.3479   0.4798   0.4967   0.5011   0.5334
     0.6034   0.6662   0.6876   0.7059   0.7147   0.8377   0.8838   0.9009
     0.9141   0.9355   0.9410   0.9644   1.0021   1.0172   1.0528   1.0648
     1.0850   1.1217   1.1330   1.1759   1.1827   1.2015   1.2111   1.2203
     1.2569   1.2714   1.2796   1.3056   1.3295   1.3395   1.3762   1.4107
     1.4247   1.4670   1.4891   1.4951   1.5351   1.5578   1.5854   1.5905
     1.6110   1.6421   1.6606   1.6796   1.6874   1.6895   1.6988   1.7747
     1.7756   1.8432   1.8913   1.9183   1.9282   2.0114   2.0918   2.1603
     2.2042   2.2321   2.4137   2.6029   2.8908   2.9013   2.9495   2.9854
     2.9978   3.0139   3.6195   3.6400   3.7121   3.7425   5.6623   6.3767
     6.3842   6.4846   6.4948   6.7026   6.7878   6.8353   6.9264   6.9926
     7.6785   7.7068   7.7121   7.7627   7.9940   8.0245   8.0988   8.2561
     8.2702   8.3695   8.3955   8.4429   8.5149   8.5750   8.5914   8.6913
     8.7740   8.8182   8.8888   8.9620   9.0063   9.1349   9.1851   9.2322
     9.2585   9.2872

          k = 0.1250 0.7854 0.0000 ( 71124 PWs)   bands (ev):

   -38.2616 -38.2019 -35.9016 -35.8335 -22.8740 -22.8637 -22.8484 -22.7857
   -22.7756 -22.7182 -22.5857 -22.3303 -18.8408 -18.7819 -18.6050 -18.5464
   -18.5062 -18.4537 -17.2835 -17.2125 -17.1084 -17.0740 -17.0442 -17.0087
   -15.0575 -15.0375 -14.9519 -14.8995 -14.8188 -14.7987 -14.7500 -14.6979
   -14.6753 -14.6522 -14.5922 -14.4771 -14.4664 -14.4617 -14.3592 -14.3433
   -14.3352 -14.3259 -14.2693 -14.2525 -14.2354 -14.1694 -14.1118 -14.1000
   -14.0991 -14.0818 -14.0705 -14.0220 -12.9628 -12.7877  -8.8286  -8.8186
    -8.6382  -8.5365  -8.5269  -8.4770  -8.3312  -8.2287  -8.2228  -8.2147
    -8.2089  -8.1590  -8.1554  -8.1483  -8.1443  -8.1239  -8.0141  -7.8889
    -7.8071  -7.7973  -7.7849  -7.6086  -7.5999  -7.4193  -4.1664  -4.1156
    -3.7470  -3.6667  -3.4183  -3.3987  -3.2273  -3.1591  -2.9970  -2.9881
    -2.9636  -2.9358  -2.9268  -2.8667  -2.7442  -2.7367  -2.6448  -2.5899
    -2.4893  -2.4483  -2.3488  -2.3439  -2.2790  -2.2747  -2.0522  -1.9989
    -1.9881  -1.9675  -1.9555  -1.9180  -1.8651  -1.8221  -1.7512  -1.7089
    -1.5976  -1.4062  -1.3745  -1.3661  -1.3008  -1.2517  -1.2194  -1.1936
    -1.1890  -1.1846  -1.1612  -1.1329  -1.1296  -1.1130  -1.0052  -0.9614
    -0.9542  -0.9270  -0.9219  -0.8887  -0.8738  -0.8607  -0.8580  -0.8491
    -0.7474  -0.7382  -0.7353  -0.7067  -0.7006  -0.6498  -0.5745  -0.3623
    -0.3558  -0.2862  -0.2420  -0.2098  -0.1448  -0.0870  -0.0761   0.0250
     0.0330   0.0361   0.0756   0.1205   0.1255   0.1580   0.1929   0.1967
     0.3215   0.3997   0.4289   0.4389   0.6337   0.6719   0.7364   0.7471
     0.8242   0.8594   0.8902   0.9189   0.9467   0.9565   1.0487   1.0687
     1.0909   1.1040   1.1180   1.1220   1.1536   1.1604   1.1872   1.2219
     1.2384   1.2541   1.2767   1.3232   1.3892   1.4044   1.4310   1.4386
     1.4785   1.5249   1.5382   1.5477   1.5632   1.5695   1.6046   1.6191
     1.6478   1.6587   1.6690   1.6810   1.6863   1.7156   1.7269   1.7439
     1.7822   1.8080   1.8408   1.8479   1.8739   1.9503   1.9712   2.0182
     2.0278   2.1048   2.1176   2.1258   2.1436   2.2257   2.2573   2.2852
     2.3244   2.3329   2.5092   2.5459   2.7508   2.8064   2.8333   2.9102
     2.9503   3.0127   4.2185   4.2475   4.2921   4.3100   5.7701   6.0040
     6.0111   6.5679   6.6592   7.0905   7.2522   7.2645   7.6020   7.6616
     7.9727   8.1418   8.1665   8.2123   8.2899   8.4435   8.4551   8.5683
     8.6376   8.6953   8.7117   8.7350   8.7929   8.8826   8.9064   8.9942
     9.0433   9.0880   9.1516   9.1735   9.2511   9.2601   9.3401   9.4019
     9.4263   9.4623

          k = 0.1250-1.0472 0.0000 ( 71186 PWs)   bands (ev):

   -38.2589 -38.1992 -35.8999 -35.8318 -22.8479 -22.8376 -22.8285 -22.7652
   -22.7551 -22.6931 -22.5653 -22.3083 -18.9213 -18.8626 -18.5979 -18.5392
   -18.4591 -18.4064 -17.3338 -17.2629 -17.1038 -17.0396 -17.0383 -16.9729
   -15.0658 -15.0428 -14.8747 -14.8422 -14.8275 -14.7610 -14.7186 -14.6891
   -14.6766 -14.6482 -14.6250 -14.4766 -14.4558 -14.3785 -14.3391 -14.3313
   -14.3236 -14.2886 -14.2684 -14.2416 -14.1738 -14.1186 -14.1177 -14.0814
   -14.0747 -14.0699 -14.0642 -14.0527 -13.0156 -12.7351  -8.9613  -8.9513
    -8.7748  -8.6669  -8.6572  -8.5958  -8.4451  -8.3409  -8.2263  -8.2258
    -8.2051  -8.1740  -8.1642  -8.1522  -8.1394  -8.1322  -8.0374  -7.8780
    -7.7951  -7.7833  -7.7734  -7.6039  -7.5818  -7.4261  -4.3670  -4.3175
    -3.9337  -3.8549  -3.5744  -3.5570  -3.3796  -3.3068  -3.2318  -3.2221
    -3.1731  -3.1661  -3.1570  -3.0830  -2.7699  -2.7623  -2.6621  -2.6173
    -2.6038  -2.5763  -2.3716  -2.3672  -2.2682  -2.2640  -2.1134  -2.0631
    -2.0362  -1.9975  -1.9964  -1.9429  -1.8167  -1.7426  -1.6679  -1.6077
    -1.5668  -1.5441  -1.5117  -1.4464  -1.4338  -1.3656  -1.3212  -1.2953
    -1.2793  -1.2743  -1.2072  -1.2021  -1.1993  -1.1659  -1.0631  -1.0549
    -1.0211  -1.0066  -0.9926  -0.9769  -0.9659  -0.9569  -0.9490  -0.9118
    -0.8367  -0.8282  -0.8246  -0.7984  -0.6901  -0.6510  -0.5947  -0.3287
    -0.3224  -0.2555  -0.2354  -0.1784  -0.1575  -0.1458  -0.1121  -0.1110
     0.0357   0.0375   0.0640   0.1094   0.1277   0.1644   0.1718   0.1894
     0.3518   0.4428   0.4612   0.5080   0.6934   0.7623   0.7808   0.8367
     0.8469   0.9094   0.9296   0.9484   0.9964   1.0476   1.0554   1.0908
     1.0984   1.1383   1.1693   1.2045   1.2328   1.2331   1.2455   1.2528
     1.2562   1.2853   1.3161   1.3529   1.3888   1.4682   1.4824   1.5058
     1.5513   1.5784   1.6569   1.6823   1.6967   1.6985   1.7309   1.7717
     1.7826   1.7864   1.7940   1.8120   1.8258   1.8359   1.8526   1.8603
     1.9887   2.0089   2.0106   2.0215   2.0301   2.0576   2.0716   2.0774
     2.0908   2.0936   2.1965   2.2868   2.3184   2.3269   2.3383   2.3898
     2.4887   2.4974   2.5152   2.5289   2.5502   2.5908   2.6665   2.7583
     2.8232   2.9278   4.4006   4.4330   4.4952   4.5103   5.7052   5.7775
     5.7848   6.4496   6.5534   7.4821   7.5936   7.6037   7.8989   7.9739
     8.0236   8.0383   8.0880   8.1730   8.3152   8.4316   8.7154   8.7569
     8.7730   8.8162   8.8611   8.9143   8.9279   8.9920   9.0583   9.0986
     9.1244   9.1363   9.1469   9.2193   9.2696   9.3481   9.4170   9.5137
     9.5804   9.6394

          k = 0.2500 0.0000 0.0000 ( 71157 PWs)   bands (ev):

   -38.2774 -38.2176 -35.9115 -35.8434 -23.0075 -22.9973 -22.9592 -22.9144
   -22.9043 -22.8512 -22.7093 -22.4555 -18.7481 -18.6967 -18.6391 -18.5806
   -18.2813 -18.2205 -17.2676 -17.2023 -17.1644 -17.1012 -16.9427 -16.8715
   -15.5534 -15.5132 -15.1430 -15.1285 -14.9670 -14.8550 -14.8516 -14.8312
   -14.8192 -14.7762 -14.7715 -14.6953 -14.6789 -14.6616 -14.4626 -14.4337
   -14.3135 -14.2791 -14.2343 -14.2070 -14.1979 -14.1972 -14.1906 -14.1804
   -14.1627 -14.0855 -14.0140 -13.9380 -13.0135 -12.6849  -8.2836  -8.2705
    -8.2526  -8.1672  -8.1552  -8.1163  -8.0269  -8.0172  -8.0026  -7.9037
    -7.8938  -7.8648  -7.8552  -7.8311  -7.8178  -7.7333  -7.7234  -7.7231
    -7.7189  -7.6995  -7.6864  -7.5470  -7.3112  -7.2040  -3.0671  -3.0450
    -2.9582  -2.8649  -2.3958  -2.3853  -2.3459  -2.3397  -2.2733  -2.2678
    -2.2398  -2.1731  -2.1409  -2.1038  -2.0828  -2.0484  -2.0294  -1.9796
    -1.9500  -1.9169  -1.9124  -1.8986  -1.7127  -1.6900  -1.6591  -1.6544
    -1.3105  -1.2932  -1.2482  -1.2044  -1.1875  -1.1702  -1.1448  -1.1193
    -1.1156  -1.1102  -1.1066  -1.0838  -1.0348  -0.9932  -0.9400  -0.8470
    -0.8193  -0.8129  -0.6700  -0.6118  -0.5854  -0.5670  -0.5084  -0.5001
    -0.4900  -0.4783  -0.4757  -0.4411  -0.4383  -0.4364  -0.4202  -0.4130
    -0.4129  -0.4055  -0.3788  -0.3327  -0.3036  -0.2067  -0.1937  -0.1732
    -0.1662  -0.1547  -0.1501  -0.1307  -0.1228  -0.0793  -0.0662  -0.0043
     0.0290   0.0756   0.0826   0.0922   0.0932   0.0967   0.1014   0.1169
     0.1271   0.2004   0.2203   0.2274   0.2388   0.2698   0.2981   0.3354
     0.3574   0.3583   0.3630   0.3872   0.4095   0.4249   0.4276   0.4466
     0.5243   0.5384   0.6640   0.6925   0.7205   0.7319   0.7447   0.8047
     0.8324   0.8472   0.8651   0.8760   0.8775   0.9325   0.9458   0.9523
     1.0383   1.0735   1.0837   1.1163   1.1424   1.1498   1.2120   1.2275
     1.2572   1.2916   1.2948   1.3738   1.3775   1.3938   1.4180   1.4203
     1.4711   1.5266   1.5744   1.5818   1.6247   1.6302   1.6588   1.6703
     1.6731   1.6775   1.8567   1.8569   1.8771   1.8806   1.8896   1.9328
     2.0424   2.0551   2.1749   2.2319   2.2709   2.2829   2.3297   2.3836
     2.4561   2.4757   2.4920   2.5163   2.6842   2.7337   5.0288   5.2688
     5.2786   5.9459   6.0268   6.1475   6.3769   6.3839   6.6770   6.7072
     6.7950   6.9898   7.2322   7.2856   7.6192   7.8056   7.8212   7.8584
     7.8710   7.9490   8.0060   8.0949   8.1621   8.1900   8.2355   8.3451
     8.4250   8.5845   8.6260   8.6458   8.6731   8.8042   8.9765   9.0985
     9.1038   9.1851

          k = 0.2500 0.2618 0.0000 ( 71122 PWs)   bands (ev):

   -38.2747 -38.2149 -35.9098 -35.8417 -22.9838 -22.9735 -22.9404 -22.8944
   -22.8843 -22.8281 -22.6896 -22.4348 -18.7096 -18.6580 -18.6320 -18.5735
   -18.3920 -18.3318 -17.2378 -17.1723 -17.1581 -17.0948 -17.0083 -16.9373
   -15.4495 -15.4098 -15.0936 -15.0793 -14.9123 -14.8268 -14.8079 -14.7908
   -14.7692 -14.7347 -14.7302 -14.6807 -14.6617 -14.6281 -14.4243 -14.3926
   -14.3146 -14.2908 -14.2803 -14.2556 -14.2246 -14.1871 -14.1809 -14.1762
   -14.1744 -14.1171 -14.0186 -13.9597 -12.9800 -12.7295  -8.2716  -8.2649
    -8.2505  -8.1938  -8.1830  -8.1397  -8.1297  -8.1281  -8.0590  -8.0490
    -8.0112  -7.9191  -7.8842  -7.8818  -7.8476  -7.8419  -7.8321  -7.7990
    -7.7893  -7.7354  -7.6516  -7.6378  -7.3404  -7.2764  -3.1726  -3.1374
    -3.0030  -2.9119  -2.5516  -2.5335  -2.4824  -2.4073  -2.3637  -2.3552
    -2.3063  -2.2922  -2.2557  -2.2166  -2.2050  -2.1486  -2.1000  -2.0598
    -2.0434  -2.0035  -1.9740  -1.9503  -1.8482  -1.7871  -1.6643  -1.6458
    -1.6256  -1.6000  -1.5604  -1.5497  -1.5426  -1.5330  -1.4519  -1.4253
    -1.3951  -1.3205  -1.1826  -1.0690  -1.0652  -1.0140  -0.9420  -0.8948
    -0.8717  -0.8338  -0.8233  -0.7955  -0.7547  -0.7398  -0.7165  -0.7042
    -0.6413  -0.6102  -0.5161  -0.4950  -0.4715  -0.4468  -0.4438  -0.3837
    -0.3023  -0.2997  -0.2487  -0.2389  -0.2008  -0.1897  -0.1635  -0.1529
    -0.1466  -0.1368  -0.1172  -0.1104  -0.0789  -0.0420  -0.0010   0.0051
     0.0158   0.0213   0.0362   0.0719   0.1129   0.1367   0.1599   0.1811
     0.1888   0.2128   0.2167   0.2391   0.2412   0.2541   0.2682   0.2820
     0.3289   0.3538   0.3656   0.4021   0.4483   0.4596   0.5253   0.5677
     0.6032   0.6185   0.7141   0.7416   0.7677   0.7825   0.8724   0.9260
     0.9402   0.9542   0.9717   0.9875   0.9941   1.0141   1.0359   1.0613
     1.0649   1.0709   1.1034   1.1132   1.1686   1.1801   1.1834   1.2171
     1.2886   1.2970   1.3145   1.3577   1.3672   1.4803   1.4964   1.5090
     1.5189   1.5223   1.5256   1.5303   1.5732   1.5895   1.5905   1.6146
     1.6402   1.6551   1.6889   1.8708   1.9522   2.0227   2.1412   2.2063
     2.2711   2.4073   2.4649   2.5245   2.5786   2.6306   2.6516   2.6881
     2.7389   2.7490   2.7763   2.8027   2.9557   2.9825   5.2658   5.6056
     5.6138   6.1802   6.2456   6.3057   6.5131   6.5208   6.9934   7.0194
     7.0867   7.2887   7.3031   7.3545   7.6382   7.6632   7.7976   7.9288
     7.9394   8.0225   8.0853   8.2548   8.3047   8.3540   8.3855   8.4877
     8.5553   8.6831   8.7520   8.7940   8.8254   8.9358   8.9612   9.0061
     9.0778   9.1045

          k = 0.2500 0.5236 0.0000 ( 71098 PWs)   bands (ev):

   -38.2682 -38.2084 -35.9057 -35.8376 -22.9253 -22.9150 -22.8944 -22.8453
   -22.8352 -22.7713 -22.6411 -22.3838 -18.6326 -18.6148 -18.6098 -18.5731
   -18.5578 -18.5562 -17.1672 -17.1488 -17.1427 -17.0985 -17.0831 -17.0774
   -15.2151 -15.1784 -14.9673 -14.9529 -14.8436 -14.8070 -14.7866 -14.7170
   -14.6724 -14.6475 -14.6364 -14.5717 -14.5685 -14.5538 -14.4501 -14.4071
   -14.3381 -14.3264 -14.3036 -14.2958 -14.2660 -14.1733 -14.1601 -14.1462
   -14.1327 -14.1219 -14.0547 -13.9860 -12.8966 -12.8372  -8.5124  -8.5026
    -8.3219  -8.2593  -8.2495  -8.2486  -8.2230  -8.2114  -8.1803  -8.1602
    -8.1494  -8.1028  -8.0787  -8.0687  -8.0620  -7.9947  -7.9322  -7.9133
    -7.8140  -7.8044  -7.7669  -7.6310  -7.5218  -7.3592  -3.5810  -3.5302
    -3.2382  -3.1529  -3.0481  -3.0188  -2.8662  -2.8028  -2.5946  -2.5836
    -2.5175  -2.4693  -2.4313  -2.4246  -2.4045  -2.3816  -2.3747  -2.3091
    -2.2488  -2.2406  -2.2257  -2.2186  -2.1338  -2.0678  -2.0526  -2.0220
    -2.0022  -1.9846  -1.9785  -1.9118  -1.7847  -1.7559  -1.7381  -1.7118
    -1.4479  -1.4028  -1.3164  -1.2041  -1.1996  -1.1491  -1.1148  -1.0877
    -1.0801  -1.0537  -1.0347  -1.0030  -0.9848  -0.9666  -0.8869  -0.8525
    -0.7832  -0.7440  -0.7002  -0.6724  -0.6538  -0.6316  -0.6307  -0.6061
    -0.5694  -0.5476  -0.5226  -0.4613  -0.4550  -0.4380  -0.4034  -0.3789
    -0.3411  -0.2576  -0.2292  -0.2032  -0.1507  -0.1358  -0.0352  -0.0133
     0.0262   0.0509   0.0929   0.1189   0.1698   0.1898   0.2285   0.2425
     0.2979   0.3468   0.3661   0.3762   0.4438   0.4777   0.5751   0.5908
     0.6214   0.6663   0.7145   0.7348   0.7475   0.8005   0.8577   0.8906
     0.9060   0.9306   0.9332   0.9533   0.9751   0.9817   0.9990   1.0114
     1.0626   1.0819   1.1016   1.1048   1.1138   1.2213   1.2241   1.2511
     1.2798   1.2978   1.3298   1.3354   1.3412   1.3496   1.3723   1.4095
     1.4133   1.4497   1.4653   1.4928   1.5071   1.5341   1.5546   1.5750
     1.5817   1.5868   1.5975   1.6425   1.6803   1.7061   1.7206   1.7388
     1.7638   1.7750   1.8936   1.9011   2.0565   2.3102   2.3352   2.3590
     2.4136   2.4369   2.5189   2.6936   2.8863   2.9072   2.9515   2.9910
     2.9944   3.0234   3.5172   3.5387   3.6226   3.6541   5.7059   6.4170
     6.4248   6.5009   6.5121   6.6622   6.8323   6.8895   6.9810   7.0467
     7.7276   7.8279   7.8446   7.8697   7.9839   8.0263   8.1743   8.1824
     8.2294   8.2516   8.2821   8.4725   8.5156   8.5983   8.6343   8.6956
     8.7878   8.8647   8.9275   8.9815   9.0134   9.1162   9.1471   9.1764
     9.2104   9.2942

          k = 0.2500 0.7854 0.0000 ( 71122 PWs)   bands (ev):

   -38.2616 -38.2019 -35.9016 -35.8335 -22.8652 -22.8548 -22.8474 -22.7949
   -22.7848 -22.7129 -22.5914 -22.3315 -18.8407 -18.7818 -18.5977 -18.5390
   -18.5049 -18.4525 -17.2834 -17.2124 -17.1307 -17.0791 -17.0670 -17.0140
   -15.0129 -14.9961 -14.9085 -14.8497 -14.8240 -14.8081 -14.7289 -14.6853
   -14.6774 -14.6458 -14.5958 -14.4861 -14.4750 -14.4677 -14.4053 -14.4006
   -14.3780 -14.3575 -14.2630 -14.2400 -14.2281 -14.1647 -14.1085 -14.0959
   -14.0951 -14.0846 -14.0729 -14.0265 -12.9432 -12.8091  -8.7886  -8.7787
    -8.5970  -8.4457  -8.4274  -8.4177  -8.2857  -8.2758  -8.2340  -8.2262
    -8.2068  -8.1944  -8.1619  -8.1532  -8.1508  -8.1254  -8.1115  -7.8927
    -7.8632  -7.8534  -7.7847  -7.6808  -7.6681  -7.4505  -4.0629  -4.0141
    -3.6523  -3.5738  -3.4687  -3.4445  -3.2540  -3.1842  -2.9898  -2.9809
    -2.9555  -2.9429  -2.9339  -2.8732  -2.7005  -2.6923  -2.6043  -2.5442
    -2.4028  -2.3682  -2.3587  -2.3489  -2.2747  -2.2700  -2.0779  -2.0255
    -2.0010  -1.9676  -1.9529  -1.9302  -1.8988  -1.8868  -1.8554  -1.8097
    -1.5463  -1.5441  -1.5178  -1.3982  -1.3918  -1.3886  -1.3427  -1.2707
    -1.2420  -1.2184  -1.2151  -1.1880  -1.1255  -1.1076  -0.9981  -0.9289
    -0.9152  -0.9085  -0.9051  -0.8993  -0.8756  -0.8518  -0.8365  -0.8180
    -0.7573  -0.7455  -0.7091  -0.6824  -0.6443  -0.6224  -0.5808  -0.3974
    -0.3919  -0.3139  -0.2446  -0.2109  -0.2094  -0.1810  -0.0030   0.0371
     0.0623   0.0765   0.1342   0.1716   0.2063   0.2338   0.2478   0.2933
     0.3132   0.3985   0.5236   0.5602   0.5644   0.6551   0.7192   0.7848
     0.8230   0.8308   0.8566   0.9168   0.9909   1.0188   1.0292   1.0343
     1.0591   1.0688   1.1085   1.1154   1.1620   1.1731   1.1820   1.2039
     1.2292   1.2331   1.2615   1.2830   1.3518   1.3761   1.3915   1.4290
     1.4402   1.4738   1.5058   1.5248   1.5650   1.5725   1.5989   1.6143
     1.6197   1.6466   1.6693   1.6812   1.7188   1.7310   1.7406   1.7525
     1.7642   1.7966   1.8158   1.8514   1.8652   2.0093   2.0342   2.0785
     2.1070   2.1424   2.1506   2.2616   2.2997   2.3090   2.3179   2.3409
     2.3992   2.5109   2.5195   2.6413   2.7566   2.8102   2.8399   2.9409
     2.9517   3.0375   4.0285   4.0569   4.1190   4.1397   5.8667   6.1595
     6.1673   6.6495   6.7343   7.0971   7.1431   7.1635   7.5470   7.6094
     7.8638   8.0292   8.0641   8.1407   8.3136   8.4509   8.4676   8.5663
     8.6319   8.6742   8.7770   8.7928   8.8366   8.9777   9.0343   9.0519
     9.0669   9.1250   9.1999   9.2421   9.2706   9.3235   9.3535   9.4127
     9.4769   9.4981

          k = 0.2500-1.0472 0.0000 ( 71112 PWs)   bands (ev):

   -38.2589 -38.1992 -35.8999 -35.8318 -22.8398 -22.8295 -22.8276 -22.7736
   -22.7635 -22.6883 -22.5704 -22.3094 -18.9212 -18.8625 -18.5905 -18.5318
   -18.4579 -18.4052 -17.3339 -17.2630 -17.1254 -17.0616 -17.0430 -16.9779
   -15.0340 -15.0105 -14.8181 -14.8092 -14.7767 -14.7742 -14.7203 -14.6825
   -14.6807 -14.6537 -14.6230 -14.4693 -14.4467 -14.4097 -14.3816 -14.3706
   -14.3540 -14.3387 -14.2512 -14.2297 -14.1733 -14.1367 -14.1184 -14.0798
   -14.0749 -14.0683 -14.0667 -14.0552 -12.9859 -12.7716  -8.8745  -8.8645
    -8.6930  -8.5782  -8.5685  -8.5232  -8.3626  -8.2722  -8.2667  -8.2624
    -8.2211  -8.2153  -8.1989  -8.1601  -8.1481  -8.1301  -8.1273  -7.9036
    -7.8937  -7.8797  -7.7938  -7.6935  -7.6793  -7.5256  -4.2608  -4.2135
    -3.8399  -3.7627  -3.6288  -3.6069  -3.4126  -3.3378  -3.2244  -3.2150
    -3.1738  -3.1666  -3.1648  -3.0891  -2.7174  -2.7090  -2.6108  -2.5469
    -2.5387  -2.4992  -2.3792  -2.3745  -2.2688  -2.2642  -2.0931  -2.0427
    -2.0386  -1.9468  -1.9405  -1.9170  -1.8586  -1.8208  -1.8140  -1.7894
    -1.7467  -1.6774  -1.6017  -1.5732  -1.5546  -1.4736  -1.4332  -1.3500
    -1.2896  -1.2665  -1.2458  -1.2436  -1.1459  -1.1125  -1.0588  -1.0093
    -1.0022  -0.9870  -0.9808  -0.9808  -0.9435  -0.9378  -0.9243  -0.8517
    -0.8466  -0.8362  -0.8029  -0.7235  -0.7021  -0.6296  -0.5907  -0.3723
    -0.3672  -0.2902  -0.2430  -0.2387  -0.2181  -0.1781   0.0037   0.0459
     0.0651   0.0876   0.1011   0.1817   0.2039   0.2071   0.2193   0.2387
     0.3306   0.4147   0.5991   0.6071   0.6444   0.7232   0.8387   0.8587
     0.8640   0.8938   0.9142   0.9532   1.0089   1.0648   1.0679   1.0833
     1.0982   1.1077   1.1133   1.1644   1.2124   1.2387   1.2409   1.2455
     1.2555   1.2670   1.2875   1.2924   1.4049   1.4452   1.4836   1.4950
     1.5192   1.5542   1.6220   1.6302   1.6592   1.6723   1.7126   1.7350
     1.7373   1.7576   1.7655   1.7820   1.8114   1.8152   1.9373   1.9709
     2.0061   2.0511   2.0632   2.0660   2.0785   2.0786   2.1864   2.2187
     2.2558   2.2833   2.3042   2.3327   2.3376   2.3461   2.4084   2.4085
     2.4131   2.4681   2.4768   2.4931   2.5327   2.5997   2.6971   2.8149
     2.8404   2.9602   4.1728   4.2046   4.2785   4.2965   5.8420   5.9696
     5.9775   6.5383   6.6348   7.3439   7.3531   7.4073   7.7415   7.7944
     7.8898   7.9399   8.0560   8.1378   8.3754   8.4537   8.8226   8.8522
     8.8635   8.9059   9.0169   9.0400   9.0447   9.1101   9.1304   9.1535
     9.1982   9.2489   9.2538   9.3188   9.3638   9.4225   9.4519   9.4864
     9.5421   9.6138

          k = 0.3750 0.0000 0.0000 ( 71180 PWs)   bands (ev):

   -38.2774 -38.2176 -35.9115 -35.8434 -22.9894 -22.9791 -22.9576 -22.9333
   -22.9232 -22.8418 -22.7194 -22.4577 -18.7464 -18.6950 -18.6311 -18.5725
   -18.2813 -18.2205 -17.2746 -17.2094 -17.1919 -17.1293 -16.9427 -16.8715
   -15.4575 -15.4179 -15.1240 -15.1053 -14.9909 -14.9148 -14.8795 -14.8449
   -14.8264 -14.7824 -14.7569 -14.7261 -14.7024 -14.6911 -14.4430 -14.4092
   -14.2938 -14.2642 -14.2366 -14.2163 -14.2021 -14.2007 -14.1967 -14.1848
   -14.1736 -14.0928 -14.0259 -13.9376 -12.9425 -12.7628  -8.2842  -8.2746
    -8.2566  -8.1727  -8.1610  -8.1261  -8.0179  -7.9867  -7.9771  -7.8936
    -7.8839  -7.8689  -7.8589  -7.8350  -7.7840  -7.7708  -7.7609  -7.7091
    -7.7029  -7.6896  -7.6808  -7.5786  -7.3213  -7.2111  -2.9110  -2.8897
    -2.8184  -2.7240  -2.5286  -2.5152  -2.4402  -2.3335  -2.3183  -2.2973
    -2.2624  -2.2298  -2.2089  -2.1991  -2.0750  -2.0411  -2.0223  -1.9712
    -1.9658  -1.9360  -1.9310  -1.8911  -1.7407  -1.7095  -1.6689  -1.6054
    -1.2905  -1.2553  -1.2489  -1.2024  -1.1509  -1.1169  -1.1133  -1.1080
    -1.1046  -1.0448  -1.0358  -1.0269  -0.9588  -0.9386  -0.8901  -0.8615
    -0.8033  -0.7337  -0.7271  -0.6606  -0.6483  -0.6214  -0.6000  -0.5722
    -0.5563  -0.5353  -0.5008  -0.4940  -0.4899  -0.4637  -0.4437  -0.4255
    -0.4237  -0.3997  -0.3320  -0.3249  -0.2949  -0.2556  -0.2260  -0.2049
    -0.1980  -0.1732  -0.1659  -0.1510  -0.1353  -0.0830  -0.0631  -0.0133
     0.0013   0.0826   0.0895   0.0963   0.1032   0.1348   0.1455   0.1926
     0.1992   0.2152   0.2334   0.2664   0.2810   0.2853   0.3223   0.3338
     0.3474   0.3563   0.3762   0.3916   0.4095   0.4340   0.4375   0.4558
     0.5518   0.5694   0.6318   0.6652   0.6656   0.6961   0.7190   0.7271
     0.7374   0.7440   0.8122   0.8667   0.8687   0.8805   0.9951   1.0228
     1.0408   1.1087   1.1250   1.1660   1.1861   1.1949   1.2040   1.2075
     1.2756   1.2974   1.3055   1.3368   1.3493   1.3628   1.3636   1.4000
     1.4001   1.4616   1.4978   1.5670   1.6455   1.6708   1.6992   1.7079
     1.7451   1.7507   1.8079   1.8246   1.8886   1.9255   1.9549   1.9982
     2.0252   2.0531   2.1169   2.2260   2.2367   2.2838   2.3259   2.4268
     2.4484   2.5087   2.5130   2.5348   2.6408   2.6909   5.1905   5.4711
     5.4790   5.8365   6.0308   6.0377   6.1763   6.2519   6.9156   6.9603
     6.9861   7.0285   7.0658   7.2505   7.6620   7.6784   7.7428   7.8164
     7.9376   7.9519   8.0089   8.0760   8.1963   8.2828   8.2978   8.3653
     8.4467   8.5015   8.6787   8.7661   8.9062   8.9204   8.9650   9.0147
     9.0892   9.1122

          k = 0.3750 0.2618 0.0000 ( 71148 PWs)   bands (ev):

   -38.2747 -38.2149 -35.9098 -35.8417 -22.9666 -22.9563 -22.9389 -22.9123
   -22.9022 -22.8193 -22.6990 -22.4367 -18.7079 -18.6564 -18.6240 -18.5654
   -18.3920 -18.3318 -17.2445 -17.1844 -17.1792 -17.1217 -17.0081 -16.9372
   -15.3541 -15.3152 -15.0716 -15.0562 -14.9354 -14.8586 -14.8524 -14.8210
   -14.7807 -14.7515 -14.7201 -14.6983 -14.6792 -14.6539 -14.4062 -14.3701
   -14.3088 -14.2860 -14.2720 -14.2622 -14.2352 -14.1906 -14.1815 -14.1793
   -14.1789 -14.1199 -14.0314 -13.9542 -12.9245 -12.7874  -8.2747  -8.2730
    -8.2592  -8.2189  -8.2086  -8.1666  -8.1562  -8.1389  -8.0826  -8.0724
    -8.0485  -7.9352  -7.9085  -7.8989  -7.8675  -7.7898  -7.7801  -7.7586
    -7.7492  -7.7370  -7.6109  -7.5939  -7.3137  -7.2517  -3.0137  -2.9783
    -2.8537  -2.7633  -2.6516  -2.6254  -2.5404  -2.4471  -2.3495  -2.3368
    -2.3353  -2.3180  -2.2839  -2.2483  -2.2333  -2.2072  -2.1971  -2.1774
    -2.0912  -2.0456  -1.9756  -1.9544  -1.8489  -1.7777  -1.6544  -1.6436
    -1.6040  -1.5638  -1.5559  -1.5471  -1.5419  -1.5376  -1.3413  -1.3065
    -1.2659  -1.2026  -1.1483  -1.0877  -1.0853  -1.0690  -1.0142  -1.0037
    -0.9111  -0.8862  -0.8777  -0.8444  -0.8361  -0.8287  -0.7565  -0.7488
    -0.6750  -0.6728  -0.5545  -0.5137  -0.4748  -0.4275  -0.4092  -0.3588
    -0.3063  -0.2917  -0.2726  -0.2538  -0.2128  -0.2100  -0.1780  -0.1737
    -0.1465  -0.1365  -0.1046  -0.0984  -0.0782  -0.0450  -0.0128  -0.0095
     0.0195   0.0273   0.0578   0.0780   0.1027   0.1635   0.1741   0.2178
     0.2233   0.2246   0.2351   0.2402   0.2528   0.2709   0.2881   0.3033
     0.3315   0.3685   0.3752   0.4005   0.4219   0.5134   0.5422   0.5604
     0.5725   0.6354   0.7280   0.7541   0.7681   0.7994   0.8370   0.8748
     0.8806   0.9124   0.9569   0.9739   0.9880   1.0374   1.0639   1.0706
     1.0921   1.1044   1.1084   1.1093   1.1434   1.1634   1.1892   1.2101
     1.2840   1.3282   1.3310   1.3571   1.3683   1.3882   1.4224   1.4305
     1.4790   1.4813   1.4917   1.5153   1.5447   1.5983   1.6062   1.6118
     1.6396   1.6880   1.6909   1.7242   2.0707   2.1573   2.3225   2.3766
     2.4465   2.4652   2.4916   2.5599   2.6051   2.6244   2.6336   2.6815
     2.7455   2.7585   2.7611   2.7864   2.8908   2.9182   5.3795   5.7714
     5.7789   6.0518   6.2346   6.2419   6.3637   6.4346   7.0649   7.1264
     7.2462   7.2767   7.3099   7.5572   7.7199   7.7890   7.8879   7.9021
     7.9148   8.0261   8.0895   8.1919   8.3317   8.4116   8.4413   8.4737
     8.5305   8.5785   8.6837   8.7850   8.8743   8.8888   8.9800   9.0425
     9.0627   9.0755

          k = 0.3750 0.5236 0.0000 ( 71095 PWs)   bands (ev):

   -38.2682 -38.2084 -35.9057 -35.8376 -22.9105 -22.9001 -22.8932 -22.8606
   -22.8505 -22.7639 -22.6489 -22.3854 -18.6324 -18.6084 -18.6071 -18.5729
   -18.5565 -18.5484 -17.1721 -17.1673 -17.1490 -17.1060 -17.1029 -17.0804
   -15.1250 -15.0907 -14.9567 -14.9449 -14.8396 -14.8018 -14.8016 -14.7040
   -14.6787 -14.6716 -14.6561 -14.6394 -14.5841 -14.5657 -14.4564 -14.4174
   -14.3569 -14.3250 -14.3234 -14.2824 -14.2492 -14.1603 -14.1554 -14.1416
   -14.1380 -14.1270 -14.0549 -13.9875 -12.8819 -12.8493  -8.5106  -8.5007
    -8.3730  -8.3632  -8.3164  -8.2473  -8.2224  -8.2109  -8.1838  -8.1786
    -8.1548  -8.1441  -8.0937  -8.0506  -7.9677  -7.9578  -7.9271  -7.8170
    -7.8114  -7.8071  -7.7686  -7.6367  -7.4657  -7.3588  -3.4354  -3.3867
    -3.1331  -3.0990  -3.0917  -3.0060  -2.8950  -2.8272  -2.5596  -2.5501
    -2.4907  -2.4483  -2.4441  -2.4310  -2.3968  -2.3748  -2.3672  -2.3181
    -2.2885  -2.2772  -2.2749  -2.2199  -2.2138  -2.1882  -2.1667  -2.1578
    -1.9715  -1.9253  -1.8596  -1.8270  -1.7249  -1.6906  -1.6851  -1.6376
    -1.5163  -1.4706  -1.4016  -1.3695  -1.3543  -1.2754  -1.2207  -1.1601
    -1.1460  -1.1139  -1.0583  -1.0456  -1.0147  -0.9960  -0.8350  -0.8149
    -0.8045  -0.7560  -0.7191  -0.6791  -0.6324  -0.6099  -0.6041  -0.5884
    -0.5685  -0.5347  -0.5266  -0.4673  -0.4593  -0.4393  -0.4025  -0.3499
    -0.3366  -0.3165  -0.2723  -0.2651  -0.2221  -0.1952  -0.0358  -0.0307
     0.0834   0.1180   0.1514   0.1599   0.1914   0.2431   0.2783   0.2951
     0.3371   0.3849   0.4201   0.4349   0.4444   0.4968   0.5545   0.6342
     0.6424   0.7216   0.7394   0.7738   0.7958   0.7983   0.8339   0.8404
     0.8725   0.8825   0.9177   0.9335   0.9387   0.9431   0.9593   0.9762
     1.0003   1.0291   1.0460   1.1362   1.1561   1.1739   1.2227   1.2450
     1.2765   1.2864   1.3339   1.3517   1.3685   1.3768   1.3978   1.4003
     1.4091   1.4357   1.4492   1.4738   1.4883   1.5029   1.5125   1.5304
     1.5665   1.5796   1.6108   1.6375   1.6497   1.6709   1.7246   1.7632
     1.7652   1.7720   1.8558   1.8626   2.2372   2.3679   2.4367   2.4535
     2.7092   2.7467   2.8247   2.8829   2.8953   2.9185   2.9527   2.9862
     3.0397   3.0595   3.3369   3.3604   3.4619   3.4962   5.7526   6.4644
     6.4728   6.5149   6.5255   6.6139   6.9113   6.9666   7.0184   7.0823
     7.7977   7.9086   7.9446   7.9843   8.0204   8.0330   8.0673   8.1197
     8.2042   8.2161   8.3807   8.4994   8.5556   8.6621   8.6897   8.7694
     8.8083   8.9191   8.9553   8.9768   8.9821   9.0170   9.0526   9.1078
     9.1567   9.2084

          k = 0.3750 0.7854 0.0000 ( 71150 PWs)   bands (ev):

   -38.2616 -38.2019 -35.9016 -35.8335 -22.8530 -22.8465 -22.8425 -22.8075
   -22.7974 -22.7071 -22.5976 -22.3327 -18.8406 -18.7817 -18.5901 -18.5314
   -18.5036 -18.4512 -17.2834 -17.2124 -17.1528 -17.0896 -17.0843 -17.0193
   -14.9599 -14.9448 -14.8556 -14.8399 -14.8385 -14.7757 -14.6977 -14.6799
   -14.6686 -14.6251 -14.6024 -14.5181 -14.4963 -14.4773 -14.4648 -14.4475
   -14.4049 -14.3974 -14.2547 -14.2287 -14.2233 -14.1699 -14.1034 -14.0909
   -14.0896 -14.0890 -14.0769 -14.0316 -12.9136 -12.8407  -8.7072  -8.6973
    -8.5186  -8.4348  -8.4249  -8.3898  -8.2823  -8.2725  -8.2546  -8.2251
    -8.1980  -8.1860  -8.1683  -8.1575  -8.1296  -8.1247  -8.0916  -7.9682
    -7.9583  -7.8943  -7.7885  -7.7662  -7.7004  -7.5265  -3.9198  -3.8750
    -3.5570  -3.5274  -3.5268  -3.4510  -3.3050  -3.2307  -2.9790  -2.9701
    -2.9536  -2.9457  -2.9446  -2.8813  -2.6221  -2.6125  -2.5241  -2.4532
    -2.3982  -2.3910  -2.2692  -2.2591  -2.2582  -2.2270  -2.2265  -2.1298
    -2.1256  -2.0880  -1.9596  -1.9370  -1.9162  -1.8844  -1.7938  -1.7641
    -1.7514  -1.7287  -1.6843  -1.6022  -1.4716  -1.4279  -1.3920  -1.2700
    -1.2630  -1.2328  -1.2259  -1.2051  -1.0746  -1.0452  -1.0107  -0.9590
    -0.9277  -0.9153  -0.8799  -0.8612  -0.8259  -0.8100  -0.8098  -0.7769
    -0.7729  -0.7303  -0.6931  -0.6631  -0.6179  -0.6142  -0.5552  -0.4528
    -0.4452  -0.3669  -0.3631  -0.3462  -0.2430  -0.2127  -0.0086   0.0464
     0.1361   0.2113   0.2338   0.2460   0.2667   0.3361   0.3550   0.3695
     0.3724   0.4699   0.4864   0.5346   0.6560   0.7255   0.7535   0.7780
     0.8345   0.8527   0.8763   0.8865   0.9356   0.9455   0.9479   0.9889
     1.0132   1.0623   1.1170   1.1324   1.1739   1.1782   1.1951   1.2059
     1.2382   1.2545   1.2757   1.2849   1.3112   1.3307   1.3470   1.3540
     1.4354   1.4588   1.4914   1.5109   1.5403   1.5539   1.5684   1.5890
     1.6060   1.6369   1.6461   1.6616   1.6842   1.6927   1.7092   1.7620
     1.7742   1.7963   1.8168   1.8720   1.8846   1.9704   2.0313   2.0461
     2.0923   2.1796   2.1875   2.2654   2.2736   2.3324   2.3731   2.4256
     2.7126   2.7344   2.7608   2.8133   2.8412   2.8976   2.9023   2.9562
     3.1377   3.1628   3.7195   3.7483   3.8423   3.8663   5.9742   6.3890
     6.3984   6.7464   6.8210   6.9509   6.9647   7.1298   7.4397   7.5050
     7.7638   7.9760   8.0089   8.0434   8.3844   8.4848   8.5049   8.5272
     8.5819   8.6707   8.7381   8.7564   8.9385   9.0517   9.1329   9.1659
     9.1709   9.2096   9.2735   9.3074   9.3414   9.3726   9.4843   9.5101
     9.5853   9.6177

          k = 0.3750-1.0472 0.0000 ( 71134 PWs)   bands (ev):

   -38.2589 -38.1992 -35.8999 -35.8318 -22.8287 -22.8269 -22.8182 -22.7850
   -22.7750 -22.6831 -22.5759 -22.3105 -18.9211 -18.8624 -18.5831 -18.5243
   -18.4567 -18.4040 -17.3339 -17.2630 -17.1468 -17.0835 -17.0478 -16.9828
   -14.9873 -14.9622 -14.8392 -14.8177 -14.7370 -14.7218 -14.6946 -14.6900
   -14.6351 -14.6306 -14.6085 -14.4663 -14.4542 -14.4526 -14.4367 -14.4135
   -14.4089 -14.3850 -14.2254 -14.2130 -14.1801 -14.1634 -14.1191 -14.0772
   -14.0750 -14.0700 -14.0657 -14.0585 -12.9402 -12.8241  -8.7430  -8.7331
    -8.5704  -8.4401  -8.4352  -8.4303  -8.4149  -8.4050  -8.2579  -8.2396
    -8.2194  -8.2001  -8.1866  -8.1752  -8.1654  -8.1624  -8.1274  -8.0703
    -8.0604  -7.8822  -7.8449  -7.7912  -7.7700  -7.6520  -4.1159  -4.0730
    -3.7196  -3.7162  -3.6918  -3.6418  -3.4706  -3.3917  -3.2130  -3.2038
    -3.1855  -3.1764  -3.1584  -3.0967  -2.6272  -2.6172  -2.5131  -2.4390
    -2.4162  -2.3979  -2.3894  -2.3791  -2.2594  -2.2520  -2.1760  -2.0757
[...]
    -2.1019  -2.0599  -1.9729  -1.9578  -1.8493  -1.7738  -1.6487  -1.6469
    -1.5918  -1.5526  -1.5510  -1.5505  -1.5416  -1.5341  -1.2222  -1.2191
    -1.1962  -1.1530  -1.1178  -1.1072  -1.0889  -1.0742  -1.0638  -1.0250
    -1.0056  -0.9867  -0.9819  -0.9199  -0.8701  -0.8405  -0.7445  -0.7293
    -0.6439  -0.6188  -0.6163  -0.5746  -0.4728  -0.4184  -0.3789  -0.3515
    -0.3263  -0.3017  -0.2824  -0.2735  -0.2224  -0.2209  -0.1633  -0.1612
    -0.1609  -0.1350  -0.0935  -0.0789  -0.0768  -0.0391  -0.0196  -0.0145
     0.0193   0.0348   0.0717   0.0816   0.0965   0.1715   0.1786   0.2134
     0.2277   0.2308   0.2511   0.2674   0.2782   0.2834   0.3075   0.3098
     0.3275   0.3295   0.3487   0.4086   0.4334   0.5214   0.5331   0.5763
     0.6116   0.6536   0.7262   0.7544   0.7673   0.7846   0.7930   0.8115
     0.8905   0.9030   0.9207   0.9330   0.9795   1.0487   1.1023   1.1107
     1.1189   1.1229   1.1316   1.1322   1.1594   1.2061   1.2245   1.2553
     1.2587   1.2664   1.2799   1.3281   1.3344   1.3756   1.4144   1.4199
     1.4249   1.4352   1.4813   1.4859   1.5849   1.6187   1.6239   1.6259
     1.6310   1.6371   1.6900   1.6961   2.1521   2.1641   2.4258   2.4551
     2.4596   2.4674   2.5171   2.5954   2.6081   2.6363   2.6795   2.6900
     2.7301   2.7699   2.7713   2.7778   2.8258   2.8522   5.4447   5.9505
     5.9766   5.9832   5.9932   6.0006   6.4853   6.5511   6.9226   6.9951
     7.4511   7.5592   7.5659   7.6000   7.6157   7.7151   7.7387   7.8233
     7.8738   8.0513   8.0963   8.1218   8.3245   8.4415   8.4833   8.5118
     8.5647   8.6788   8.7126   8.7519   8.7984   8.8138   8.9637   8.9885
     9.0049   9.0518

          k =-0.5000 0.5236 0.0000 ( 71094 PWs)   bands (ev):

   -38.2682 -38.2084 -35.9057 -35.8376 -22.9004 -22.8928 -22.8898 -22.8708
   -22.8609 -22.7606 -22.6525 -22.3860 -18.6324 -18.6078 -18.6038 -18.5729
   -18.5559 -18.5451 -17.1778 -17.1733 -17.1495 -17.1150 -17.1060 -17.0807
   -15.0653 -15.0344 -14.9694 -14.9552 -14.8372 -14.8214 -14.7981 -14.7225
   -14.6812 -14.6787 -14.6694 -14.6430 -14.5792 -14.5742 -14.4583 -14.4218
   -14.3708 -14.3334 -14.3215 -14.2781 -14.2429 -14.1531 -14.1529 -14.1421
   -14.1410 -14.1288 -14.0552 -13.9880 -12.8677 -12.8624  -8.4766  -8.4667
    -8.4475  -8.4377  -8.2827  -8.2490  -8.2463  -8.2218  -8.2104  -8.1745
    -8.1542  -8.1436  -8.0944  -8.0862  -7.9271  -7.8775  -7.8678  -7.8667
    -7.8568  -7.7690  -7.7481  -7.6633  -7.4092  -7.3908  -3.3117  -3.2654
    -3.2241  -3.1858  -2.9786  -2.9575  -2.8909  -2.8887  -2.5209  -2.5124
    -2.4821  -2.4730  -2.4268  -2.4266  -2.3710  -2.3606  -2.3604  -2.3475
    -2.3356  -2.3334  -2.3223  -2.3086  -2.2154  -2.2084  -2.1937  -2.1867
    -1.9600  -1.9320  -1.6992  -1.6856  -1.6698  -1.6501  -1.6405  -1.6113
    -1.5599  -1.5555  -1.5309  -1.4993  -1.4640  -1.3903  -1.2207  -1.2034
    -1.1491  -1.1199  -1.0806  -1.0292  -1.0064  -0.9895  -0.8489  -0.8337
    -0.7638  -0.7540  -0.7300  -0.6958  -0.6064  -0.6028  -0.5924  -0.5805
    -0.5571  -0.5245  -0.4930  -0.4904  -0.4797  -0.4570  -0.4096  -0.3900
    -0.3323  -0.3262  -0.3203  -0.2792  -0.2192  -0.2053  -0.0353  -0.0340
     0.1281   0.1319   0.1600   0.1941   0.2439   0.2454   0.2858   0.3421
     0.3450   0.3753   0.4147   0.4165   0.4847   0.5525   0.5749   0.6360
     0.6480   0.7095   0.7552   0.8024   0.8049   0.8209   0.8336   0.8394
     0.8453   0.8567   0.9060   0.9195   0.9218   0.9233   0.9305   0.9324
     0.9886   1.0084   1.0324   1.1423   1.1793   1.1888   1.2181   1.2803
     1.2981   1.2988   1.3005   1.3106   1.3522   1.3531   1.3627   1.3840
     1.4122   1.4235   1.4374   1.4531   1.5010   1.5183   1.5370   1.5495
     1.5647   1.5826   1.6024   1.6102   1.6407   1.6784   1.7165   1.7588
     1.8081   1.8112   1.8122   1.8199   2.3395   2.3503   2.4534   2.4604
     2.8782   2.8817   2.9159   2.9499   2.9529   2.9758   3.0544   3.0789
     3.1023   3.1322   3.1966   3.2313   3.2676   3.3044   5.7732   6.4895
     6.4991   6.5174   6.5266   6.5909   6.9669   7.0169   7.0223   7.0743
     7.8338   7.8767   7.9278   7.9950   8.0400   8.0525   8.1466   8.1551
     8.1687   8.1774   8.4784   8.5741   8.6202   8.6805   8.7333   8.7634
     8.8406   8.8863   8.9261   8.9525   8.9644   8.9787   9.0054   9.0985
     9.1067   9.2210

          k =-0.5000 0.7854 0.0000 ( 71114 PWs)   bands (ev):

   -38.2616 -38.2019 -35.9016 -35.8335 -22.8461 -22.8451 -22.8346 -22.8154
   -22.8055 -22.7044 -22.6003 -22.3332 -18.8406 -18.7817 -18.5870 -18.5282
   -18.5031 -18.4506 -17.2833 -17.2123 -17.1619 -17.0988 -17.0864 -17.0214
   -14.9198 -14.9030 -14.8874 -14.8763 -14.7939 -14.7290 -14.6958 -14.6757
   -14.6553 -14.6144 -14.6114 -14.5524 -14.5137 -14.5014 -14.4623 -14.4613
   -14.4210 -14.4152 -14.2498 -14.2312 -14.2134 -14.1759 -14.0994 -14.0930
   -14.0871 -14.0868 -14.0804 -14.0340 -12.8816 -12.8734  -8.6032  -8.5933
    -8.5647  -8.5548  -8.4334  -8.3610  -8.3515  -8.2251  -8.2015  -8.1892
    -8.1865  -8.1760  -8.1463  -8.1203  -8.1070  -8.1062  -8.0968  -8.0964
    -8.0043  -7.8907  -7.8508  -7.7896  -7.6399  -7.6144  -3.8204  -3.7801
    -3.6326  -3.5963  -3.4358  -3.3712  -3.3637  -3.2786  -2.9668  -2.9658
    -2.9579  -2.9568  -2.9409  -2.8854  -2.5417  -2.5318  -2.4642  -2.4529
    -2.4039  -2.3866  -2.3174  -2.2978  -2.2387  -2.2280  -2.2086  -2.1965
    -2.1145  -2.0780  -1.9813  -1.9472  -1.9436  -1.9244  -1.8517  -1.8383
    -1.7961  -1.7918  -1.6685  -1.6236  -1.5380  -1.4892  -1.3158  -1.2850
    -1.2765  -1.2641  -1.2264  -1.2103  -1.0282  -1.0119  -0.9983  -0.9774
    -0.9355  -0.9121  -0.9090  -0.8847  -0.8027  -0.8004  -0.7889  -0.7856
    -0.7383  -0.6834  -0.6743  -0.6499  -0.6263  -0.5947  -0.5145  -0.5022
    -0.4820  -0.4575  -0.4132  -0.3914  -0.2457  -0.2176   0.0038   0.0331
     0.2106   0.2229   0.2953   0.2992   0.3081   0.3174   0.3846   0.4047
     0.4239   0.4543   0.5058   0.5895   0.6134   0.8016   0.8127   0.8129
     0.8396   0.8407   0.8636   0.8899   0.8968   0.9259   0.9302   0.9575
     0.9845   1.0246   1.1103   1.1461   1.1525   1.1666   1.1933   1.1994
     1.1995   1.2308   1.2572   1.2825   1.2950   1.3609   1.4022   1.4105
     1.4306   1.4429   1.4529   1.4617   1.5198   1.5670   1.5860   1.6175
     1.6196   1.6339   1.6457   1.6480   1.6692   1.6791   1.6807   1.7037
     1.7618   1.7750   1.7935   1.8064   1.8853   1.9858   2.0489   2.0572
     2.2177   2.2248   2.2281   2.2365   2.2503   2.2528   2.3658   2.3759
     2.7587   2.7665   2.7868   2.8161   2.9204   2.9498   3.2951   3.3258
     3.3308   3.3603   3.4669   3.4989   3.5088   3.5315   6.0231   6.6357
     6.6444   6.6588   6.6846   6.8611   6.9257   7.1290   7.3728   7.4404
     7.7221   7.9680   7.9979   8.0054   8.4284   8.4753   8.5432   8.5610
     8.5654   8.6397   8.6618   8.7007   9.0345   9.0602   9.0957   9.1906
     9.2931   9.3617   9.3923   9.3987   9.4277   9.4577   9.4718   9.5054
     9.5669   9.5679

          k =-0.5000-1.0472 0.0000 ( 71164 PWs)   bands (ev):

   -38.2589 -38.1992 -35.8999 -35.8318 -22.8265 -22.8218 -22.8112 -22.7920
   -22.7821 -22.6807 -22.5783 -22.3109 -18.9211 -18.8624 -18.5799 -18.5211
   -18.4562 -18.4035 -17.3339 -17.2630 -17.1556 -17.0924 -17.0498 -16.9848
   -14.9525 -14.9231 -14.8722 -14.8584 -14.7310 -14.6958 -14.6646 -14.6376
   -14.6340 -14.6082 -14.5861 -14.5027 -14.4804 -14.4660 -14.4537 -14.4397
   -14.4290 -14.4011 -14.1984 -14.1965 -14.1927 -14.1911 -14.1194 -14.0750
   -14.0741 -14.0733 -14.0627 -14.0618 -12.8897 -12.8774  -8.6066  -8.5967
    -8.5559  -8.5461  -8.4545  -8.3909  -8.3771  -8.2817  -8.2716  -8.2581
    -8.2488  -8.2178  -8.1803  -8.1778  -8.1675  -8.1668  -8.1386  -8.1295
    -8.1049  -7.9547  -7.8817  -7.8153  -7.7869  -7.7254  -4.0203  -3.9819
    -3.7920  -3.7574  -3.6305  -3.5654  -3.5276  -3.4401  -3.1997  -3.1988
    -3.1907  -3.1897  -3.1543  -3.1005  -2.5465  -2.5374  -2.4423  -2.4291
    -2.3855  -2.3300  -2.3134  -2.2784  -2.2778  -2.2661  -2.1936  -2.1805
    -2.1747  -2.1427  -2.1150  -2.0950  -2.0410  -1.9597  -1.9481  -1.9471
    -1.9174  -1.9007  -1.6857  -1.6428  -1.5658  -1.5190  -1.3520  -1.3293
    -1.3172  -1.3120  -1.2848  -1.2737  -1.1118  -1.0749  -1.0273  -1.0030
    -0.9978  -0.9726  -0.9239  -0.9001  -0.8826  -0.8823  -0.8717  -0.8630
    -0.7783  -0.7527  -0.7347  -0.7025  -0.6975  -0.6015  -0.5204  -0.5169
    -0.5020  -0.4796  -0.4294  -0.4071  -0.2491  -0.2192   0.0254   0.0618
     0.2421   0.2481   0.3131   0.3208   0.3548   0.3692   0.3775   0.3980
     0.4016   0.4446   0.5244   0.6316   0.6386   0.8500   0.8519   0.9009
     0.9122   0.9318   0.9505   0.9867   0.9881   1.0184   1.0220   1.0678
     1.0732   1.0743   1.1372   1.1654   1.1813   1.1986   1.2125   1.2384
     1.2522   1.2898   1.3003   1.3169   1.3199   1.3395   1.3635   1.3694
     1.4155   1.4443   1.4567   1.5709   1.6382   1.6522   1.7045   1.7192
     1.7238   1.7534   1.8208   1.8510   1.8664   1.8783   1.9374   1.9448
     1.9686   1.9987   2.0123   2.0490   2.0499   2.0609   2.0625   2.1773
     2.2046   2.2637   2.2959   2.3369   2.3975   2.4059   2.4064   2.4152
     2.5519   2.5544   2.5935   2.6137   2.7995   2.8747   3.3166   3.3470
     3.3802   3.4124   3.4755   3.5080   3.5871   3.6082   6.0925   6.5792
     6.5876   6.5983   6.6317   6.7864   6.8497   7.1839   7.3935   7.4548
     7.7873   8.0182   8.0804   8.0846   8.3269   8.7336   8.7765   8.9130
     8.9883   9.0288   9.0552   9.1679   9.2286   9.2342   9.2435   9.2617
     9.3094   9.3612   9.4642   9.4683   9.6022   9.6381   9.6381   9.6511
     9.6566   9.6651

     the Fermi energy is     2.5778 ev

!    total energy              =   -3711.54210515 Ry
     Harris-Foulkes estimate   =   -3711.54210516 Ry
     estimated scf accuracy    <          3.6E-09 Ry

     The total energy is the sum of the following terms:

     one-electron contribution =  -57772.66064330 Ry
     hartree contribution      =   29190.48857555 Ry
     xc contribution           =   -1263.80129096 Ry
     ewald contribution        =   26134.45055569 Ry
     smearing contrib. (-TS)   =      -0.01930215 Ry

     convergence has been achieved in  35 iterations

     negative rho (up, down):  9.193E-02 0.000E+00

     Forces acting on atoms (cartesian axes, Ry/au):

     atom    1 type  4   force =    -0.00001091    0.00000000   -0.00045389
     atom    2 type  4   force =     0.00001091    0.00000000   -0.00045389
     atom    3 type  3   force =    -0.00000707    0.00000000    0.00010997
     atom    4 type  3   force =     0.00000707    0.00000000    0.00010997
     atom    5 type  4   force =     0.00000125    0.00000000    0.00007953
     atom    6 type  4   force =    -0.00000125    0.00000000    0.00007953
     atom    7 type  1   force =     0.00000000    0.00000000   -0.00035933
     atom    8 type  1   force =     0.00000000    0.00000000   -0.00032844
     atom    9 type  3   force =     0.00012677    0.00000000   -0.00028257
     atom   10 type  3   force =    -0.00012677    0.00000000   -0.00028257
     atom   11 type  4   force =     0.00000000    0.00000000    0.00101921
     atom   12 type  4   force =     0.00003834    0.00000000    0.00122932
     atom   13 type  4   force =    -0.00003834    0.00000000    0.00122932
     atom   14 type  4   force =     0.00000000    0.00000000    0.00133506
     atom   15 type  2   force =     0.00000000    0.00000000   -0.00299238
     atom   16 type  5   force =     0.00000000    0.00000000   -0.00443885
     atom   17 type  4   force =     0.00086310    0.00000000    0.00557344
     atom   18 type  4   force =    -0.00086310    0.00000000    0.00557344
     atom   19 type  4   force =     0.00000000    0.00000000    0.00369847
     atom   20 type  4   force =     0.00000000    0.00000000    0.00478436
     atom   21 type  3   force =     0.00048576    0.00000000   -0.00149529
     atom   22 type  3   force =    -0.00048576    0.00000000   -0.00149529
     atom   23 type  1   force =     0.00000000    0.00000000    0.00730961
     atom   24 type  1   force =     0.00000000    0.00000000    0.01356355
     atom   25 type  4   force =     0.00237900    0.00000000   -0.01663506
     atom   26 type  4   force =    -0.00237900    0.00000000   -0.01663506
     atom   27 type  4   force =    -0.01120619    0.00000000    0.02797651
     atom   28 type  4   force =     0.01120619    0.00000000    0.02797651
     atom   29 type  3   force =     0.01118256    0.00000000   -0.01751760
     atom   30 type  3   force =    -0.01118256    0.00000000   -0.01751760
     atom   31 type  4   force =     0.01361762    0.00000000    0.02187858
     atom   32 type  4   force =    -0.01361762    0.00000000    0.02187858
     atom   33 type  1   force =     0.00000000    0.00000000   -0.01215308
     atom   34 type  1   force =     0.00000000    0.00000000   -0.01818429
     atom   35 type  3   force =    -0.00333891    0.00000000   -0.02044186
     atom   36 type  3   force =     0.00333891    0.00000000   -0.02044186
     atom   37 type  4   force =     0.00000000    0.00000000    0.00369677
     atom   38 type  4   force =     0.00000000    0.00000000    0.00110385
     atom   39 type  4   force =     0.00273863    0.00000000    0.00073572
     atom   40 type  4   force =    -0.00273863    0.00000000    0.00073572
     atom   41 type  5   force =     0.00000000    0.00000000    0.00191118
     atom   42 type  2   force =     0.00000000    0.00000000    0.00028435
     atom   43 type  4   force =     0.00000000    0.00000000    0.00018909
     atom   44 type  4   force =     0.00003374    0.00000000   -0.00119620
     atom   45 type  4   force =    -0.00003374    0.00000000   -0.00119620
     atom   46 type  4   force =     0.00000000    0.00000000   -0.00004946
     atom   47 type  3   force =    -0.00004060    0.00000000    0.00030403
     atom   48 type  3   force =     0.00004060    0.00000000    0.00030403
     atom   49 type  1   force =     0.00000000    0.00000000    0.00017571
     atom   50 type  1   force =     0.00000000    0.00000000    0.00022284
     atom   51 type  4   force =    -0.00004089    0.00000000   -0.00071986
     atom   52 type  4   force =     0.00004089    0.00000000   -0.00071986
     atom   53 type  3   force =    -0.00003632    0.00000000    0.00080902
     atom   54 type  3   force =     0.00003632    0.00000000    0.00080902
     atom   55 type  4   force =     0.00002419    0.00000000   -0.00034788
     atom   56 type  4   force =    -0.00002419    0.00000000   -0.00034788

     Total force =     0.079550     Total SCF correction =     0.000255


     Computing stress (Cartesian axis) and pressure


     negative rho (up, down):  9.193E-02 0.000E+00
          total   stress  (Ry/bohr**3)                   (kbar)     P=       -6.22
  -0.00000209   0.00000000   0.00000000           -0.31        0.00        0.00
   0.00000000  -0.00008383   0.00000000            0.00      -12.33        0.00
   0.00000000   0.00000000  -0.00004097            0.00        0.00       -6.03

 
     init_run     :     24.47s CPU     25.58s WALL (       1 calls)
     electrons    :   1741.80s CPU   1822.80s WALL (       1 calls)
     forces       :     10.78s CPU     11.46s WALL (       1 calls)
     stress       :    103.61s CPU    105.45s WALL (       1 calls)

     Called by init_run:
     wfcinit      :     20.08s CPU     20.51s WALL (       1 calls)
     potinit      :      1.00s CPU      1.02s WALL (       1 calls)
     hinit0       :      1.58s CPU      1.60s WALL (       1 calls)

     Called by electrons:
     c_bands      :   1462.50s CPU   1501.71s WALL (      35 calls)
     sum_band     :    212.75s CPU    235.63s WALL (      35 calls)
     v_of_rho     :      4.10s CPU      4.16s WALL (      36 calls)
     newd         :     31.92s CPU     51.00s WALL (      36 calls)
     mix_rho      :     31.04s CPU     31.33s WALL (      35 calls)

     Called by c_bands:
     init_us_2    :      8.24s CPU      8.32s WALL (    1825 calls)
     cegterg      :   1395.49s CPU   1433.55s WALL (     875 calls)

     Called by sum_band:
     sum_band:bec :      0.95s CPU      0.95s WALL (     875 calls)
     addusdens    :     32.93s CPU     53.40s WALL (      35 calls)

     Called by *egterg:
     h_psi        :    656.82s CPU    670.98s WALL (    4540 calls)
     s_psi        :     98.67s CPU     99.24s WALL (    4540 calls)
     g_psi        :      1.45s CPU      1.47s WALL (    3640 calls)
     cdiaghg      :    327.81s CPU    329.08s WALL (    4515 calls)

     Called by h_psi:
     h_psi:calbec :    109.56s CPU    110.08s WALL (    4540 calls)
     vloc_psi     :    445.01s CPU    451.66s WALL (    4540 calls)
     add_vuspsi   :     99.47s CPU     99.97s WALL (    4540 calls)

     General routines
     calbec       :    186.68s CPU    187.45s WALL (    5540 calls)
     fft          :      3.63s CPU      3.66s WALL (     491 calls)
     ffts         :     17.56s CPU     17.71s WALL (   19101 calls)
     fftw         :    510.25s CPU    517.70s WALL ( 1243792 calls)
     interpolate  :      0.30s CPU      0.30s WALL (      36 calls)
 
     Parallel routines
     fft_scatt_xy :     58.36s CPU     59.27s WALL ( 1263384 calls)
     fft_scatt_yz :    334.85s CPU    339.69s WALL ( 1263384 calls)
 
     PWSCF        :  31m21.82s CPU  32m46.58s WALL

 
   This run was terminated on:  10:33: 8  28May2021            

=------------------------------------------------------------------------------=
   JOB DONE.
=------------------------------------------------------------------------------=
[1622212388.232491] [holy7c04108:100022:0]          mpool.c:43   UCX  WARN  object 0x47de700 was not returned to mpool ucp_requests
[1622212388.234158] [holy7c04112:122383:0]          mpool.c:43   UCX  WARN  object 0x3bc15c0 was not returned to mpool ucp_requests
[1622212388.234178] [holy7c04112:122383:0]          mpool.c:43   UCX  WARN  object 0x3bc1780 was not returned to mpool ucp_requests
[1622212388.242781] [holy7c04109:259674:0]          mpool.c:43   UCX  WARN  object 0x29a06c0 was not returned to mpool ucp_requests
[1622212388.242806] [holy7c04109:259674:0]          mpool.c:43   UCX  WARN  object 0x29a0880 was not returned to mpool ucp_requests
[1622212388.249616] [holy7c04203:262166:0]          mpool.c:43   UCX  WARN  object 0x44f3b80 was not returned to mpool ucp_requests
[1622212388.251332] [holy7c04111:140027:0]          mpool.c:43   UCX  WARN  object 0x46d3ec0 was not returned to mpool ucp_requests
[1622212388.240230] [holy7c04108:100021:0]          mpool.c:43   UCX  WARN  object 0x3a7ad00 was not returned to mpool ucp_requests
[1622212388.241740] [holy7c04108:100023:0]          mpool.c:43   UCX  WARN  object 0x29fde40 was not returned to mpool ucp_requests
[1622212388.241756] [holy7c04108:100023:0]          mpool.c:43   UCX  WARN  object 0x29fe1c0 was not returned to mpool ucp_requests
[1622212388.249118] [holy7c04203:262165:0]          mpool.c:43   UCX  WARN  object 0x3b5dfc0 was not returned to mpool ucp_requests
[1622212388.252710] [holy7c04111:140023:0]          mpool.c:43   UCX  WARN  object 0x36d5a00 was not returned to mpool ucp_requests
[1622212388.261460] [holy7c04111:140024:0]          mpool.c:43   UCX  WARN  object 0x3fb48c0 was not returned to mpool ucp_requests
[1622212388.261488] [holy7c04111:140024:0]          mpool.c:43   UCX  WARN  object 0x3fb4e00 was not returned to mpool ucp_requests
[1622212388.247207] [holy7c04111:140031:0]          mpool.c:43   UCX  WARN  object 0x3112680 was not returned to mpool ucp_requests
[1622212388.250921] [holy7c04111:140029:0]          mpool.c:43   UCX  WARN  object 0x37bc180 was not returned to mpool ucp_requests
[1622212388.250956] [holy7c04111:140029:0]          mpool.c:43   UCX  WARN  object 0x37bc880 was not returned to mpool ucp_requests
[1622212388.254550] [holy7c04111:140032:0]          mpool.c:43   UCX  WARN  object 0x2c447c0 was not returned to mpool ucp_requests
