
     Program PWSCF v.6.5 starts on 28May2021 at 10: 5: 0 

     This program is part of the open-source Quantum ESPRESSO suite
     for quantum simulation of materials; please cite
         "P. Giannozzi et al., J. Phys.:Condens. Matter 21 395502 (2009);
         "P. Giannozzi et al., J. Phys.:Condens. Matter 29 465901 (2017);
          URL http://www.quantum-espresso.org", 
     in publications or presentations arising from this work. More details at
     http://www.quantum-espresso.org/quote

     Parallel version (MPI), running on    32 processors

     MPI processes distributed on     7 nodes
     R & G space division:  proc/nbgrp/npool/nimage =      32
     Reading input from YCBCO50_212_Y_cleave_2.25_sep.pwi
Warning: card &IONS ignored
Warning: card     ION_DYNAMICS = 'BFGS' ignored
Warning: card / ignored
Warning: card &CELL ignored
Warning: card     CELL_DYNAMICS = 'BFGS' ignored
Warning: card     PRESS_CONV_THR = 5 ignored
Warning: card / ignored

     Current dimensions of program PWSCF are:
     Max number of different atomic species (ntypx) = 10
     Max number of k-points (npk) =  40000
     Max angular momentum in pseudopotentials (lmaxx) =  3

     Subspace diagonalization in iterative solution of the eigenvalue problem:
     one sub-group per band group will be used
     scalapack distributed-memory algorithm (size of sub-group:  5*  5 procs)

     Message from routine setup:
     using ibrav=0 with symmetry is DISCOURAGED, use correct ibrav instead
 
     Parallelization info
     --------------------
     sticks:   dense  smooth     PW     G-vecs:    dense   smooth      PW
     Min         188      62     17                93398    17968    2679
     Max         189      63     18                93428    18017    2722
     Sum        6019    2003    565              2989253   575753   86561
 


     bravais-lattice index     =            0
     lattice parameter (alat)  =      14.8133  a.u.
     unit-cell volume          =    9162.7262 (a.u.)^3
     number of atoms/cell      =           56
     number of atomic types    =            5
     number of electrons       =       456.00
     number of Kohn-Sham states=          274
     kinetic-energy cutoff     =      60.0000  Ry
     charge density cutoff     =     720.0000  Ry
     convergence threshold     =      1.0E-08
     mixing beta               =       0.5000
     number of iterations used =           10  local-TF  mixing
     Exchange-correlation= SLA PW PBE PBE
                           (   1   4   3   4   0   0   0)

     celldm(1)=  14.813271  celldm(2)=   0.000000  celldm(3)=   0.000000
     celldm(4)=   0.000000  celldm(5)=   0.000000  celldm(6)=   0.000000

     crystal axes: (cart. coord. in units of alat)
               a(1) = (   1.000000   0.000000   0.000000 )  
               a(2) = (   0.000000   0.477453   0.000000 )  
               a(3) = (   0.000000   0.000000   5.903933 )  

     reciprocal axes: (cart. coord. in units 2 pi/alat)
               b(1) = (  1.000000  0.000000  0.000000 )  
               b(2) = (  0.000000  2.094448  0.000000 )  
               b(3) = (  0.000000  0.000000  0.169379 )  


     PseudoPot. # 1 for Ba read from file:
     ./pseudo/Ba.pbe-nsp-van.UPF
     MD5 check sum: 2b9c31dd849566dd297d80989662b7a0
     Pseudo is Ultrasoft + core correction, Zval = 10.0
     Generated by new atomic code, or converted to UPF format
     Using radial grid of  907 points,  6 beta functions with: 
                l(1) =   0
                l(2) =   0
                l(3) =   1
                l(4) =   1
                l(5) =   2
                l(6) =   2
     Q(r) pseudized with  6 coefficients,  rinner =    1.200   1.200   1.200
                                                       1.200   1.200

     PseudoPot. # 2 for Ca read from file:
     ./pseudo/Ca.pbe-nsp-van.UPF
     MD5 check sum: 6471098428ff4fa451746d08035ff179
     Pseudo is Ultrasoft + core correction, Zval = 10.0
     Generated by new atomic code, or converted to UPF format
     Using radial grid of  845 points,  6 beta functions with: 
                l(1) =   0
                l(2) =   0
                l(3) =   1
                l(4) =   1
                l(5) =   2
                l(6) =   2
     Q(r) pseudized with  6 coefficients,  rinner =    1.200   1.200   1.200
                                                       1.200   1.200

     PseudoPot. # 3 for Cu read from file:
     ./pseudo/Cu.pbe-n-van_ak.UPF
     MD5 check sum: 34e3282627ffb533726feb647e090d62
     Pseudo is Ultrasoft + core correction, Zval = 11.0
     Generated by new atomic code, or converted to UPF format
     Using radial grid of  867 points,  6 beta functions with: 
                l(1) =   0
                l(2) =   0
                l(3) =   1
                l(4) =   1
                l(5) =   2
                l(6) =   2
     Q(r) pseudized with  8 coefficients,  rinner =    1.400   1.400   1.400
                                                       1.400   1.400

     PseudoPot. # 4 for O  read from file:
     ./pseudo/O.pbe-van_ak.UPF
     MD5 check sum: 783ce7fe4c79b6a4916957118fed0856
     Pseudo is Ultrasoft, Zval =  6.0
     Generated by new atomic code, or converted to UPF format
     Using radial grid of  737 points,  4 beta functions with: 
                l(1) =   0
                l(2) =   0
                l(3) =   1
                l(4) =   1
     Q(r) pseudized with  8 coefficients,  rinner =    0.800   0.800   0.800


     PseudoPot. # 5 for Y  read from file:
     ./pseudo/Y.pbe-nsp-van.UPF
     MD5 check sum: 4412fed3ab108fed87a1b7d6a69a4a38
     Pseudo is Ultrasoft + core correction, Zval = 11.0
     Generated by new atomic code, or converted to UPF format
     Using radial grid of  885 points,  6 beta functions with: 
                l(1) =   0
                l(2) =   0
                l(3) =   1
                l(4) =   1
                l(5) =   2
                l(6) =   2
     Q(r) pseudized with  6 coefficients,  rinner =    1.200   1.200   1.200
                                                       1.200   1.200

     atomic species   valence    mass     pseudopotential
        Ba            10.00   137.32700     Ba( 1.00)
        Ca            10.00    40.07800     Ca( 1.00)
        Cu            11.00    63.54600     Cu( 1.00)
        O              6.00    15.99900     O ( 1.00)
        Y             11.00    88.90584     Y ( 1.00)

      4 Sym. Ops. (no inversion) found ( 2 have fractional translation)



   Cartesian axes

     site n.     atom                  positions (alat units)
         1           O   tau(   1) = (  -0.0008343   0.2387265  -0.0222443  )
         2           O   tau(   2) = (   0.5008340   0.2387265  -0.0222443  )
         3           Cu  tau(   3) = (   0.5017257   0.0000000   0.0109608  )
         4           Cu  tau(   4) = (  -0.0017260   0.0000000   0.0109608  )
         5           O   tau(   5) = (  -0.0028933   0.0000000   0.2506504  )
         6           O   tau(   6) = (   0.5028929   0.0000000   0.2506504  )
         7           Ba  tau(   7) = (   0.7499995   0.2387265   0.2749435  )
         8           Ba  tau(   8) = (   0.2499998   0.2387265   0.2755214  )
         9           Cu  tau(   9) = (   0.4980963   0.0000000   0.5208446  )
        10           Cu  tau(  10) = (   0.0019033   0.0000000   0.5208446  )
        11           O   tau(  11) = (   0.2499998   0.0000000   0.5341884  )
        12           O   tau(  12) = (   0.5083351   0.2387265   0.5569851  )
        13           O   tau(  13) = (  -0.0083354   0.2387265   0.5569851  )
        14           O   tau(  14) = (   0.7499995   0.0000000   0.5573831  )
        15           Ca  tau(  15) = (   0.2499998   0.2387265   0.7436937  )
        16           Y   tau(  16) = (   0.7499995   0.2387265   0.7469544  )
        17           O   tau(  17) = (  -0.0063798   0.2387265   0.9248530  )
        18           O   tau(  18) = (   0.5063794   0.2387265   0.9248530  )
        19           O   tau(  19) = (   0.7499995   0.0000000   0.9338544  )
        20           O   tau(  20) = (   0.2499998   0.0000000   0.9461329  )
        21           Cu  tau(  21) = (   0.0015717   0.0000000   0.9686860  )
        22           Cu  tau(  22) = (   0.4984280   0.0000000   0.9686860  )
        23           Ba  tau(  23) = (   0.2499998   0.2387265   1.2085224  )
        24           Ba  tau(  24) = (   0.7499995   0.2387265   1.2233294  )
        25           O   tau(  25) = (   0.0063772   0.0000000   1.2547537  )
        26           O   tau(  26) = (   0.4936224   0.0000000   1.2547537  )
        27           O   tau(  27) = (   0.5384045   0.2387265   1.4952521  )
        28           O   tau(  28) = (  -0.0384049   0.2387265   1.4952521  )
        29           Cu  tau(  29) = (   0.5006120   0.0000000   1.4952546  )
        30           Cu  tau(  30) = (  -0.0006123   0.0000000   1.4952546  )
        31           O   tau(  31) = (   0.4936212   0.0000000   1.7357531  )
        32           O   tau(  32) = (   0.0063785   0.0000000   1.7357531  )
        33           Ba  tau(  33) = (   0.7499995   0.2387265   1.7671824  )
        34           Ba  tau(  34) = (   0.2499998   0.2387265   1.7819920  )
        35           Cu  tau(  35) = (   0.4984280   0.0000000   2.0218232  )
        36           Cu  tau(  36) = (   0.0015717   0.0000000   2.0218232  )
        37           O   tau(  37) = (   0.2499998   0.0000000   2.0443814  )
        38           O   tau(  38) = (   0.7499995   0.0000000   2.0566511  )
        39           O   tau(  39) = (   0.5063781   0.2387265   2.0656562  )
        40           O   tau(  40) = (  -0.0063785   0.2387265   2.0656562  )
        41           Y   tau(  41) = (   0.7499995   0.2387265   2.2435498  )
        42           Ca  tau(  42) = (   0.2499998   0.2387265   2.2468194  )
        43           O   tau(  43) = (   0.7499995   0.0000000   2.7201493  )
        44           O   tau(  44) = (  -0.0083354   0.2387265   2.7205511  )
        45           O   tau(  45) = (   0.5083351   0.2387265   2.7205511  )
        46           O   tau(  46) = (   0.2499998   0.0000000   2.7433491  )
        47           Cu  tau(  47) = (   0.0019059   0.0000000   2.7566827  )
        48           Cu  tau(  48) = (   0.4980938   0.0000000   2.7566827  )
        49           Ba  tau(  49) = (   0.2499998   0.2387265   3.0020224  )
        50           Ba  tau(  50) = (   0.7499995   0.2387265   3.0025646  )
        51           O   tau(  51) = (  -0.0028895   0.0000000   3.0268718  )
        52           O   tau(  52) = (   0.5028891   0.0000000   3.0268718  )
        53           Cu  tau(  53) = (   0.5017844   0.0000000   3.2665563  )
        54           Cu  tau(  54) = (  -0.0017847   0.0000000   3.2665563  )
        55           O   tau(  55) = (   0.5008990   0.2387265   3.2997627  )
        56           O   tau(  56) = (  -0.0008994   0.2387265   3.2997627  )

     number of k points=    25  Gaussian smearing, width (Ry)=  0.0100
                       cart. coord. in units 2pi/alat
        k(    1) = (   0.0000000   0.0000000   0.0000000), wk =   0.0312500
        k(    2) = (   0.0000000   0.2618060   0.0000000), wk =   0.0625000
        k(    3) = (   0.0000000   0.5236121   0.0000000), wk =   0.0625000
        k(    4) = (   0.0000000   0.7854181   0.0000000), wk =   0.0625000
        k(    5) = (   0.0000000  -1.0472241   0.0000000), wk =   0.0312500
        k(    6) = (   0.1250000   0.0000000   0.0000000), wk =   0.0625000
        k(    7) = (   0.1250000   0.2618060   0.0000000), wk =   0.1250000
        k(    8) = (   0.1250000   0.5236121   0.0000000), wk =   0.1250000
        k(    9) = (   0.1250000   0.7854181   0.0000000), wk =   0.1250000
        k(   10) = (   0.1250000  -1.0472241   0.0000000), wk =   0.0625000
        k(   11) = (   0.2500000   0.0000000   0.0000000), wk =   0.0625000
        k(   12) = (   0.2500000   0.2618060   0.0000000), wk =   0.1250000
        k(   13) = (   0.2500000   0.5236121   0.0000000), wk =   0.1250000
        k(   14) = (   0.2500000   0.7854181   0.0000000), wk =   0.1250000
        k(   15) = (   0.2500000  -1.0472241   0.0000000), wk =   0.0625000
        k(   16) = (   0.3750000   0.0000000   0.0000000), wk =   0.0625000
        k(   17) = (   0.3750000   0.2618060   0.0000000), wk =   0.1250000
        k(   18) = (   0.3750000   0.5236121   0.0000000), wk =   0.1250000
        k(   19) = (   0.3750000   0.7854181   0.0000000), wk =   0.1250000
        k(   20) = (   0.3750000  -1.0472241   0.0000000), wk =   0.0625000
        k(   21) = (  -0.5000000   0.0000000   0.0000000), wk =   0.0312500
        k(   22) = (  -0.5000000   0.2618060   0.0000000), wk =   0.0625000
        k(   23) = (  -0.5000000   0.5236121   0.0000000), wk =   0.0625000
        k(   24) = (  -0.5000000   0.7854181   0.0000000), wk =   0.0625000
        k(   25) = (  -0.5000000  -1.0472241   0.0000000), wk =   0.0312500

     Dense  grid:  2989253 G-vectors     FFT dimensions: ( 128,  64, 750)

     Smooth grid:   575753 G-vectors     FFT dimensions: (  80,  36, 432)

     Estimated max dynamical RAM per process >     865.48 MB

     Estimated total dynamical RAM >      27.05 GB

     Initial potential from superposition of free atoms

     starting charge  455.69457, renormalised to  456.00000

     negative rho (up, down):  9.342E-02 0.000E+00
     Starting wfcs are  396 randomized atomic wfcs

     total cpu time spent up to now is       26.9 secs

     Self-consistent Calculation

     iteration #  1     ecut=    60.00 Ry     beta= 0.50
     Davidson diagonalization with overlap
     ethr =  1.00E-02,  avg # of iterations =  2.0

     negative rho (up, down):  8.583E-02 0.000E+00

     total cpu time spent up to now is       74.5 secs

     total energy              =   -3708.32181684 Ry
     Harris-Foulkes estimate   =   -3716.33779787 Ry
     estimated scf accuracy    <      31.00483384 Ry

     iteration #  2     ecut=    60.00 Ry     beta= 0.50
     Davidson diagonalization with overlap
     ethr =  6.80E-03,  avg # of iterations =  2.0

     negative rho (up, down):  8.524E-02 0.000E+00

     total cpu time spent up to now is      122.6 secs

     total energy              =   -3711.03201711 Ry
     Harris-Foulkes estimate   =   -3712.18837855 Ry
     estimated scf accuracy    <      15.06429631 Ry

     iteration #  3     ecut=    60.00 Ry     beta= 0.50
     Davidson diagonalization with overlap
     ethr =  3.30E-03,  avg # of iterations =  1.0

     negative rho (up, down):  8.532E-02 0.000E+00

     total cpu time spent up to now is      166.3 secs

     total energy              =   -3711.31634578 Ry
     Harris-Foulkes estimate   =   -3711.77434008 Ry
     estimated scf accuracy    <      11.03425811 Ry

     iteration #  4     ecut=    60.00 Ry     beta= 0.50
     Davidson diagonalization with overlap
     ethr =  2.42E-03,  avg # of iterations =  1.0

     negative rho (up, down):  8.595E-02 0.000E+00

     total cpu time spent up to now is      209.8 secs

     total energy              =   -3711.23308947 Ry
     Harris-Foulkes estimate   =   -3711.56003823 Ry
     estimated scf accuracy    <       4.08728870 Ry

     iteration #  5     ecut=    60.00 Ry     beta= 0.50
     Davidson diagonalization with overlap
     ethr =  8.96E-04,  avg # of iterations =  3.0

     negative rho (up, down):  8.675E-02 0.000E+00

     total cpu time spent up to now is      258.7 secs

     total energy              =   -3711.24022122 Ry
     Harris-Foulkes estimate   =   -3711.38607298 Ry
     estimated scf accuracy    <       4.02102344 Ry

     iteration #  6     ecut=    60.00 Ry     beta= 0.50
     Davidson diagonalization with overlap
     ethr =  8.82E-04,  avg # of iterations =  3.0

     negative rho (up, down):  8.839E-02 0.000E+00

     total cpu time spent up to now is      307.3 secs

     total energy              =   -3711.15083629 Ry
     Harris-Foulkes estimate   =   -3711.29636544 Ry
     estimated scf accuracy    <       2.71345770 Ry

     iteration #  7     ecut=    60.00 Ry     beta= 0.50
     Davidson diagonalization with overlap
     ethr =  5.95E-04,  avg # of iterations =  6.9

     negative rho (up, down):  8.920E-02 0.000E+00

     total cpu time spent up to now is      371.3 secs

     total energy              =   -3711.16463338 Ry
     Harris-Foulkes estimate   =   -3711.23135853 Ry
     estimated scf accuracy    <       2.43226522 Ry

     iteration #  8     ecut=    60.00 Ry     beta= 0.50
     Davidson diagonalization with overlap
     ethr =  5.33E-04,  avg # of iterations =  1.6

     negative rho (up, down):  8.930E-02 0.000E+00

     total cpu time spent up to now is      416.3 secs

     total energy              =   -3711.17805317 Ry
     Harris-Foulkes estimate   =   -3711.20464292 Ry
     estimated scf accuracy    <       0.29022814 Ry

     iteration #  9     ecut=    60.00 Ry     beta= 0.50
     Davidson diagonalization with overlap
     ethr =  6.36E-05,  avg # of iterations =  6.8

     negative rho (up, down):  8.950E-02 0.000E+00

     total cpu time spent up to now is      476.9 secs

     total energy              =   -3711.17614232 Ry
     Harris-Foulkes estimate   =   -3711.18910763 Ry
     estimated scf accuracy    <       0.23510263 Ry

     iteration # 10     ecut=    60.00 Ry     beta= 0.50
     Davidson diagonalization with overlap
     ethr =  5.16E-05,  avg # of iterations =  2.9

     negative rho (up, down):  8.940E-02 0.000E+00

     total cpu time spent up to now is      525.0 secs

     total energy              =   -3711.17162667 Ry
     Harris-Foulkes estimate   =   -3711.18185495 Ry
     estimated scf accuracy    <       0.12205065 Ry

     iteration # 11     ecut=    60.00 Ry     beta= 0.50
     Davidson diagonalization with overlap
     c_bands:  3 eigenvalues not converged
     ethr =  2.68E-05,  avg # of iterations = 10.0

     negative rho (up, down):  8.900E-02 0.000E+00

     total cpu time spent up to now is      596.1 secs

     total energy              =   -3711.17060430 Ry
     Harris-Foulkes estimate   =   -3711.17636601 Ry
     estimated scf accuracy    <       0.16424953 Ry

     iteration # 12     ecut=    60.00 Ry     beta= 0.50
     Davidson diagonalization with overlap
     ethr =  2.68E-05,  avg # of iterations =  1.8

     negative rho (up, down):  8.894E-02 0.000E+00

     total cpu time spent up to now is      641.5 secs

     total energy              =   -3711.17313092 Ry
     Harris-Foulkes estimate   =   -3711.17415898 Ry
     estimated scf accuracy    <       0.09742029 Ry

     iteration # 13     ecut=    60.00 Ry     beta= 0.50
     Davidson diagonalization with overlap
     ethr =  2.14E-05,  avg # of iterations =  1.0

     negative rho (up, down):  8.862E-02 0.000E+00

     total cpu time spent up to now is      684.9 secs

     total energy              =   -3711.17092161 Ry
     Harris-Foulkes estimate   =   -3711.17335416 Ry
     estimated scf accuracy    <       0.08204019 Ry

     iteration # 14     ecut=    60.00 Ry     beta= 0.50
     Davidson diagonalization with overlap
     ethr =  1.80E-05,  avg # of iterations =  1.5

     negative rho (up, down):  8.838E-02 0.000E+00

     total cpu time spent up to now is      729.4 secs

     total energy              =   -3711.16994756 Ry
     Harris-Foulkes estimate   =   -3711.17142440 Ry
     estimated scf accuracy    <       0.09737925 Ry

     iteration # 15     ecut=    60.00 Ry     beta= 0.50
     Davidson diagonalization with overlap
     ethr =  1.80E-05,  avg # of iterations =  1.0

     negative rho (up, down):  8.840E-02 0.000E+00

     total cpu time spent up to now is      772.5 secs

     total energy              =   -3711.16855312 Ry
     Harris-Foulkes estimate   =   -3711.17046052 Ry
     estimated scf accuracy    <       0.06584110 Ry

     iteration # 16     ecut=    60.00 Ry     beta= 0.50
     Davidson diagonalization with overlap
     ethr =  1.44E-05,  avg # of iterations =  1.7

     negative rho (up, down):  1.097E-01 0.000E+00

     total cpu time spent up to now is      817.8 secs

     total energy              =   -3711.16550300 Ry
     Harris-Foulkes estimate   =   -3711.16876099 Ry
     estimated scf accuracy    <       0.03591524 Ry

     iteration # 17     ecut=    60.00 Ry     beta= 0.50
     Davidson diagonalization with overlap
     c_bands:  1 eigenvalues not converged
     c_bands:  1 eigenvalues not converged
     ethr =  7.88E-06,  avg # of iterations = 12.1

     negative rho (up, down):  1.097E-01 0.000E+00

     total cpu time spent up to now is      895.3 secs

     total energy              =   -3711.16508551 Ry
     Harris-Foulkes estimate   =   -3711.16604535 Ry
     estimated scf accuracy    <       0.01950529 Ry

     iteration # 18     ecut=    60.00 Ry     beta= 0.50
     Davidson diagonalization with overlap
     c_bands:  2 eigenvalues not converged
     ethr =  4.28E-06,  avg # of iterations =  7.7

     negative rho (up, down):  1.041E-01 0.000E+00

     total cpu time spent up to now is      957.0 secs

     total energy              =   -3711.16454957 Ry
     Harris-Foulkes estimate   =   -3711.16527240 Ry
     estimated scf accuracy    <       0.01166223 Ry

     iteration # 19     ecut=    60.00 Ry     beta= 0.50
     Davidson diagonalization with overlap
     ethr =  2.56E-06,  avg # of iterations =  8.6

     negative rho (up, down):  1.060E-01 0.000E+00

     total cpu time spent up to now is     1021.2 secs

     total energy              =   -3711.16446306 Ry
     Harris-Foulkes estimate   =   -3711.16467520 Ry
     estimated scf accuracy    <       0.00984776 Ry

     iteration # 20     ecut=    60.00 Ry     beta= 0.50
     Davidson diagonalization with overlap
     ethr =  2.16E-06,  avg # of iterations = 10.0

     negative rho (up, down):  9.601E-02 0.000E+00

     total cpu time spent up to now is     1090.6 secs

     total energy              =   -3711.16419236 Ry
     Harris-Foulkes estimate   =   -3711.16451696 Ry
     estimated scf accuracy    <       0.00434848 Ry

     iteration # 21     ecut=    60.00 Ry     beta= 0.50
     Davidson diagonalization with overlap
     ethr =  9.54E-07,  avg # of iterations =  7.6

     negative rho (up, down):  9.106E-02 0.000E+00

     total cpu time spent up to now is     1153.1 secs

     total energy              =   -3711.16416126 Ry
     Harris-Foulkes estimate   =   -3711.16425170 Ry
     estimated scf accuracy    <       0.00244836 Ry

     iteration # 22     ecut=    60.00 Ry     beta= 0.50
     Davidson diagonalization with overlap
     c_bands:  1 eigenvalues not converged
     c_bands:  1 eigenvalues not converged
     ethr =  5.37E-07,  avg # of iterations =  8.4

     negative rho (up, down):  9.072E-02 0.000E+00

     total cpu time spent up to now is     1216.7 secs

     total energy              =   -3711.16419125 Ry
     Harris-Foulkes estimate   =   -3711.16421920 Ry
     estimated scf accuracy    <       0.00054645 Ry

     iteration # 23     ecut=    60.00 Ry     beta= 0.50
     Davidson diagonalization with overlap
     c_bands:  1 eigenvalues not converged
     ethr =  1.20E-07,  avg # of iterations =  7.3

     negative rho (up, down):  9.280E-02 0.000E+00

     total cpu time spent up to now is     1276.8 secs

     total energy              =   -3711.16421780 Ry
     Harris-Foulkes estimate   =   -3711.16421282 Ry
     estimated scf accuracy    <       0.00058968 Ry

     iteration # 24     ecut=    60.00 Ry     beta= 0.50
     Davidson diagonalization with overlap
     ethr =  1.20E-07,  avg # of iterations =  6.4

     negative rho (up, down):  9.239E-02 0.000E+00

     total cpu time spent up to now is     1336.1 secs

     total energy              =   -3711.16420631 Ry
     Harris-Foulkes estimate   =   -3711.16422706 Ry
     estimated scf accuracy    <       0.00025551 Ry

     iteration # 25     ecut=    60.00 Ry     beta= 0.50
     Davidson diagonalization with overlap
     ethr =  5.60E-08,  avg # of iterations =  3.4

     negative rho (up, down):  9.170E-02 0.000E+00

     total cpu time spent up to now is     1386.2 secs

     total energy              =   -3711.16420611 Ry
     Harris-Foulkes estimate   =   -3711.16421174 Ry
     estimated scf accuracy    <       0.00007365 Ry

     iteration # 26     ecut=    60.00 Ry     beta= 0.50
     Davidson diagonalization with overlap
     ethr =  1.62E-08,  avg # of iterations =  1.3

     negative rho (up, down):  9.196E-02 0.000E+00

     total cpu time spent up to now is     1430.7 secs

     total energy              =   -3711.16420628 Ry
     Harris-Foulkes estimate   =   -3711.16420769 Ry
     estimated scf accuracy    <       0.00002838 Ry

     iteration # 27     ecut=    60.00 Ry     beta= 0.50
     Davidson diagonalization with overlap
     ethr =  6.22E-09,  avg # of iterations =  1.1

     negative rho (up, down):  9.122E-02 0.000E+00

     total cpu time spent up to now is     1474.5 secs

     total energy              =   -3711.16420347 Ry
     Harris-Foulkes estimate   =   -3711.16420712 Ry
     estimated scf accuracy    <       0.00001736 Ry

     iteration # 28     ecut=    60.00 Ry     beta= 0.50
     Davidson diagonalization with overlap
     c_bands:  1 eigenvalues not converged
     ethr =  3.81E-09,  avg # of iterations =  5.5

     negative rho (up, down):  9.120E-02 0.000E+00

     total cpu time spent up to now is     1529.7 secs

     total energy              =   -3711.16420392 Ry
     Harris-Foulkes estimate   =   -3711.16420419 Ry
     estimated scf accuracy    <       0.00000363 Ry

     iteration # 29     ecut=    60.00 Ry     beta= 0.50
     Davidson diagonalization with overlap
     ethr =  7.96E-10,  avg # of iterations =  3.2

     negative rho (up, down):  9.125E-02 0.000E+00

     total cpu time spent up to now is     1580.6 secs

     total energy              =   -3711.16420409 Ry
     Harris-Foulkes estimate   =   -3711.16420415 Ry
     estimated scf accuracy    <       0.00000111 Ry

     iteration # 30     ecut=    60.00 Ry     beta= 0.50
     Davidson diagonalization with overlap
     ethr =  2.44E-10,  avg # of iterations =  2.6

     negative rho (up, down):  9.119E-02 0.000E+00

     total cpu time spent up to now is     1628.6 secs

     total energy              =   -3711.16420415 Ry
     Harris-Foulkes estimate   =   -3711.16420414 Ry
     estimated scf accuracy    <       0.00000069 Ry

     iteration # 31     ecut=    60.00 Ry     beta= 0.50
     Davidson diagonalization with overlap
     ethr =  1.51E-10,  avg # of iterations =  1.0

     negative rho (up, down):  9.117E-02 0.000E+00

     total cpu time spent up to now is     1672.8 secs

     total energy              =   -3711.16420417 Ry
     Harris-Foulkes estimate   =   -3711.16420417 Ry
     estimated scf accuracy    <       0.00000022 Ry

     iteration # 32     ecut=    60.00 Ry     beta= 0.50
     Davidson diagonalization with overlap
     ethr =  4.78E-11,  avg # of iterations =  2.2

     negative rho (up, down):  9.111E-02 0.000E+00

     total cpu time spent up to now is     1719.3 secs

     total energy              =   -3711.16420424 Ry
     Harris-Foulkes estimate   =   -3711.16420419 Ry
     estimated scf accuracy    <       0.00000027 Ry

     iteration # 33     ecut=    60.00 Ry     beta= 0.50
     Davidson diagonalization with overlap
     ethr =  4.78E-11,  avg # of iterations =  1.0

     negative rho (up, down):  9.108E-02 0.000E+00

     total cpu time spent up to now is     1762.8 secs

     total energy              =   -3711.16420428 Ry
     Harris-Foulkes estimate   =   -3711.16420425 Ry
     estimated scf accuracy    <       0.00000014 Ry

     iteration # 34     ecut=    60.00 Ry     beta= 0.50
     Davidson diagonalization with overlap
     ethr =  3.07E-11,  avg # of iterations =  1.1

     negative rho (up, down):  9.108E-02 0.000E+00

     total cpu time spent up to now is     1806.2 secs

     total energy              =   -3711.16420428 Ry
     Harris-Foulkes estimate   =   -3711.16420429 Ry
     estimated scf accuracy    <       0.00000007 Ry

     iteration # 35     ecut=    60.00 Ry     beta= 0.50
     Davidson diagonalization with overlap
     ethr =  1.63E-11,  avg # of iterations =  1.0

     negative rho (up, down):  9.108E-02 0.000E+00

     total cpu time spent up to now is     1850.4 secs

     total energy              =   -3711.16420428 Ry
     Harris-Foulkes estimate   =   -3711.16420428 Ry
     estimated scf accuracy    <       0.00000002 Ry

     iteration # 36     ecut=    60.00 Ry     beta= 0.50
     Davidson diagonalization with overlap
     ethr =  5.42E-12,  avg # of iterations =  1.4

     negative rho (up, down):  9.107E-02 0.000E+00

     total cpu time spent up to now is     1894.5 secs

     total energy              =   -3711.16420429 Ry
     Harris-Foulkes estimate   =   -3711.16420428 Ry
     estimated scf accuracy    <       0.00000001 Ry

     iteration # 37     ecut=    60.00 Ry     beta= 0.50
     Davidson diagonalization with overlap
     ethr =  3.05E-12,  avg # of iterations =  1.8

     negative rho (up, down):  9.107E-02 0.000E+00

     total cpu time spent up to now is     1939.3 secs

     End of self-consistent calculation

          k = 0.0000 0.0000 0.0000 ( 72027 PWs)   bands (ev):

   -41.3867 -38.9330 -38.1127 -35.7400 -23.1074 -22.9678 -22.9003 -22.7720
   -22.6714 -22.6414 -22.5179 -22.5137 -21.4598 -21.4195 -21.2852 -19.9924
   -19.9834 -19.9013 -18.5878 -18.4837 -18.1159 -17.0879 -16.9527 -16.7697
   -16.2577 -15.7619 -15.5428 -15.4983 -15.0758 -15.0349 -15.0044 -14.9366
   -14.8747 -14.7607 -14.7454 -14.6433 -14.5665 -14.5379 -14.5053 -14.4045
   -14.2604 -14.1875 -14.1545 -14.0780 -14.0725 -14.0653 -14.0300 -14.0236
   -13.9751 -13.8182 -13.8101 -13.7781 -13.6619 -13.4231  -8.4425  -8.3435
    -8.1383  -8.0818  -8.0299  -7.9755  -7.9498  -7.9343  -7.8971  -7.8452
    -7.8116  -7.7767  -7.7647  -7.7202  -7.7181  -7.7152  -7.6639  -7.5736
    -7.5715  -7.5467  -7.4869  -7.4785  -7.3293  -7.3235  -3.5948  -3.0687
    -2.9651  -2.9017  -2.7968  -2.6579  -2.5704  -2.3830  -2.2704  -2.2573
    -2.2315  -2.1694  -2.1651  -2.1270  -2.1268  -2.0275  -1.9708  -1.9231
    -1.8859  -1.7519  -1.7498  -1.7170  -1.6637  -1.6162  -1.6022  -1.5400
    -1.5273  -1.4151  -1.3068  -1.2751  -1.2661  -1.2522  -1.1899  -1.1179
    -1.0436  -1.0433  -1.0184  -1.0046  -1.0031  -0.9997  -0.9816  -0.9787
    -0.9628  -0.9572  -0.8687  -0.8520  -0.7778  -0.7321  -0.7159  -0.6983
    -0.6680  -0.6204  -0.4591  -0.4080  -0.4077  -0.3925  -0.3383  -0.2877
    -0.2821  -0.2729  -0.2467  -0.2192  -0.2148  -0.1501  -0.1471  -0.1162
    -0.1088  -0.0855  -0.0643  -0.0595  -0.0537  -0.0328  -0.0261  -0.0023
     0.0063   0.0230   0.0935   0.0935   0.1781   0.1900   0.1984   0.2038
     0.2177   0.2292   0.2426   0.2725   0.3017   0.3107   0.3280   0.3306
     0.3759   0.3858   0.4398   0.4699   0.4782   0.4790   0.5007   0.5037
     0.5233   0.5479   0.6101   0.6608   0.6784   0.7228   0.7962   0.8920
     0.9551   0.9631   0.9772   1.0099   1.0318   1.0453   1.1436   1.1447
     1.1711   1.1736   1.1833   1.1845   1.2056   1.2554   1.2789   1.3098
     1.3145   1.3719   1.3823   1.3958   1.5368   1.5487   1.5573   1.5965
     1.6050   1.6802   1.6851   1.7383   1.7406   1.7516   1.7597   1.8016
     1.8187   1.8935   1.9682   1.9897   2.0054   2.0322   2.0711   2.0899
     2.1453   2.1937   2.2278   2.2385   2.3133   2.3385   2.3926   2.4406
     2.4472   2.4735   2.5522   2.6022   2.6979   2.8421   2.9242   3.6775
     4.2757   4.4668   5.1943   5.2240   5.3082   5.3475   5.5930   5.7539
     6.0215   6.4264   6.5009   6.6079   6.6298   6.7931   6.8400   6.8608
     7.1980   7.2490   7.2778   7.3409   7.3574   7.3762   7.3878   7.5389
     7.6916   7.7877   8.0354   8.0887   8.1142   8.2723   8.3241   8.4703
     8.4762   8.6023

          k = 0.0000 0.2618 0.0000 ( 71961 PWs)   bands (ev):

   -41.3846 -38.9317 -38.1100 -35.7383 -23.0839 -22.9490 -22.8757 -22.7529
   -22.6479 -22.6164 -22.4991 -22.4947 -21.4582 -21.4158 -21.3223 -19.9909
   -19.9812 -19.9215 -18.5491 -18.4764 -18.2268 -17.0584 -16.9483 -16.8357
   -16.2074 -15.7250 -15.5354 -15.3922 -15.0204 -15.0160 -14.9703 -14.8812
   -14.8299 -14.7172 -14.7068 -14.6414 -14.5291 -14.4947 -14.4797 -14.3667
   -14.2188 -14.1833 -14.1361 -14.1207 -14.0688 -14.0560 -14.0363 -14.0132
   -14.0044 -13.8754 -13.8130 -13.7741 -13.7215 -13.4535  -8.4517  -8.3336
    -8.1316  -8.0620  -8.0430  -8.0165  -7.9968  -7.9825  -7.9441  -7.9061
    -7.8544  -7.8471  -7.8333  -7.7807  -7.7749  -7.7348  -7.6799  -7.6506
    -7.6150  -7.6088  -7.5891  -7.5678  -7.5364  -7.5346  -3.7288  -3.1691
    -3.1398  -2.9633  -2.8040  -2.6924  -2.6079  -2.4873  -2.3758  -2.3187
    -2.2693  -2.2288  -2.2111  -2.1649  -2.1629  -2.1623  -2.1444  -2.0666
    -1.9798  -1.9685  -1.9384  -1.8876  -1.7878  -1.7157  -1.6966  -1.6770
    -1.5695  -1.5412  -1.4892  -1.4501  -1.4326  -1.4252  -1.4180  -1.3993
    -1.3928  -1.3652  -1.3361  -1.1257  -1.0853  -1.0587  -0.9804  -0.9696
    -0.9433  -0.9269  -0.8632  -0.7978  -0.7904  -0.7593  -0.7440  -0.6677
    -0.6008  -0.5938  -0.5729  -0.5607  -0.4693  -0.4302  -0.3878  -0.3727
    -0.3582  -0.3551  -0.3291  -0.2867  -0.2690  -0.2417  -0.2262  -0.1963
    -0.1815  -0.1319  -0.1235  -0.0551  -0.0358  -0.0211  -0.0012   0.0692
     0.0840   0.1263   0.1391   0.1447   0.1528   0.1579   0.2037   0.2143
     0.2389   0.2462   0.2530   0.2779   0.2989   0.3035   0.3201   0.3580
     0.3682   0.4023   0.4113   0.4366   0.4478   0.4509   0.5845   0.6066
     0.6339   0.6499   0.6604   0.7527   0.8117   0.8495   0.9010   0.9553
     0.9611   0.9726   1.0286   1.0455   1.1129   1.1159   1.1519   1.1757
     1.2282   1.2574   1.2801   1.2899   1.2908   1.3274   1.3693   1.3805
     1.3957   1.4234   1.4367   1.4685   1.4907   1.5195   1.5264   1.5520
     1.6168   1.6218   1.6843   1.7205   1.7342   1.7496   1.7587   1.8050
     1.8661   1.8945   1.9004   1.9481   1.9528   2.0297   2.0686   2.1495
     2.2573   2.3291   2.3691   2.3939   2.6113   2.6816   2.7760   2.8267
     2.8830   2.8852   2.9311   2.9600   2.9751   3.1614   3.1966   3.7253
     4.2994   4.5980   5.1158   5.4155   5.5771   5.6540   5.7421   5.8494
     6.2321   6.3504   6.3710   6.6037   6.9083   6.9233   7.0805   7.0975
     7.1576   7.1957   7.3079   7.4238   7.4768   7.5589   7.6894   7.7350
     7.7813   7.8349   8.0183   8.2114   8.2795   8.4218   8.4761   8.6708
     8.6992   8.7911

          k = 0.0000 0.5236 0.0000 ( 71873 PWs)   bands (ev):

   -41.3796 -38.9284 -38.1035 -35.7341 -23.0261 -22.9028 -22.8152 -22.7060
   -22.5899 -22.5548 -22.4529 -22.4479 -21.4917 -21.4068 -21.3717 -20.0114
   -19.9758 -19.9453 -18.4670 -18.4589 -18.4494 -16.9884 -16.9755 -16.9379
   -16.0741 -15.6333 -15.5282 -15.1518 -15.0732 -14.8623 -14.7871 -14.7358
   -14.7120 -14.6962 -14.6793 -14.6132 -14.5264 -14.4202 -14.3073 -14.2736
   -14.2530 -14.1770 -14.1175 -14.1052 -14.0428 -14.0414 -14.0159 -14.0145
   -14.0056 -13.9623 -13.8503 -13.8363 -13.7680 -13.5413  -8.5322  -8.3932
    -8.3192  -8.3128  -8.3052  -8.1596  -8.1036  -8.0949  -8.0715  -8.0710
    -8.0241  -7.9554  -7.9344  -7.9184  -7.9099  -7.8584  -7.7981  -7.7892
    -7.7405  -7.7136  -7.6754  -7.6728  -7.5537  -7.5020  -4.1641  -3.5613
    -3.4583  -3.2083  -2.9125  -2.8637  -2.8584  -2.7721  -2.6773  -2.6199
    -2.6124  -2.5755  -2.4882  -2.4219  -2.3387  -2.3048  -2.2636  -2.2554
    -2.2271  -2.2131  -2.2117  -2.2051  -2.1485  -2.1207  -2.1104  -2.0740
    -2.0567  -2.0019  -1.8287  -1.8166  -1.7155  -1.6678  -1.6476  -1.6250
    -1.4376  -1.4075  -1.3165  -1.2971  -1.2569  -1.1554  -1.1249  -1.0125
    -0.9981  -0.9798  -0.9658  -0.8899  -0.8891  -0.8697  -0.8293  -0.8000
    -0.7979  -0.7573  -0.7190  -0.6872  -0.6486  -0.6480  -0.6012  -0.5986
    -0.5930  -0.5453  -0.5434  -0.5246  -0.5098  -0.4554  -0.4330  -0.4236
    -0.3725  -0.3539  -0.3009  -0.2899  -0.2198  -0.2128   0.0205   0.0270
     0.0305   0.0786   0.1387   0.1724   0.1790   0.2107   0.2628   0.2670
     0.2736   0.2992   0.3027   0.3360   0.3824   0.4554   0.5331   0.5645
     0.6011   0.6710   0.7590   0.8050   0.8391   0.8716   0.8726   0.9263
     0.9779   1.0137   1.0368   1.0462   1.0508   1.0789   1.0861   1.1265
     1.1545   1.1923   1.2239   1.2293   1.2500   1.2726   1.2728   1.3077
     1.3119   1.3322   1.3335   1.3510   1.3719   1.4160   1.4166   1.4621
     1.5030   1.5183   1.5525   1.5698   1.6142   1.6334   1.6595   1.7160
     1.7534   1.7655   1.7886   1.8008   1.8173   1.8478   1.8506   1.8984
     1.9126   1.9552   2.0293   2.0483   2.0697   2.0727   2.0801   2.1435
     2.3255   2.3588   2.4794   2.5777   3.0415   3.0492   3.0879   3.1266
     3.1979   3.4241   3.4944   3.5624   3.7653   3.7996   3.9216   4.1175
     4.3922   4.8953   4.9408   5.3848   5.8419   5.9991   6.1080   6.4811
     6.5385   6.5467   6.6010   6.7082   6.7214   6.9317   7.0040   7.0732
     7.2648   7.7260   7.7794   7.8744   7.9818   8.0652   8.1214   8.2675
     8.3981   8.4436   8.4730   8.5919   8.6120   8.6887   8.7945   8.8204
     8.9740   9.0368

          k = 0.0000 0.7854 0.0000 ( 71882 PWs)   bands (ev):

   -41.3746 -38.9251 -38.0970 -35.7300 -22.9666 -22.8555 -22.7528 -22.6581
   -22.5303 -22.4912 -22.4056 -22.4002 -21.5753 -21.3977 -21.3671 -20.0609
   -19.9704 -19.9389 -18.6759 -18.4415 -18.3435 -17.1104 -16.9275 -16.9020
   -15.9066 -15.5527 -15.5381 -15.1450 -14.9358 -14.8039 -14.7514 -14.6803
   -14.6014 -14.5665 -14.5471 -14.5422 -14.5140 -14.3737 -14.2137 -14.2058
   -14.1928 -14.1807 -14.1753 -14.0869 -14.0244 -14.0127 -13.9923 -13.9597
   -13.9507 -13.9400 -13.9238 -13.8685 -13.7853 -13.6679  -8.8877  -8.7142
    -8.5946  -8.4715  -8.4694  -8.4547  -8.4461  -8.2785  -8.2278  -8.1807
    -8.1519  -8.0986  -8.0296  -7.9875  -7.9572  -7.8086  -7.7813  -7.7696
    -7.7419  -7.7391  -7.6925  -7.6680  -7.4300  -7.3915  -4.6307  -4.0458
    -3.7324  -3.6118  -3.2880  -3.2511  -3.2413  -3.1330  -3.0135  -2.9934
    -2.9386  -2.9157  -2.8794  -2.8137  -2.7823  -2.7795  -2.6338  -2.4663
    -2.4028  -2.3838  -2.3697  -2.2765  -2.2315  -2.2277  -2.2093  -2.1825
    -2.1604  -2.0957  -1.9088  -1.8558  -1.8021  -1.7426  -1.6870  -1.6823
    -1.6287  -1.5874  -1.5404  -1.4998  -1.4839  -1.2390  -1.2199  -1.2171
    -1.1320  -1.0517  -1.0437  -1.0242  -1.0189  -0.9945  -0.9600  -0.9567
    -0.9549  -0.9048  -0.8942  -0.8647  -0.8487  -0.8201  -0.8018  -0.7697
    -0.7659  -0.7612  -0.7275  -0.7182  -0.7148  -0.6491  -0.6251  -0.6214
    -0.5968  -0.5760  -0.4277  -0.2338  -0.2155  -0.1868  -0.1694  -0.0132
     0.0365   0.1600   0.1949   0.1973   0.2557   0.2721   0.2853   0.2898
     0.3556   0.4361   0.4745   0.5054   0.5363   0.5908   0.7494   0.7504
     0.8287   0.8322   0.9342   0.9676   0.9783   1.0028   1.0460   1.0541
     1.0924   1.1123   1.1637   1.1652   1.2338   1.2417   1.2589   1.2979
     1.3059   1.3410   1.3538   1.3626   1.3904   1.4241   1.4314   1.5076
     1.5410   1.5605   1.5723   1.5832   1.6043   1.6201   1.6389   1.6489
     1.7121   1.7317   1.7335   1.7403   1.7893   1.8008   1.8154   1.8682
     1.8733   1.8960   1.9342   1.9461   1.9464   2.0082   2.0254   2.1025
     2.1502   2.1737   2.2073   2.2289   2.2374   2.2695   2.3223   2.3850
     2.4054   2.4528   2.4872   2.8707   2.8967   2.9767   3.0003   3.1156
     3.3225   3.4952   3.9019   4.0424   4.0962   4.4450   4.5093   4.6305
     4.7030   4.8615   5.1496   5.2669   5.5718   5.7096   6.0697   6.1805
     6.4015   6.7221   6.8769   7.0677   7.2470   7.4107   7.4626   7.5069
     7.7971   7.9424   8.0225   8.2511   8.3536   8.4349   8.5536   8.6752
     8.7226   8.7633   8.7766   8.8233   8.9141   9.0171   9.0203   9.1096
     9.1693   9.2296

          k = 0.0000-1.0472 0.0000 ( 71986 PWs)   bands (ev):

   -41.3725 -38.9238 -38.0943 -35.7283 -22.9415 -22.8356 -22.7264 -22.6379
   -22.5052 -22.4643 -22.3856 -22.3801 -21.6141 -21.3940 -21.3600 -20.0834
   -19.9682 -19.9340 -18.7565 -18.4343 -18.2962 -17.1608 -16.9233 -16.8663
   -15.8053 -15.5945 -15.4975 -15.1797 -14.9426 -14.7972 -14.7411 -14.6625
   -14.5774 -14.5147 -14.4845 -14.4305 -14.3959 -14.3544 -14.3200 -14.2274
   -14.1979 -14.1444 -14.0955 -14.0299 -14.0223 -14.0000 -13.9648 -13.9605
   -13.9420 -13.9152 -13.9017 -13.8869 -13.8547 -13.7168  -9.0408  -8.8675
    -8.7112  -8.6247  -8.6038  -8.5734  -8.4765  -8.3456  -8.2600  -8.2514
    -8.2171  -8.1042  -8.0235  -8.0151  -7.9674  -7.7904  -7.7788  -7.7671
    -7.7632  -7.7509  -7.6802  -7.6154  -7.3760  -7.3431  -4.8185  -4.2479
    -3.8436  -3.7982  -3.4812  -3.4387  -3.4174  -3.3425  -3.1586  -3.1345
    -3.1120  -3.0998  -3.0438  -3.0109  -2.9819  -2.9342  -2.6626  -2.4949
    -2.4889  -2.4209  -2.2816  -2.2690  -2.2497  -2.2478  -2.2065  -2.1476
    -2.1283  -2.0853  -1.9954  -1.9695  -1.9357  -1.7969  -1.7897  -1.7814
    -1.6893  -1.6667  -1.5963  -1.5105  -1.3457  -1.3170  -1.2895  -1.2232
    -1.2019  -1.1654  -1.1130  -1.1040  -1.0789  -1.0725  -1.0552  -1.0517
    -0.9952  -0.9569  -0.9536  -0.9424  -0.9283  -0.8973  -0.8531  -0.8349
    -0.8338  -0.8309  -0.8288  -0.8213  -0.8118  -0.7105  -0.6804  -0.6435
    -0.6063  -0.5049  -0.4748  -0.2694  -0.2246  -0.1946  -0.1603  -0.0895
    -0.0248   0.1812   0.2061   0.2117   0.2475   0.2626   0.2855   0.2971
     0.3927   0.5234   0.5435   0.5666   0.5876   0.6819   0.8365   0.8619
     0.8716   0.8726   0.9552   0.9582   0.9743   0.9860   1.0346   1.1745
     1.1827   1.2023   1.2293   1.2521   1.2882   1.2889   1.3215   1.3321
     1.3364   1.3637   1.3769   1.3820   1.3951   1.4092   1.4827   1.5338
     1.6025   1.6057   1.6449   1.6880   1.7270   1.7278   1.7329   1.7444
     1.8071   1.8133   1.8314   1.8872   1.8993   1.9393   1.9618   1.9683
     2.0258   2.0389   2.0563   2.0888   2.1633   2.1686   2.2017   2.2118
     2.2179   2.2211   2.2565   2.2900   2.3181   2.3892   2.4161   2.4317
     2.4647   2.6161   2.6471   2.6648   2.7490   2.8312   2.9527   3.0228
     3.4195   3.4561   3.9528   4.1669   4.2643   4.6515   4.7201   4.8232
     4.9290   4.9367   4.9866   5.2939   5.4605   5.6002   5.8303   5.9560
     6.5156   6.6098   7.0919   7.2209   7.4685   7.6054   7.8087   7.8804
     7.9219   7.9286   8.1791   8.2305   8.3508   8.3742   8.5800   8.7249
     8.7567   8.8131   8.9149   8.9183   8.9895   9.1196   9.1803   9.2275
     9.3465   9.3755

          k = 0.1250 0.0000 0.0000 ( 72015 PWs)   bands (ev):

   -41.3867 -38.9330 -38.1127 -35.7400 -23.1039 -22.9717 -22.8958 -22.7767
   -22.6681 -22.6367 -22.5215 -22.5188 -21.4598 -21.4188 -21.2852 -19.9924
   -19.9845 -19.9013 -18.5871 -18.4805 -18.1159 -17.0909 -16.9647 -16.7697
   -16.2487 -15.7883 -15.5233 -15.4708 -15.0622 -15.0279 -15.0026 -14.9223
   -14.8790 -14.7528 -14.7377 -14.6558 -14.6135 -14.5457 -14.5134 -14.3710
   -14.2854 -14.1837 -14.1422 -14.0818 -14.0722 -14.0663 -14.0321 -14.0263
   -13.9799 -13.8351 -13.8058 -13.7570 -13.6687 -13.4292  -8.4446  -8.3489
    -8.1406  -8.0710  -8.0342  -7.9680  -7.9390  -7.9358  -7.9007  -7.8515
    -7.8033  -7.7835  -7.7730  -7.7290  -7.7218  -7.6967  -7.6489  -7.5830
    -7.5629  -7.5391  -7.4922  -7.4803  -7.3391  -7.3319  -3.5734  -3.0339
    -2.9603  -2.8694  -2.8319  -2.6223  -2.5487  -2.4094  -2.2788  -2.2538
    -2.2311  -2.1880  -2.1552  -2.1341  -2.1234  -2.0165  -1.9927  -1.9207
    -1.9003  -1.7590  -1.7573  -1.7033  -1.6890  -1.5963  -1.5959  -1.5410
    -1.4865  -1.4577  -1.3043  -1.2850  -1.2383  -1.2164  -1.1345  -1.1059
    -1.0981  -1.0536  -1.0356  -1.0229  -1.0026  -1.0016  -0.9922  -0.9809
    -0.9768  -0.9379  -0.8753  -0.8163  -0.7577  -0.7156  -0.7073  -0.6991
    -0.6463  -0.6294  -0.5140  -0.4880  -0.4095  -0.3922  -0.3889  -0.2965
    -0.2791  -0.2685  -0.2609  -0.2379  -0.2270  -0.1695  -0.1505  -0.1456
    -0.1302  -0.0758  -0.0597  -0.0535  -0.0359  -0.0252  -0.0054  -0.0024
     0.0041   0.0044   0.0899   0.1454   0.1666   0.1728   0.1918   0.2052
     0.2117   0.2148   0.2284   0.2407   0.2856   0.3208   0.3369   0.3665
     0.3911   0.4020   0.4435   0.4562   0.4700   0.4955   0.5157   0.5196
     0.5359   0.5700   0.6058   0.6550   0.6767   0.7039   0.8135   0.8745
     0.9118   0.9394   1.0048   1.0081   1.0167   1.0565   1.1045   1.1254
     1.1512   1.1724   1.1733   1.2061   1.2442   1.2671   1.2709   1.2907
     1.3669   1.3969   1.3996   1.4080   1.4976   1.5390   1.5469   1.6078
     1.6565   1.6889   1.7100   1.7251   1.7419   1.7476   1.7839   1.8156
     1.8182   1.8607   1.9638   1.9724   1.9995   2.0191   2.0238   2.0793
     2.1657   2.1982   2.2191   2.2206   2.3249   2.3366   2.3894   2.4334
     2.4593   2.5196   2.5605   2.6007   2.7170   2.8363   2.9266   3.6079
     4.3400   4.4900   5.2270   5.2444   5.3475   5.3512   5.6367   5.7398
     6.0597   6.4222   6.4814   6.6421   6.6615   6.7295   6.8816   6.8987
     6.9152   6.9462   7.2313   7.2784   7.3723   7.5359   7.7097   7.7388
     7.7871   7.8050   8.0287   8.1058   8.1154   8.3048   8.3592   8.4670
     8.5130   8.6181

          k = 0.1250 0.2618 0.0000 ( 71925 PWs)   bands (ev):

   -41.3846 -38.9317 -38.1100 -35.7383 -23.0806 -22.9526 -22.8715 -22.7574
   -22.6447 -22.6119 -22.5025 -22.4994 -21.4583 -21.4151 -21.3223 -19.9909
   -19.9823 -19.9215 -18.5484 -18.4732 -18.2268 -17.0613 -16.9598 -16.8356
   -16.1988 -15.7506 -15.5169 -15.3655 -15.0212 -15.0025 -14.9627 -14.8694
   -14.8337 -14.7118 -14.7001 -14.6474 -14.5396 -14.5332 -14.4990 -14.3277
   -14.2425 -14.1790 -14.1394 -14.1110 -14.0694 -14.0579 -14.0357 -14.0167
   -14.0072 -13.8856 -13.8133 -13.7560 -13.7252 -13.4588  -8.4532  -8.3370
    -8.1336  -8.1123  -8.0657  -8.0490  -7.9621  -7.9512  -7.9503  -7.9208
    -7.8893  -7.8400  -7.7912  -7.7843  -7.7494  -7.7343  -7.7220  -7.6867
    -7.6428  -7.6371  -7.5511  -7.5147  -7.4953  -7.4922  -3.7044  -3.1514
    -3.1330  -2.9282  -2.8093  -2.6555  -2.6372  -2.4674  -2.3844  -2.3214
    -2.2614  -2.2325  -2.2053  -2.1703  -2.1518  -2.1499  -2.1318  -2.0712
    -1.9832  -1.9757  -1.9391  -1.8843  -1.8163  -1.7805  -1.6897  -1.6741
    -1.5855  -1.5256  -1.4959  -1.4459  -1.4244  -1.4210  -1.4185  -1.4001
    -1.3939  -1.3115  -1.3098  -1.1371  -1.0921  -1.0773  -1.0610  -0.9776
    -0.9393  -0.9007  -0.8738  -0.8021  -0.7862  -0.7673  -0.7314  -0.7232
    -0.6672  -0.6428  -0.6275  -0.5573  -0.4657  -0.4365  -0.3961  -0.3686
    -0.3577  -0.3379  -0.3165  -0.3020  -0.2697  -0.2495  -0.2004  -0.1733
    -0.1716  -0.1187  -0.1135  -0.0604  -0.0439  -0.0235  -0.0057   0.0451
     0.0798   0.1198   0.1230   0.1290   0.1430   0.1717   0.1983   0.2109
     0.2162   0.2618   0.2659   0.2831   0.2899   0.2931   0.3236   0.3558
     0.3655   0.4056   0.4110   0.4287   0.4541   0.4593   0.5607   0.6136
     0.6341   0.6570   0.6937   0.7548   0.8284   0.8722   0.9037   0.9195
     0.9844   1.0004   1.0370   1.0513   1.0848   1.1066   1.1470   1.1986
     1.2194   1.2412   1.2487   1.2610   1.2915   1.3254   1.3659   1.3777
     1.3971   1.4300   1.4510   1.4558   1.4928   1.5184   1.5566   1.5766
     1.6221   1.6740   1.6803   1.7198   1.7403   1.7501   1.7716   1.7755
     1.8379   1.8568   1.8923   1.9637   2.0157   2.0553   2.1166   2.1418
     2.1588   2.3634   2.3957   2.4961   2.5983   2.7016   2.7725   2.8305
     2.8871   2.8893   2.9292   2.9622   2.9752   3.1546   3.1981   3.6608
     4.3660   4.6112   5.1153   5.4207   5.6148   5.6853   5.7629   5.8418
     6.2655   6.3319   6.3805   6.6110   6.8524   6.9157   6.9779   7.0051
     7.1279   7.2128   7.3144   7.3879   7.4950   7.6116   7.7452   7.8757
     7.8775   7.9400   8.0539   8.2326   8.2886   8.4547   8.5051   8.6508
     8.7340   8.7890

          k = 0.1250 0.5236 0.0000 ( 71896 PWs)   bands (ev):

   -41.3796 -38.9284 -38.1035 -35.7342 -23.0231 -22.9060 -22.8115 -22.7100
   -22.5872 -22.5508 -22.4558 -22.4521 -21.4917 -21.4061 -21.3717 -20.0114
   -19.9770 -19.9452 -18.4670 -18.4558 -18.4489 -16.9900 -16.9764 -16.9480
   -16.0669 -15.6563 -15.5127 -15.1274 -15.0715 -14.8547 -14.7840 -14.7317
   -14.7124 -14.6961 -14.6784 -14.6077 -14.5264 -14.4137 -14.3650 -14.2866
   -14.2107 -14.1782 -14.1362 -14.1038 -14.0421 -14.0402 -14.0155 -14.0124
   -14.0071 -13.9644 -13.8556 -13.8341 -13.7576 -13.5441  -8.5472  -8.4108
    -8.3529  -8.3050  -8.2544  -8.1707  -8.1146  -8.1108  -8.0906  -8.0824
    -8.0306  -7.9866  -7.9403  -7.8867  -7.8689  -7.8160  -7.7963  -7.7727
    -7.7374  -7.7328  -7.7306  -7.7040  -7.5007  -7.4644  -4.1337  -3.5257
    -3.4739  -3.1714  -2.9136  -2.8731  -2.8227  -2.7669  -2.6661  -2.6269
    -2.6129  -2.5835  -2.4831  -2.4238  -2.3361  -2.3058  -2.2633  -2.2485
    -2.2262  -2.2121  -2.2032  -2.2011  -2.1478  -2.1214  -2.1094  -2.0731
    -2.0553  -1.9690  -1.8566  -1.8184  -1.7093  -1.6955  -1.6615  -1.6346
    -1.4422  -1.4394  -1.2922  -1.2781  -1.2681  -1.2389  -1.1738  -1.0437
    -1.0290  -1.0016  -0.9757  -0.9198  -0.8976  -0.8957  -0.8482  -0.8059
    -0.7503  -0.7432  -0.7423  -0.7172  -0.6588  -0.6394  -0.6266  -0.5890
    -0.5615  -0.5571  -0.5367  -0.5329  -0.4996  -0.4557  -0.4452  -0.4200
    -0.3759  -0.3663  -0.3245  -0.2950  -0.2096  -0.2069  -0.0059   0.0246
     0.0644   0.0767   0.1290   0.1736   0.1964   0.2024   0.2090   0.2476
     0.2787   0.2992   0.3242   0.3499   0.4052   0.4485   0.5190   0.5569
     0.6446   0.6767   0.7534   0.8110   0.8148   0.8329   0.8374   0.9393
     0.9610   0.9953   1.0556   1.0667   1.0754   1.0867   1.1262   1.1274
     1.1458   1.1749   1.2022   1.2153   1.2363   1.2472   1.2907   1.2969
     1.3230   1.3384   1.3646   1.3888   1.4065   1.4079   1.4410   1.4484
     1.5217   1.5419   1.5455   1.5808   1.5900   1.6094   1.6509   1.7093
     1.7503   1.7680   1.7954   1.8011   1.8308   1.8526   1.8578   1.8778
     1.9930   2.0098   2.0389   2.0546   2.0722   2.0776   2.1237   2.1993
     2.2395   2.5050   2.5382   2.6046   3.0503   3.0533   3.0889   3.1296
     3.2009   3.4023   3.4814   3.5643   3.7315   3.7678   3.8928   4.0808
     4.4459   4.8960   4.9486   5.3952   5.8543   5.9828   6.1014   6.4967
     6.5408   6.5620   6.6087   6.7147   6.7288   6.9504   6.9700   7.0962
     7.2574   7.5306   7.8287   7.9259   8.0244   8.1566   8.2461   8.2977
     8.3863   8.4567   8.4737   8.5359   8.6199   8.7101   8.8089   8.8415
     8.9410   9.0423

          k = 0.1250 0.7854 0.0000 ( 71866 PWs)   bands (ev):

   -41.3746 -38.9251 -38.0970 -35.7300 -22.9641 -22.8582 -22.7497 -22.6614
   -22.5281 -22.4878 -22.4080 -22.4037 -21.5753 -21.3971 -21.3671 -20.0609
   -19.9716 -19.9388 -18.6758 -18.4385 -18.3430 -17.1104 -16.9369 -16.9042
   -15.9018 -15.5652 -15.5300 -15.1447 -14.9199 -14.7871 -14.7443 -14.6805
   -14.5966 -14.5733 -14.5476 -14.5414 -14.5145 -14.3739 -14.2182 -14.2072
   -14.2071 -14.1919 -14.1694 -14.0789 -14.0318 -14.0195 -13.9910 -13.9606
   -13.9500 -13.9374 -13.9264 -13.8719 -13.7835 -13.6677  -8.8754  -8.7045
    -8.5598  -8.4659  -8.4627  -8.4323  -8.4125  -8.2811  -8.2221  -8.1844
    -8.1148  -8.0976  -8.0346  -8.0304  -7.9582  -7.8352  -7.8060  -7.7979
    -7.7568  -7.7481  -7.6948  -7.6830  -7.4452  -7.4083  -4.5947  -4.0089
    -3.7537  -3.5771  -3.2949  -3.2553  -3.2123  -3.1354  -3.0207  -2.9760
    -2.9300  -2.9164  -2.8769  -2.8162  -2.7843  -2.7805  -2.6201  -2.4629
    -2.4513  -2.3676  -2.3407  -2.2709  -2.2339  -2.2290  -2.1831  -2.1820
    -2.1592  -2.0896  -1.9024  -1.8360  -1.8171  -1.7618  -1.7333  -1.7029
    -1.6428  -1.5844  -1.5668  -1.5231  -1.5022  -1.2490  -1.2223  -1.2127
    -1.1213  -1.0844  -1.0508  -1.0318  -1.0215  -1.0164  -1.0108  -0.9825
    -0.9563  -0.9388  -0.8675  -0.8372  -0.8311  -0.8166  -0.8033  -0.8000
    -0.7570  -0.7358  -0.7313  -0.7182  -0.7129  -0.6510  -0.6250  -0.6136
    -0.6038  -0.5447  -0.5424  -0.2431  -0.2024  -0.1945  -0.1608   0.0403
     0.0969   0.1482   0.1611   0.2081   0.2360   0.2786   0.2972   0.3128
     0.3379   0.4281   0.4525   0.5276   0.5495   0.5942   0.6848   0.7310
     0.8484   0.8540   0.9116   0.9533   0.9763   1.0329   1.0611   1.0744
     1.0788   1.0983   1.1480   1.1602   1.2109   1.2222   1.2523   1.2947
     1.3078   1.3310   1.3732   1.3878   1.4140   1.4260   1.4530   1.4700
     1.4829   1.5167   1.5872   1.6228   1.6312   1.6407   1.6727   1.6787
     1.7255   1.7264   1.7379   1.7564   1.7969   1.8178   1.8529   1.8759
     1.8829   1.9076   1.9350   1.9371   1.9666   2.0149   2.0906   2.0958
     2.1313   2.1388   2.2250   2.2378   2.2797   2.2898   2.3016   2.4439
     2.4656   2.4753   2.5175   2.8408   2.8987   2.9815   3.0054   3.1220
     3.3304   3.4963   3.8982   3.9923   4.0748   4.3808   4.4516   4.6460
     4.6556   4.8774   5.1553   5.2725   5.6073   5.6894   6.1250   6.2317
     6.3942   6.7486   6.8571   7.0547   7.2138   7.3775   7.4459   7.4761
     7.7481   7.7921   7.9700   8.3193   8.3792   8.4988   8.5778   8.6982
     8.7593   8.7725   8.7966   8.8531   8.9475   9.0456   9.0493   9.1254
     9.1752   9.2453

          k = 0.1250-1.0472 0.0000 ( 71978 PWs)   bands (ev):

   -41.3725 -38.9238 -38.0942 -35.7283 -22.9392 -22.8380 -22.7235 -22.6409
   -22.5031 -22.4611 -22.3878 -22.3834 -21.6140 -21.3934 -21.3601 -20.0834
   -19.9693 -19.9339 -18.7564 -18.4313 -18.2957 -17.1608 -16.9323 -16.8683
   -15.8030 -15.5907 -15.5005 -15.1827 -14.9313 -14.7867 -14.7173 -14.6608
   -14.5645 -14.5363 -14.4982 -14.4231 -14.3962 -14.3538 -14.3130 -14.2202
   -14.2091 -14.1619 -14.1070 -14.0279 -14.0278 -13.9998 -13.9633 -13.9601
   -13.9429 -13.9154 -13.9032 -13.8819 -13.8581 -13.7205  -9.0112  -8.8372
    -8.6816  -8.5949  -8.5747  -8.5429  -8.4746  -8.3147  -8.2674  -8.2492
    -8.2176  -8.1005  -8.0501  -8.0263  -7.9684  -7.8227  -7.8139  -7.8101
    -7.7641  -7.7439  -7.6830  -7.6592  -7.4204  -7.3827  -4.7805  -4.2100
    -3.8674  -3.7639  -3.4810  -3.4309  -3.4110  -3.3447  -3.1693  -3.1338
    -3.1101  -3.0805  -3.0465  -3.0130  -2.9859  -2.9252  -2.6457  -2.4747
    -2.4690  -2.4009  -2.3033  -2.2659  -2.2522  -2.2456  -2.2069  -2.1678
    -2.1485  -2.0806  -2.0796  -1.9652  -1.9013  -1.7842  -1.7807  -1.7637
    -1.6662  -1.6341  -1.6002  -1.5275  -1.4550  -1.3812  -1.2983  -1.2238
    -1.2081  -1.1608  -1.1531  -1.1099  -1.0898  -1.0850  -1.0656  -1.0520
    -1.0005  -0.9428  -0.9280  -0.9247  -0.9083  -0.8984  -0.8674  -0.8516
    -0.8366  -0.8196  -0.8093  -0.8076  -0.7903  -0.7155  -0.6867  -0.6296
    -0.6238  -0.6114  -0.4794  -0.2397  -0.2102  -0.2023  -0.1721   0.0008
     0.0217   0.1593   0.1747   0.2095   0.2283   0.2840   0.3074   0.3165
     0.3773   0.5295   0.5546   0.5592   0.6157   0.6478   0.7288   0.8258
     0.8978   0.9067   0.9717   0.9842   0.9854   0.9918   1.0261   1.1437
     1.1889   1.1913   1.2075   1.2311   1.2515   1.2604   1.3249   1.3276
     1.3526   1.3648   1.3933   1.4016   1.4126   1.4377   1.4754   1.5701
     1.6052   1.6054   1.6227   1.7021   1.7040   1.7360   1.7439   1.8217
     1.8230   1.8281   1.8535   1.8841   1.9334   1.9498   1.9575   2.0008
     2.0395   2.0546   2.0708   2.1021   2.1534   2.1841   2.2067   2.2180
     2.2451   2.2476   2.2633   2.2803   2.3263   2.3850   2.4243   2.4384
     2.4722   2.6088   2.6407   2.6690   2.7590   2.8420   2.9623   2.9933
     3.4179   3.4690   3.9494   4.1432   4.2148   4.5726   4.6462   4.8293
     4.8586   4.9533   5.0125   5.2881   5.4978   5.5824   5.8984   6.0238
     6.5051   6.6401   7.0422   7.2222   7.3679   7.5978   7.7164   7.8358
     7.8730   7.9278   8.1659   8.2011   8.2132   8.3130   8.6421   8.7969
     8.7980   8.8840   8.9708   9.0181   9.0729   9.1186   9.2534   9.2643
     9.3625   9.3666

          k = 0.2500 0.0000 0.0000 ( 71933 PWs)   bands (ev):

   -41.3867 -38.9330 -38.1127 -35.7400 -23.0944 -22.9818 -22.8832 -22.7901
   -22.6594 -22.6232 -22.5330 -22.5309 -21.4599 -21.4171 -21.2852 -19.9925
   -19.9872 -19.9013 -18.5853 -18.4726 -18.1159 -17.0980 -16.9931 -16.7697
   -16.2243 -15.8448 -15.4859 -15.3970 -15.0329 -15.0101 -14.9922 -14.8917
   -14.8825 -14.7353 -14.7351 -14.7143 -14.6580 -14.5650 -14.5321 -14.3477
   -14.3238 -14.1701 -14.1125 -14.0872 -14.0770 -14.0665 -14.0364 -14.0313
   -13.9909 -13.8724 -13.8054 -13.7096 -13.6846 -13.4461  -8.4496  -8.3604
    -8.1455  -8.0453  -8.0410  -7.9499  -7.9467  -7.9111  -7.9029  -7.8633
    -7.7963  -7.7937  -7.7797  -7.7408  -7.7365  -7.6623  -7.6150  -7.6092
    -7.5381  -7.5178  -7.5075  -7.4863  -7.3667  -7.3555  -3.5156  -2.9480
    -2.9334  -2.9119  -2.7750  -2.5236  -2.5089  -2.4659  -2.2977  -2.2713
    -2.2387  -2.2221  -2.1624  -2.1143  -2.1142  -2.0518  -1.9976  -1.9782
    -1.9142  -1.7954  -1.7757  -1.7289  -1.6072  -1.5583  -1.5529  -1.5392
    -1.5268  -1.4003  -1.3277  -1.2979  -1.2795  -1.1604  -1.1419  -1.0769
    -1.0761  -1.0674  -1.0364  -1.0237  -1.0000  -0.9958  -0.9876  -0.9788
    -0.9736  -0.9123  -0.8534  -0.7948  -0.7366  -0.7187  -0.6986  -0.6794
    -0.6512  -0.6471  -0.5888  -0.5869  -0.4800  -0.4073  -0.3810  -0.3495
    -0.3038  -0.2978  -0.2872  -0.2712  -0.2691  -0.2246  -0.2186  -0.2060
    -0.1842  -0.1342  -0.0665  -0.0453  -0.0282  -0.0252  -0.0096  -0.0076
    -0.0010   0.0924   0.0999   0.1382   0.1528   0.1941   0.2029   0.2092
     0.2160   0.2291   0.2359   0.2452   0.2789   0.3368   0.3536   0.4088
     0.4239   0.4267   0.4408   0.4434   0.4674   0.4831   0.5325   0.5603
     0.5936   0.5984   0.6397   0.6545   0.6695   0.6939   0.8127   0.8413
     0.8710   0.9287   0.9600   0.9636   1.0032   1.0211   1.0580   1.0928
     1.1459   1.1484   1.2164   1.2226   1.2577   1.2813   1.3034   1.3271
     1.3573   1.4108   1.4429   1.5047   1.5082   1.5261   1.5323   1.6098
     1.6397   1.6763   1.6775   1.7284   1.7456   1.7671   1.7747   1.8074
     1.8524   1.8570   1.8724   1.9262   1.9797   1.9838   2.0604   2.1036
     2.1690   2.1731   2.2054   2.2307   2.3317   2.3533   2.3819   2.4386
     2.4645   2.5789   2.5964   2.6292   2.7756   2.8144   2.9247   3.4593
     4.4404   4.5814   5.2345   5.3320   5.3857   5.4634   5.6918   5.7669
     6.1710   6.4199   6.4434   6.4971   6.5558   6.6597   6.6628   6.8263
     7.0533   7.0630   7.1446   7.2798   7.3930   7.5156   7.8245   7.8847
     7.9593   8.0758   8.0907   8.1182   8.2148   8.3172   8.3859   8.4479
     8.5152   8.6958

          k = 0.2500 0.2618 0.0000 ( 71920 PWs)   bands (ev):

   -41.3846 -38.9317 -38.1100 -35.7383 -23.0715 -22.9623 -22.8594 -22.7701
   -22.6365 -22.5991 -22.5130 -22.5113 -21.4583 -21.4134 -21.3223 -19.9909
   -19.9850 -19.9215 -18.5468 -18.4655 -18.2268 -17.0681 -16.9868 -16.8354
   -16.1757 -15.8046 -15.4827 -15.2934 -15.0216 -14.9694 -14.9439 -14.8454
   -14.8368 -14.7022 -14.6877 -14.6738 -14.6251 -14.5479 -14.5051 -14.3015
   -14.2811 -14.1681 -14.1447 -14.0880 -14.0703 -14.0633 -14.0339 -14.0229
   -14.0130 -13.9126 -13.8170 -13.7330 -13.7151 -13.4732  -8.4569  -8.3485
    -8.1637  -8.1399  -8.1202  -8.0691  -8.0156  -7.9603  -7.9344  -7.8933
    -7.8617  -7.8551  -7.8181  -7.7970  -7.7383  -7.7252  -7.7177  -7.6831
    -7.6749  -7.6669  -7.4784  -7.4536  -7.4388  -7.4309  -3.6369  -3.1898
    -3.0291  -2.8312  -2.8148  -2.6894  -2.5535  -2.4415  -2.4167  -2.3334
    -2.2460  -2.2349  -2.1992  -2.1914  -2.1702  -2.1101  -2.0818  -2.0407
    -2.0290  -1.9642  -1.9382  -1.9201  -1.8771  -1.8654  -1.6837  -1.6667
    -1.6220  -1.5124  -1.4919  -1.4400  -1.4232  -1.4229  -1.4089  -1.3973
    -1.3210  -1.3029  -1.2370  -1.2312  -1.1632  -1.0953  -1.0729  -1.0501
    -0.9968  -0.9382  -0.8886  -0.8465  -0.7992  -0.7720  -0.7495  -0.7220
    -0.7052  -0.6579  -0.6283  -0.5880  -0.5565  -0.4890  -0.4318  -0.3825
    -0.3666  -0.3487  -0.3365  -0.3235  -0.2516  -0.2152  -0.1816  -0.1610
    -0.1543  -0.0999  -0.0969  -0.0805  -0.0509  -0.0175  -0.0110  -0.0081
     0.0328   0.0963   0.1024   0.1236   0.1424   0.1583   0.1875   0.1971
     0.2125   0.2561   0.2873   0.2997   0.3099   0.3230   0.3415   0.3623
     0.3733   0.4106   0.4179   0.4362   0.4664   0.5044   0.5479   0.5722
     0.5860   0.6606   0.7342   0.8380   0.8618   0.8692   0.9079   0.9360
     0.9913   1.0203   1.0464   1.0689   1.0965   1.1056   1.1256   1.1489
     1.1880   1.1962   1.2079   1.2470   1.3055   1.3135   1.3281   1.3623
     1.4131   1.4315   1.4766   1.4907   1.4923   1.5696   1.6019   1.6085
     1.6377   1.6482   1.6824   1.7058   1.7209   1.7235   1.7704   1.7876
     1.8258   1.8578   1.8935   1.9307   2.0406   2.0501   2.1520   2.1881
     2.2915   2.2949   2.5036   2.5544   2.7029   2.7533   2.7597   2.8411
     2.8962   2.9027   2.9213   2.9628   2.9791   3.1251   3.1946   3.5233
     4.4942   4.6608   5.1092   5.4105   5.7229   5.7473   5.8097   5.8706
     6.2938   6.3662   6.4054   6.6233   6.6367   6.7059   6.7762   7.1353
     7.1498   7.2241   7.3635   7.4251   7.4637   7.6747   7.8439   8.0513
     8.1064   8.1355   8.1435   8.2761   8.3802   8.5189   8.5697   8.6068
     8.6652   8.7849

          k = 0.2500 0.5236 0.0000 ( 71854 PWs)   bands (ev):

   -41.3796 -38.9284 -38.1035 -35.7342 -23.0153 -22.9143 -22.8009 -22.7210
   -22.5801 -22.5395 -22.4640 -22.4633 -21.4917 -21.4045 -21.3717 -20.0113
   -19.9798 -19.9451 -18.4669 -18.4483 -18.4474 -16.9947 -16.9787 -16.9712
   -16.0479 -15.7011 -15.4877 -15.0674 -15.0611 -14.8375 -14.7752 -14.7208
   -14.7170 -14.6936 -14.6774 -14.5934 -14.5267 -14.4603 -14.3934 -14.2951
   -14.1912 -14.1832 -14.1808 -14.0912 -14.0403 -14.0368 -14.0145 -14.0114
   -14.0068 -13.9701 -13.8665 -13.8313 -13.7342 -13.5515  -8.5657  -8.4229
    -8.3884  -8.3049  -8.2869  -8.1569  -8.1492  -8.1353  -8.1045  -8.0979
    -8.0355  -7.9545  -7.9431  -7.8958  -7.8751  -7.8321  -7.7931  -7.7657
    -7.7289  -7.7058  -7.6919  -7.6900  -7.4531  -7.4266  -4.0484  -3.5242
    -3.4252  -3.0696  -2.9162  -2.9069  -2.7616  -2.7271  -2.6816  -2.6423
    -2.5951  -2.5568  -2.4662  -2.4318  -2.3258  -2.3103  -2.2611  -2.2403
    -2.2194  -2.2063  -2.1866  -2.1857  -2.1378  -2.1287  -2.1062  -2.0707
    -2.0463  -1.9522  -1.8846  -1.8660  -1.7998  -1.6647  -1.6448  -1.6231
    -1.5386  -1.4771  -1.4469  -1.2987  -1.2833  -1.2268  -1.1767  -1.1623
    -1.0820  -1.0222  -0.9864  -0.9731  -0.9587  -0.9295  -0.8996  -0.8532
    -0.8268  -0.7784  -0.7382  -0.6973  -0.6853  -0.6691  -0.6240  -0.6158
    -0.5393  -0.5281  -0.5187  -0.4963  -0.4760  -0.4606  -0.4434  -0.4313
    -0.4261  -0.3457  -0.3297  -0.2849  -0.1951  -0.1811  -0.0727   0.0192
     0.0244   0.0401   0.0568   0.1368   0.1662   0.2171   0.2231   0.2603
     0.3196   0.3597   0.3812   0.4076   0.4338   0.4594   0.4972   0.5422
     0.6809   0.7347   0.7386   0.7549   0.7798   0.7855   0.8500   0.9125
     0.9622   0.9699   1.0399   1.0437   1.0643   1.0711   1.0918   1.1187
     1.1430   1.1542   1.1861   1.2198   1.2458   1.2711   1.2970   1.3328
     1.3647   1.3760   1.3987   1.4319   1.4507   1.4609   1.4676   1.4876
     1.4992   1.5382   1.5606   1.5788   1.5917   1.6258   1.6419   1.6730
     1.6884   1.7309   1.8017   1.8116   1.8325   1.8599   1.9293   1.9586
     2.0145   2.0318   2.0360   2.0477   2.0671   2.1156   2.1629   2.3146
     2.4259   2.5106   2.7476   2.8564   3.0531   3.0886   3.0949   3.1384
     3.2186   3.3127   3.4595   3.5674   3.6535   3.6747   3.8021   3.9816
     4.5641   4.8924   4.9698   5.4080   5.8683   5.9772   6.0820   6.5372
     6.5430   6.6048   6.6262   6.7273   6.7426   6.9029   7.0071   7.1514
     7.2102   7.3096   7.9649   8.0533   8.1424   8.1626   8.2886   8.3376
     8.3888   8.4446   8.5086   8.6395   8.6939   8.7466   8.8175   8.8991
     8.9175   9.0617

          k = 0.2500 0.7854 0.0000 ( 71912 PWs)   bands (ev):

   -41.3746 -38.9251 -38.0970 -35.7300 -22.9575 -22.8652 -22.7408 -22.6706
   -22.5222 -22.4781 -22.4141 -22.4138 -21.5753 -21.3955 -21.3672 -20.0609
   -19.9743 -19.9386 -18.6758 -18.4312 -18.3417 -17.1104 -16.9593 -16.9094
   -15.8897 -15.5859 -15.5210 -15.1438 -14.8799 -14.7371 -14.7242 -14.6919
   -14.5930 -14.5815 -14.5448 -14.5401 -14.5117 -14.3746 -14.2887 -14.2381
   -14.1883 -14.1766 -14.1531 -14.0764 -14.0531 -14.0381 -13.9875 -13.9633
   -13.9481 -13.9321 -13.9318 -13.8798 -13.7795 -13.6673  -8.8321  -8.6646
    -8.4804  -8.4459  -8.4244  -8.3866  -8.3370  -8.3034  -8.2714  -8.1617
    -8.0821  -8.0725  -8.0381  -8.0300  -7.9578  -7.9234  -7.9177  -7.8655
    -7.7613  -7.7443  -7.7391  -7.7009  -7.5019  -7.4639  -4.4939  -3.9064
    -3.8196  -3.4832  -3.3340  -3.2545  -3.1417  -3.1375  -3.0481  -2.9377
    -2.9211  -2.8856  -2.8698  -2.8233  -2.7892  -2.7836  -2.5761  -2.5756
    -2.4176  -2.3202  -2.2700  -2.2591  -2.2362  -2.2338  -2.1824  -2.1547
    -2.1279  -2.0626  -2.0046  -1.8978  -1.8288  -1.8196  -1.7507  -1.7289
    -1.6971  -1.6096  -1.5382  -1.5075  -1.4727  -1.3966  -1.2665  -1.2341
    -1.1729  -1.1652  -1.1531  -1.1069  -1.0566  -1.0372  -0.9976  -0.9951
    -0.9822  -0.9203  -0.8941  -0.8641  -0.8393  -0.7886  -0.7808  -0.7623
    -0.7430  -0.7215  -0.6974  -0.6955  -0.6760  -0.6592  -0.6423  -0.6295
    -0.5968  -0.5725  -0.5112  -0.2768  -0.2159  -0.1822  -0.1305  -0.0192
     0.0571   0.1128   0.1530   0.2343   0.2889   0.3315   0.3346   0.3594
     0.3741   0.4013   0.4489   0.5048   0.5916   0.6332   0.6699   0.6730
     0.8526   0.8874   0.9088   0.9383   0.9740   0.9975   1.0438   1.0649
     1.0739   1.1273   1.1397   1.1570   1.1944   1.2186   1.2561   1.2948
     1.3218   1.3390   1.3682   1.3853   1.4038   1.4404   1.4518   1.4831
     1.5099   1.5211   1.5505   1.5970   1.6509   1.6538   1.6739   1.6950
     1.7239   1.7358   1.7533   1.7552   1.7761   1.8123   1.8403   1.8647
     1.8923   1.8936   1.9483   1.9527   1.9908   2.0399   2.0554   2.1056
     2.1704   2.2575   2.2630   2.3004   2.3102   2.3444   2.4206   2.4543
     2.4954   2.7082   2.7195   2.8109   2.9047   2.9930   3.0405   3.1579
     3.3604   3.4949   3.8155   3.9041   4.0397   4.1915   4.2808   4.4819
     4.7008   4.9256   5.1622   5.2878   5.6204   5.7375   6.2814   6.3213
     6.4307   6.7724   6.8488   7.0172   7.0952   7.2656   7.3664   7.3752
     7.5637   7.7370   7.9754   8.1845   8.4921   8.5755   8.6216   8.7208
     8.7459   8.8222   8.8893   8.9718   9.0221   9.1050   9.1443   9.2013
     9.2145   9.2555

          k = 0.2500-1.0472 0.0000 ( 71856 PWs)   bands (ev):

   -41.3725 -38.9238 -38.0942 -35.7283 -22.9331 -22.8444 -22.7154 -22.6493
   -22.4978 -22.4521 -22.3934 -22.3926 -21.6140 -21.3918 -21.3602 -20.0834
   -19.9721 -19.9337 -18.7563 -18.4240 -18.2946 -17.1609 -16.9539 -16.8731
   -15.7973 -15.5803 -15.5090 -15.1900 -14.8989 -14.7561 -14.6662 -14.6527
   -14.5744 -14.5361 -14.5296 -14.4141 -14.3969 -14.3525 -14.2938 -14.2403
   -14.2115 -14.2000 -14.1374 -14.0476 -14.0228 -13.9998 -13.9585 -13.9543
   -13.9454 -13.9159 -13.9071 -13.8686 -13.8685 -13.7307  -8.9270  -8.7504
    -8.5965  -8.5091  -8.4915  -8.4685  -8.4542  -8.3393  -8.2707  -8.2249
    -8.1483  -8.1435  -8.0900  -8.0348  -7.9765  -7.9134  -7.9123  -7.9071
    -7.7795  -7.7559  -7.7467  -7.6913  -7.5413  -7.4900  -4.6742  -4.1049
    -3.9397  -3.6712  -3.5018  -3.4535  -3.3504  -3.3392  -3.2029  -3.1340
    -3.1037  -3.0542  -3.0241  -3.0185  -2.9968  -2.8957  -2.5926  -2.4352
    -2.4007  -2.3939  -2.3817  -2.3444  -2.2595  -2.2457  -2.2068  -2.1901
    -2.1485  -2.1106  -2.0559  -1.9518  -1.8177  -1.7951  -1.7706  -1.7138
    -1.6952  -1.6466  -1.6120  -1.5640  -1.5396  -1.5028  -1.4648  -1.3202
    -1.2282  -1.1716  -1.1588  -1.1246  -1.1072  -1.0985  -1.0934  -1.0455
    -1.0229  -0.9985  -0.9305  -0.9151  -0.8778  -0.8652  -0.8556  -0.8449
    -0.8338  -0.8027  -0.7677  -0.7582  -0.7434  -0.7219  -0.6943  -0.6871
    -0.6285  -0.5840  -0.4768  -0.2529  -0.2064  -0.1995  -0.1428  -0.0297
     0.0548   0.1336   0.1597   0.2035   0.3154   0.3277   0.3436   0.3480
     0.4610   0.4872   0.5005   0.5221   0.6549   0.6809   0.7287   0.7566
     0.9104   0.9634   0.9744   1.0090   1.0102   1.0352   1.0695   1.0718
     1.1300   1.1622   1.2001   1.2134   1.2246   1.2365   1.2515   1.3666
     1.3869   1.3932   1.4064   1.4249   1.4545   1.4904   1.5031   1.5154
     1.5602   1.5688   1.6214   1.6296   1.6395   1.7358   1.7374   1.7698
     1.8169   1.8368   1.8725   1.8957   1.9186   1.9420   2.0306   2.0405
     2.0490   2.0515   2.1176   2.1629   2.1723   2.1844   2.1950   2.2097
     2.2107   2.2278   2.3774   2.4055   2.4512   2.4577   2.4934   2.5880
     2.5883   2.5972   2.6228   2.6832   2.7837   2.9127   2.9193   3.0229
     3.4216   3.4979   3.9160   3.9922   4.1815   4.3449   4.4339   4.6461
     4.8504   5.0036   5.0662   5.2771   5.5037   5.6430   6.0910   6.2167
     6.4764   6.7197   6.9650   7.1036   7.1378   7.4678   7.5914   7.6385
     7.8776   7.9225   7.9649   8.1382   8.1839   8.2836   8.7720   8.7977
     8.8779   8.9801   9.0927   9.1835   9.2068   9.2733   9.3078   9.3203
     9.3467   9.4051

          k = 0.3750 0.0000 0.0000 ( 71958 PWs)   bands (ev):

   -41.3867 -38.9331 -38.1127 -35.7400 -23.0827 -22.9941 -22.8651 -22.8090
   -22.6492 -22.6029 -22.5541 -22.5418 -21.4600 -21.4155 -21.2852 -19.9924
   -19.9900 -19.9013 -18.5836 -18.4646 -18.1159 -17.1051 -17.0206 -16.7697
   -16.1941 -15.8996 -15.4557 -15.3020 -15.0207 -14.9911 -14.9724 -14.9130
   -14.8260 -14.8006 -14.7312 -14.7288 -14.6657 -14.5876 -14.5376 -14.4228
   -14.2943 -14.1531 -14.0925 -14.0848 -14.0776 -14.0562 -14.0399 -14.0353
   -14.0006 -13.9249 -13.8075 -13.6994 -13.6623 -13.4680  -8.4548  -8.3703
    -8.1496  -8.0474  -8.0139  -7.9627  -7.9243  -7.9151  -7.8725  -7.8627
    -7.8299  -7.7997  -7.7696  -7.7448  -7.7432  -7.6467  -7.6255  -7.5801
    -7.5303  -7.5005  -7.4968  -7.4872  -7.4071  -7.3883  -3.4438  -2.9958
    -2.9340  -2.7781  -2.6387  -2.5163  -2.4780  -2.4034  -2.3937  -2.3280
    -2.2663  -2.2050  -2.2002  -2.1358  -2.1044  -2.0838  -2.0300  -1.9599
    -1.9058  -1.7952  -1.7919  -1.7603  -1.5964  -1.5873  -1.5742  -1.5519
    -1.5080  -1.3898  -1.3063  -1.2904  -1.2511  -1.1180  -1.0976  -1.0710
    -1.0423  -1.0341  -1.0298  -0.9979  -0.9944  -0.9798  -0.9760  -0.9721
    -0.9196  -0.9113  -0.8982  -0.8334  -0.7783  -0.7484  -0.7382  -0.7265
    -0.6119  -0.6083  -0.5904  -0.5524  -0.5163  -0.5068  -0.4984  -0.4193
    -0.4120  -0.3791  -0.3074  -0.3000  -0.2720  -0.2589  -0.2464  -0.2074
    -0.2029  -0.1132  -0.1007  -0.0653  -0.0534  -0.0146  -0.0072  -0.0062
     0.0137   0.0284   0.1422   0.1453   0.1601   0.2008   0.2146   0.2152
     0.2296   0.2568   0.2993   0.3086   0.3187   0.3503   0.3890   0.3931
     0.3978   0.4432   0.4483   0.4503   0.4646   0.5225   0.5291   0.5399
     0.5760   0.6186   0.6547   0.6740   0.6799   0.7707   0.8039   0.8397
     0.8482   0.9003   0.9077   0.9200   0.9467   0.9975   1.0855   1.0989
     1.1220   1.1449   1.1992   1.2661   1.2699   1.3134   1.3335   1.3423
     1.3814   1.4263   1.4542   1.4654   1.4881   1.5078   1.5708   1.6121
     1.6159   1.6511   1.6852   1.6871   1.7138   1.7508   1.7724   1.7974
     1.8069   1.8575   1.8892   1.9006   1.9378   1.9382   2.0998   2.1149
     2.1347   2.1979   2.2496   2.2726   2.3268   2.3748   2.3821   2.4465
     2.4730   2.5660   2.6290   2.7400   2.7682   2.8797   2.9042   3.2976
     4.4897   4.7349   5.2421   5.2600   5.5902   5.6132   5.6955   5.9053
     6.1500   6.2087   6.3186   6.4115   6.4509   6.6643   6.6773   6.9919
     7.0713   7.1662   7.2768   7.2811   7.3112   7.6504   7.7926   7.8583
     7.9708   8.0242   8.1076   8.1210   8.1961   8.3671   8.4265   8.5230
     8.6045   8.8089

          k = 0.3750 0.2618 0.0000 ( 71960 PWs)   bands (ev):

   -41.3846 -38.9317 -38.1100 -35.7383 -23.0605 -22.9739 -22.8422 -22.7880
   -22.6269 -22.5797 -22.5331 -22.5216 -21.4584 -21.4118 -21.3223 -19.9907
   -19.9879 -19.9215 -18.5451 -18.4576 -18.2268 -17.0748 -17.0132 -16.8353
   -16.1474 -15.8563 -15.4559 -15.1990 -15.0213 -14.9414 -14.9225 -14.8647
   -14.7908 -14.7373 -14.7077 -14.7059 -14.6348 -14.5648 -14.4936 -14.3729
   -14.2546 -14.1588 -14.1488 -14.0734 -14.0686 -14.0524 -14.0310 -14.0258
   -14.0189 -13.9510 -13.8241 -13.7388 -13.6749 -13.4914  -8.4602  -8.3650
    -8.1869  -8.1585  -8.1498  -8.0945  -8.0423  -7.9709  -7.9577  -7.8917
    -7.8550  -7.8411  -7.8320  -7.8248  -7.7409  -7.7357  -7.7107  -7.6769
    -7.6658  -7.6346  -7.4258  -7.4111  -7.3993  -7.3866  -3.5463  -3.2544
    -2.8707  -2.8177  -2.7351  -2.6817  -2.5173  -2.4269  -2.4195  -2.3673
    -2.2497  -2.2292  -2.2244  -2.1997  -2.1813  -2.0978  -2.0862  -2.0506
    -2.0240  -1.9640  -1.9411  -1.9143  -1.8958  -1.8301  -1.6826  -1.6598
    -1.6473  -1.5840  -1.5236  -1.4608  -1.4342  -1.4278  -1.4135  -1.4024
    -1.3717  -1.3499  -1.2498  -1.1915  -1.1494  -1.1074  -1.0701  -1.0392
    -1.0192  -0.9563  -0.9082  -0.9030  -0.8860  -0.7706  -0.7583  -0.7264
    -0.7092  -0.7035  -0.6265  -0.5749  -0.5667  -0.5421  -0.4594  -0.4534
    -0.4115  -0.3896  -0.3256  -0.3010  -0.2908  -0.2177  -0.1972  -0.1539
    -0.1460  -0.1208  -0.1058  -0.0928  -0.0756  -0.0358  -0.0293   0.0087
     0.0164   0.0854   0.1002   0.1102   0.1626   0.1687   0.1793   0.1873
     0.2468   0.2832   0.3098   0.3313   0.3416   0.3488   0.3684   0.3722
     0.3917   0.4104   0.4421   0.4480   0.4903   0.5034   0.5269   0.5384
     0.5939   0.6307   0.6925   0.7998   0.8879   0.9170   0.9657   0.9743
     1.0017   1.0197   1.0325   1.0745   1.0797   1.0879   1.1108   1.1317
     1.1860   1.2143   1.2188   1.2463   1.2878   1.3320   1.3348   1.3378
     1.4479   1.4770   1.4806   1.4947   1.5446   1.5519   1.5755   1.5774
     1.6015   1.6134   1.6518   1.6774   1.6894   1.7240   1.7406   1.7622
     1.8222   1.8841   1.8855   1.9741   2.0422   2.1397   2.1880   2.2053
     2.2402   2.4683   2.4828   2.6777   2.7287   2.8187   2.8468   2.8577
     2.9014   2.9147   2.9443   2.9510   3.0004   3.0612   3.1773   3.3720
     4.5729   4.7811   5.0776   5.3612   5.7364   5.8906   5.9449   5.9689
     6.2601   6.3547   6.4123   6.4256   6.5316   6.6509   6.7517   7.0127
     7.2301   7.2423   7.3930   7.5886   7.6071   7.8591   7.8978   8.0230
     8.1189   8.1684   8.2440   8.3284   8.4576   8.5041   8.5677   8.6102
     8.6816   8.8174

          k = 0.3750 0.5236 0.0000 ( 71879 PWs)   bands (ev):

   -41.3796 -38.9284 -38.1035 -35.7342 -23.0058 -22.9242 -22.7861 -22.7363
   -22.5720 -22.5224 -22.4815 -22.4719 -21.4917 -21.4028 -21.3718 -20.0113
   -19.9827 -19.9450 -18.4667 -18.4460 -18.4406 -17.0003 -16.9962 -16.9779
   -16.0252 -15.7424 -15.4699 -15.0633 -14.9740 -14.8291 -14.7619 -14.7276
   -14.7069 -14.6880 -14.6795 -14.5840 -14.5437 -14.5275 -14.3586 -14.3018
   -14.2419 -14.2156 -14.1661 -14.0738 -14.0384 -14.0329 -14.0166 -14.0131
   -13.9987 -13.9784 -13.8771 -13.8297 -13.7119 -13.5602  -8.5561  -8.4415
    -8.3865  -8.3822  -8.3049  -8.2490  -8.1481  -8.1145  -8.0974  -8.0363
    -8.0301  -8.0117  -7.9806  -7.9419  -7.8437  -7.8390  -7.7908  -7.7387
    -7.7208  -7.6928  -7.6063  -7.6019  -7.4560  -7.4298  -3.9289  -3.6104
    -3.2802  -2.9869  -2.9260  -2.9188  -2.7694  -2.7224  -2.6523  -2.6089
    -2.6030  -2.4527  -2.4343  -2.4325  -2.3272  -2.2979  -2.2543  -2.2385
    -2.2133  -2.1979  -2.1814  -2.1651  -2.1571  -2.1083  -2.1008  -2.0685
    -2.0521  -2.0425  -1.9941  -1.8913  -1.7755  -1.7172  -1.6282  -1.5927
    -1.5443  -1.5385  -1.5066  -1.4529  -1.3563  -1.2493  -1.2043  -1.1376
    -1.1224  -1.1055  -1.0515  -1.0361  -0.9912  -0.9669  -0.9267  -0.8904
    -0.8281  -0.7671  -0.7502  -0.7372  -0.7025  -0.6952  -0.6291  -0.6086
    -0.5434  -0.5253  -0.4966  -0.4893  -0.4645  -0.4555  -0.4463  -0.4136
    -0.4100  -0.3315  -0.3229  -0.2806  -0.1897  -0.1795  -0.1334  -0.0748
    -0.0107  -0.0038   0.0157   0.1252   0.1558   0.2077   0.2873   0.3146
     0.3778   0.3975   0.4080   0.4559   0.4895   0.4940   0.5095   0.5740
     0.6719   0.6965   0.7000   0.7177   0.7869   0.8151   0.8656   0.8866
     0.9479   0.9878   0.9917   1.0029   1.0466   1.0514   1.0530   1.0853
     1.1015   1.1069   1.1454   1.2103   1.2711   1.3078   1.3391   1.3460
     1.3922   1.4284   1.4391   1.4591   1.4744   1.4898   1.5245   1.5259
     1.5392   1.5561   1.5576   1.5674   1.5901   1.6248   1.6389   1.6572
     1.6846   1.7237   1.7884   1.7931   1.8772   1.8785   1.9135   1.9680
     1.9927   2.0150   2.0378   2.0678   2.0911   2.1069   2.2658   2.2879
     2.5742   2.8580   3.0113   3.0432   3.0567   3.1243   3.1399   3.1469
     3.1580   3.3311   3.4319   3.4817   3.5723   3.6043   3.6471   3.8207
     4.6955   4.8692   4.9942   5.3941   5.8790   5.9807   6.0861   6.5393
     6.5854   6.6392   6.6612   6.7375   6.7432   6.8560   7.0552   7.0921
     7.1999   7.2566   8.0523   8.1439   8.2043   8.2465   8.2960   8.3296
     8.4325   8.4377   8.5458   8.7165   8.8036   8.8416   8.8465   8.9812
     9.0267   9.0687

          k = 0.3750 0.7854 0.0000 ( 71924 PWs)   bands (ev):

   -41.3746 -38.9251 -38.0970 -35.7300 -22.9496 -22.8733 -22.7286 -22.6832
   -22.5157 -22.4635 -22.4287 -22.4210 -21.5753 -21.3939 -21.3673 -20.0609
   -19.9771 -19.9385 -18.6757 -18.4237 -18.3404 -17.1103 -16.9814 -16.9145
   -15.8764 -15.6045 -15.5152 -15.1431 -14.8299 -14.7251 -14.6941 -14.6634
   -14.6227 -14.5609 -14.5430 -14.5378 -14.4982 -14.3938 -14.3495 -14.2833
   -14.1599 -14.1504 -14.1280 -14.0911 -14.0843 -14.0649 -13.9822 -13.9679
   -13.9454 -13.9376 -13.9258 -13.8872 -13.7761 -13.6669  -8.7527  -8.5832
    -8.4723  -8.4574  -8.3443  -8.3439  -8.3142  -8.3108  -8.2536  -8.1582
    -8.0737  -8.0731  -8.0615  -8.0436  -8.0151  -7.9342  -7.9232  -7.8672
    -7.8440  -7.7637  -7.7361  -7.7100  -7.6068  -7.5575  -4.3544  -3.9254
    -3.7650  -3.4150  -3.3613  -3.2495  -3.1486  -3.0962  -3.0489  -2.9373
    -2.9031  -2.8591  -2.8339  -2.7964  -2.7943  -2.7875  -2.6728  -2.4965
    -2.3573  -2.3235  -2.2761  -2.2621  -2.2465  -2.1998  -2.1849  -2.1429
    -2.1164  -2.0243  -2.0089  -1.9791  -1.9686  -1.8158  -1.7566  -1.7019
    -1.6553  -1.6342  -1.6057  -1.5603  -1.4988  -1.4305  -1.4088  -1.3256
    -1.3228  -1.1713  -1.1573  -1.1218  -1.0883  -1.0663  -1.0488  -1.0071
    -0.9901  -0.9293  -0.9155  -0.8648  -0.8378  -0.7954  -0.7904  -0.7664
    -0.7440  -0.7078  -0.6735  -0.6578  -0.6538  -0.6345  -0.6071  -0.5770
    -0.5293  -0.5075  -0.4761  -0.3277  -0.2562  -0.2357  -0.0970  -0.0849
     0.0021   0.0550   0.1862   0.2094   0.2736   0.3291   0.3513   0.3748
     0.4657   0.4741   0.5049   0.5789   0.5860   0.6028   0.6742   0.7905
     0.8222   0.8579   0.8929   0.9069   0.9531   0.9894   1.0419   1.0782
     1.0834   1.0926   1.1179   1.1256   1.2268   1.2325   1.2556   1.3190
     1.3326   1.3686   1.3726   1.3786   1.4260   1.4484   1.4717   1.5015
     1.5086   1.5119   1.5893   1.5937   1.6104   1.6353   1.6689   1.6727
     1.6792   1.7160   1.7544   1.7746   1.7832   1.7860   1.8004   1.8262
     1.8617   1.8852   1.9595   1.9693   1.9759   2.0112   2.0353   2.0627
     2.1413   2.2997   2.3323   2.3458   2.3522   2.3857   2.4261   2.6173
     2.6688   2.8421   2.9097   2.9633   3.0051   3.0252   3.2457   3.2600
     3.4081   3.5164   3.6231   3.8457   3.9169   4.0009   4.0261   4.2078
     4.7543   4.9735   5.1605   5.3028   5.5745   5.9046   6.3038   6.5129
     6.6442   6.6632   6.9102   6.9602   6.9771   7.0801   7.1764   7.2789
     7.5184   7.6298   8.0096   8.1204   8.5881   8.6163   8.6897   8.7056
     8.7763   8.8286   8.8694   8.9728   9.0198   9.1748   9.1996   9.2438
     9.3032   9.3427

          k = 0.3750-1.0472 0.0000 ( 71902 PWs)   bands (ev):

   -41.3725 -38.9238 -38.0942 -35.7283 -22.9259 -22.8518 -22.7043 -22.6607
   -22.4919 -22.4386 -22.4064 -22.3996 -21.6140 -21.3902 -21.3603 -20.0835
   -19.9747 -19.9335 -18.7562 -18.4166 -18.2934 -17.1609 -16.9753 -16.8779
   -15.7916 -15.5662 -15.5211 -15.1975 -14.8505 -14.7091 -14.7052 -14.5904
   -14.5880 -14.5673 -14.4859 -14.4112 -14.3979 -14.3511 -14.2828 -14.2798
   -14.2640 -14.1827 -14.1657 -14.0800 -14.0164 -14.0010 -13.9559 -13.9488
   -13.9370 -13.9161 -13.9116 -13.8853 -13.8527 -13.7437  -8.8030  -8.6190
[...]
    -2.8122  -2.7568  -2.6860  -2.6827  -2.5473  -2.4914  -2.3862  -2.3289
    -2.2748  -2.2530  -2.2338  -2.1834  -2.1816  -2.1255  -2.1100  -2.0816
    -1.9536  -1.9423  -1.9263  -1.9017  -1.8698  -1.7817  -1.7460  -1.6696
    -1.6544  -1.5906  -1.5897  -1.5332  -1.4472  -1.4319  -1.4300  -1.4086
    -1.4085  -1.3370  -1.2749  -1.1314  -1.0980  -1.0858  -1.0138  -1.0064
    -1.0001  -0.9959  -0.9530  -0.9415  -0.9125  -0.8552  -0.8009  -0.7530
    -0.7059  -0.6677  -0.6270  -0.5458  -0.5164  -0.5148  -0.4854  -0.4739
    -0.4657  -0.4527  -0.3616  -0.3126  -0.2642  -0.2238  -0.1879  -0.1743
    -0.1382  -0.1310  -0.1154  -0.0975  -0.0859  -0.0536  -0.0264   0.0196
     0.0312   0.0817   0.1012   0.1038   0.1697   0.1743   0.1746   0.1848
     0.2446   0.3215   0.3245   0.3363   0.3587   0.3716   0.3945   0.4028
     0.4035   0.4047   0.4357   0.4617   0.4766   0.4785   0.5213   0.5400
     0.5655   0.6306   0.6908   0.7894   0.8939   0.9243   0.9334   0.9745
     1.0057   1.0154   1.0428   1.0455   1.0665   1.0864   1.1114   1.1743
     1.1983   1.2120   1.2388   1.2860   1.3269   1.3309   1.3431   1.3939
     1.3965   1.4435   1.5207   1.5227   1.5366   1.5436   1.5476   1.5570
     1.5666   1.5858   1.6427   1.6587   1.6626   1.6810   1.7514   1.7533
     1.8439   1.8554   1.9166   1.9852   2.0942   2.1335   2.1589   2.2175
     2.3238   2.4005   2.5671   2.6817   2.7950   2.8580   2.8644   2.8747
     2.8840   2.9046   2.9664   2.9888   3.0078   3.0236   3.1811   3.2700
     4.5922   4.8880   5.0218   5.3293   5.7281   6.0039   6.0957   6.1131
     6.1575   6.1751   6.2408   6.4284   6.6267   6.6846   6.7730   6.9210
     7.1018   7.2376   7.6735   7.7296   7.7705   7.8798   7.8814   7.9258
     7.9502   8.1248   8.1751   8.3350   8.4786   8.5240   8.5806   8.6917
     8.8214   8.8332

          k =-0.5000 0.5236 0.0000 ( 71862 PWs)   bands (ev):

   -41.3796 -38.9284 -38.1035 -35.7342 -23.0011 -22.9291 -22.7760 -22.7466
   -22.5682 -22.5021 -22.5021 -22.4759 -21.4917 -21.4022 -21.3718 -20.0112
   -19.9839 -19.9449 -18.4667 -18.4454 -18.4374 -17.0065 -17.0019 -16.9783
   -16.0143 -15.7599 -15.4637 -15.0616 -14.9177 -14.8400 -14.7497 -14.7386
   -14.6984 -14.6833 -14.6832 -14.6084 -14.5527 -14.5301 -14.3236 -14.3036
   -14.2861 -14.2287 -14.1610 -14.0667 -14.0376 -14.0315 -14.0188 -14.0123
   -13.9913 -13.9860 -13.8817 -13.8291 -13.7027 -13.5643  -8.5201  -8.4940
    -8.4029  -8.3525  -8.3234  -8.3051  -8.1122  -8.0969  -8.0885  -8.0771
    -8.0492  -8.0295  -7.9771  -7.9606  -7.8468  -7.7930  -7.7535  -7.7426
    -7.7366  -7.7196  -7.5410  -7.5192  -7.5043  -7.4539  -3.8433  -3.6829
    -3.1555  -3.0778  -2.9201  -2.8252  -2.7939  -2.7533  -2.6598  -2.6061
    -2.5359  -2.4826  -2.3966  -2.3565  -2.3345  -2.2586  -2.2408  -2.2363
    -2.2160  -2.2089  -2.1911  -2.1855  -2.1374  -2.0998  -2.0994  -2.0953
    -2.0946  -2.0724  -2.0678  -1.8841  -1.7815  -1.7406  -1.6257  -1.5615
    -1.5422  -1.5268  -1.5099  -1.4864  -1.4124  -1.3305  -1.2730  -1.1710
    -1.1619  -1.0842  -1.0401  -1.0198  -0.9719  -0.9642  -0.9280  -0.8913
    -0.8718  -0.8259  -0.7390  -0.7388  -0.7226  -0.7054  -0.6021  -0.5901
    -0.5786  -0.5198  -0.4801  -0.4787  -0.4687  -0.4594  -0.4481  -0.3874
    -0.3566  -0.3437  -0.3339  -0.2954  -0.2521  -0.1498  -0.1492  -0.0884
    -0.0510  -0.0052  -0.0034   0.1116   0.1707   0.1992   0.3298   0.3554
     0.3670   0.4239   0.4397   0.4435   0.4617   0.5650   0.5718   0.6042
     0.6094   0.6682   0.6838   0.7042   0.8071   0.8081   0.8580   0.9170
     0.9568   0.9615   0.9687   1.0171   1.0215   1.0382   1.0437   1.0438
     1.0893   1.0893   1.1280   1.2072   1.2874   1.3339   1.3383   1.3506
     1.4117   1.4308   1.4527   1.4611   1.5001   1.5101   1.5206   1.5254
     1.5280   1.5434   1.5763   1.5850   1.5858   1.6168   1.6684   1.6731
     1.7234   1.7330   1.7387   1.8295   1.8347   1.9026   1.9214   1.9320
     2.0062   2.0113   2.0457   2.0982   2.1054   2.1215   2.1707   2.2910
     2.8486   2.9185   3.0233   3.0539   3.0894   3.1293   3.1672   3.2008
     3.2527   3.3485   3.4064   3.4367   3.5341   3.5835   3.5937   3.6424
     4.8003   4.8101   5.0053   5.3780   5.9019   5.9542   6.1090   6.5347
     6.6114   6.6396   6.7039   6.7239   6.7429   6.8460   6.9774   7.1537
     7.2008   7.2470   8.0106   8.1538   8.2682   8.2854   8.3053   8.3938
     8.4123   8.5242   8.6523   8.6537   8.7530   8.8983   8.9685   9.0181
     9.0282   9.0628

          k =-0.5000 0.7854 0.0000 ( 71874 PWs)   bands (ev):

   -41.3746 -38.9252 -38.0970 -35.7301 -22.9458 -22.8773 -22.7207 -22.6912
   -22.5127 -22.4462 -22.4462 -22.4242 -21.5753 -21.3932 -21.3674 -20.0609
   -19.9782 -19.9384 -18.6756 -18.4205 -18.3399 -17.1103 -16.9905 -16.9167
   -15.8704 -15.6123 -15.5131 -15.1427 -14.7885 -14.7618 -14.6613 -14.6553
   -14.6169 -14.5470 -14.5452 -14.5339 -14.4895 -14.4417 -14.3374 -14.3207
   -14.1339 -14.1207 -14.1197 -14.1116 -14.1006 -14.0906 -13.9777 -13.9722
   -13.9425 -13.9413 -13.9229 -13.8905 -13.7748 -13.6668  -8.6745  -8.5722
    -8.4792  -8.4532  -8.4406  -8.3010  -8.2355  -8.2348  -8.2094  -8.1927
    -8.1744  -8.0799  -8.0764  -8.0615  -7.9827  -7.9821  -7.9426  -7.7995
    -7.7785  -7.7640  -7.7500  -7.7120  -7.7057  -7.6368  -4.2617  -4.0044
    -3.6670  -3.4872  -3.2723  -3.2647  -3.1488  -3.1381  -2.9859  -2.9698
    -2.8777  -2.8469  -2.8460  -2.7966  -2.7894  -2.7839  -2.6453  -2.4552
    -2.4168  -2.3366  -2.2898  -2.2769  -2.2374  -2.1873  -2.1663  -2.1287
    -2.1119  -2.0754  -1.9823  -1.9623  -1.8557  -1.8366  -1.7890  -1.7468
    -1.7256  -1.6737  -1.6123  -1.5906  -1.5748  -1.4752  -1.3820  -1.3221
    -1.3094  -1.1637  -1.1616  -1.1512  -1.1490  -1.1360  -1.0335  -1.0236
    -0.9886  -0.9237  -0.8750  -0.8435  -0.8414  -0.8167  -0.8001  -0.7723
    -0.7539  -0.7096  -0.6669  -0.6667  -0.6349  -0.6272  -0.5541  -0.5446
    -0.5090  -0.4888  -0.3964  -0.3637  -0.3337  -0.2193  -0.1902  -0.0266
    -0.0139   0.0974   0.1148   0.2183   0.2399   0.2737   0.4193   0.4235
     0.4300   0.4935   0.5468   0.5607   0.6352   0.6687   0.7582   0.7804
     0.7880   0.7883   0.8298   0.9478   0.9750   0.9914   1.0272   1.0666
     1.0931   1.1011   1.1292   1.1353   1.1456   1.2564   1.2825   1.3063
     1.3313   1.3561   1.3672   1.4046   1.4459   1.4692   1.4998   1.5141
     1.5263   1.5390   1.5758   1.5892   1.5978   1.6193   1.6353   1.6436
     1.6764   1.6945   1.7236   1.7585   1.7712   1.8023   1.8073   1.8395
     1.8681   1.8693   1.9508   1.9705   1.9806   2.0058   2.0329   2.0403
     2.1042   2.3371   2.3480   2.3483   2.3658   2.3770   2.4198   2.5375
     2.8901   2.9152   2.9954   3.0106   3.0672   3.0921   3.3127   3.4436
     3.4872   3.5537   3.6325   3.6608   3.8401   3.8652   3.8950   4.0177
     4.7796   4.9908   5.1580   5.3070   5.5583   6.0128   6.2902   6.5613
     6.7591   6.8007   6.8835   6.8887   6.9433   6.9481   7.0407   7.2497
     7.5114   7.5614   8.0362   8.1025   8.6166   8.6786   8.6864   8.7197
     8.7607   8.8481   8.8672   8.9153   9.0356   9.1372   9.1882   9.2769
     9.2810   9.5175

          k =-0.5000-1.0472 0.0000 ( 71908 PWs)   bands (ev):

   -41.3725 -38.9238 -38.0942 -35.7283 -22.9225 -22.8554 -22.6974 -22.6678
   -22.4892 -22.4226 -22.4226 -22.4024 -21.6140 -21.3895 -21.3604 -20.0835
   -19.9758 -19.9334 -18.7562 -18.4135 -18.2929 -17.1609 -16.9841 -16.8799
   -15.7891 -15.5571 -15.5294 -15.2007 -14.8113 -14.7456 -14.6518 -14.6507
   -14.5869 -14.5126 -14.4653 -14.4114 -14.3985 -14.3504 -14.3234 -14.3070
   -14.2317 -14.2172 -14.1437 -14.1058 -14.0127 -14.0024 -13.9529 -13.9521
   -13.9227 -13.9149 -13.9147 -13.8990 -13.8448 -13.7504  -8.6985  -8.5761
    -8.4826  -8.4610  -8.4319  -8.3543  -8.2718  -8.2561  -8.2340  -8.2269
    -8.2048  -8.1593  -8.1575  -8.1340  -8.0553  -8.0527  -7.9577  -7.9136
    -7.9131  -7.9067  -7.7514  -7.7376  -7.7364  -7.6986  -4.4325  -4.1342
    -3.8683  -3.6484  -3.4703  -3.4642  -3.3538  -3.3050  -3.2004  -3.1632
    -3.0798  -3.0791  -3.0298  -3.0152  -2.8761  -2.7740  -2.6844  -2.6490
    -2.4226  -2.3141  -2.2996  -2.2753  -2.2596  -2.2015  -2.1716  -2.1389
    -2.0983  -2.0533  -2.0158  -1.9820  -1.9297  -1.9001  -1.8432  -1.8344
    -1.8156  -1.6421  -1.6213  -1.6129  -1.6090  -1.5117  -1.4473  -1.4464
    -1.4155  -1.2146  -1.1964  -1.1927  -1.1893  -1.1645  -1.1371  -1.1181
    -1.0303  -0.9517  -0.9357  -0.9340  -0.8636  -0.8562  -0.8533  -0.7867
    -0.7824  -0.7569  -0.7439  -0.7077  -0.7004  -0.6820  -0.5897  -0.5668
    -0.5341  -0.5031  -0.3846  -0.3619  -0.3557  -0.2432  -0.2067  -0.0086
     0.0015   0.1474   0.1684   0.2486   0.2702   0.3003   0.4294   0.4372
     0.4621   0.5074   0.5266   0.6665   0.6740   0.8039   0.8140   0.8411
     0.8740   0.8951   0.9076   1.0118   1.0468   1.0873   1.1010   1.1428
     1.1450   1.1810   1.1968   1.2637   1.2836   1.2836   1.2890   1.2999
     1.3336   1.3391   1.3469   1.3634   1.3655   1.4217   1.4247   1.4989
     1.5566   1.5824   1.6043   1.6226   1.6824   1.7126   1.7324   1.7428
     1.7795   1.7834   1.8109   1.8531   1.8634   1.8956   1.9200   1.9656
     1.9932   2.0374   2.0425   2.0495   2.0934   2.1697   2.1732   2.2023
     2.2033   2.3688   2.5176   2.5235   2.5265   2.5508   2.5850   2.6878
     2.7027   2.7442   2.8079   2.8232   3.0970   3.1207   3.3367   3.4590
     3.5407   3.5894   3.6408   3.7347   3.8534   3.9466   3.9649   4.1910
     4.8913   5.0549   5.1585   5.2743   5.4031   5.9567   6.4245   6.5661
     6.7011   6.7475   6.8277   6.8745   6.9096   6.9640   6.9999   7.5831
     7.7511   7.8944   8.0638   8.0679   8.1991   8.2211   8.7525   8.9008
     8.9015   9.0830   9.1877   9.3721   9.4029   9.4386   9.4550   9.5102
     9.5214   9.5293

     the Fermi energy is     2.6979 ev

!    total energy              =   -3711.16420429 Ry
     Harris-Foulkes estimate   =   -3711.16420429 Ry
     estimated scf accuracy    <          8.2E-09 Ry

     The total energy is the sum of the following terms:

     one-electron contribution =  -61032.20732983 Ry
     hartree contribution      =   30818.70905096 Ry
     xc contribution           =   -1263.39641360 Ry
     ewald contribution        =   27765.74395720 Ry
     smearing contrib. (-TS)   =      -0.01346903 Ry

     convergence has been achieved in  37 iterations

     negative rho (up, down):  9.107E-02 0.000E+00

     Forces acting on atoms (cartesian axes, Ry/au):

     atom    1 type  4   force =    -0.00000512    0.00000000   -0.00013598
     atom    2 type  4   force =     0.00000512    0.00000000   -0.00013598
     atom    3 type  3   force =    -0.00001664    0.00000000   -0.00005147
     atom    4 type  3   force =     0.00001664    0.00000000   -0.00005147
     atom    5 type  4   force =    -0.00000161    0.00000000   -0.00002854
     atom    6 type  4   force =     0.00000161    0.00000000   -0.00002854
     atom    7 type  1   force =     0.00000000    0.00000000   -0.00013237
     atom    8 type  1   force =     0.00000000    0.00000000   -0.00012088
     atom    9 type  3   force =     0.00002646    0.00000000    0.00001151
     atom   10 type  3   force =    -0.00002646    0.00000000    0.00001151
     atom   11 type  4   force =     0.00000000    0.00000000    0.00014009
     atom   12 type  4   force =    -0.00000152    0.00000000    0.00007138
     atom   13 type  4   force =     0.00000152    0.00000000    0.00007138
     atom   14 type  4   force =     0.00000000    0.00000000    0.00019573
     atom   15 type  2   force =     0.00000000    0.00000000   -0.00055331
     atom   16 type  5   force =     0.00000000    0.00000000   -0.00083873
     atom   17 type  4   force =     0.00010311    0.00000000    0.00086608
     atom   18 type  4   force =    -0.00010311    0.00000000    0.00086608
     atom   19 type  4   force =     0.00000000    0.00000000    0.00097244
     atom   20 type  4   force =     0.00000000    0.00000000    0.00125164
     atom   21 type  3   force =    -0.00004382    0.00000000   -0.00128128
     atom   22 type  3   force =     0.00004382    0.00000000   -0.00128128
     atom   23 type  1   force =     0.00000000    0.00000000   -0.00233452
     atom   24 type  1   force =     0.00000000    0.00000000   -0.00246665
     atom   25 type  4   force =    -0.00023832    0.00000000    0.00411094
     atom   26 type  4   force =     0.00023832    0.00000000    0.00411094
     atom   27 type  4   force =    -0.00041962    0.00000000    0.00494594
     atom   28 type  4   force =     0.00041962    0.00000000    0.00494594
     atom   29 type  3   force =     0.00198930    0.00000000   -0.00977169
     atom   30 type  3   force =    -0.00198930    0.00000000   -0.00977169
     atom   31 type  4   force =    -0.00036225    0.00000000    0.01478833
     atom   32 type  4   force =     0.00036225    0.00000000    0.01478833
     atom   33 type  1   force =     0.00000000    0.00000000   -0.02527996
     atom   34 type  1   force =     0.00000000    0.00000000   -0.01886262
     atom   35 type  3   force =    -0.00163144    0.00000000    0.00773380
     atom   36 type  3   force =     0.00163144    0.00000000    0.00773380
     atom   37 type  4   force =     0.00000000    0.00000000    0.05805194
     atom   38 type  4   force =     0.00000000    0.00000000    0.07859012
     atom   39 type  4   force =     0.02173418    0.00000000    0.07152602
     atom   40 type  4   force =    -0.02173418    0.00000000    0.07152602
     atom   41 type  5   force =     0.00000000    0.00000000   -0.12557193
     atom   42 type  2   force =     0.00000000    0.00000000   -0.06889564
     atom   43 type  4   force =     0.00000000    0.00000000    0.00519856
     atom   44 type  4   force =    -0.00124394    0.00000000   -0.00044956
     atom   45 type  4   force =     0.00124394    0.00000000   -0.00044956
     atom   46 type  4   force =     0.00000000    0.00000000    0.01073321
     atom   47 type  3   force =     0.00022708    0.00000000   -0.01954818
     atom   48 type  3   force =    -0.00022708    0.00000000   -0.01954818
     atom   49 type  1   force =     0.00000000    0.00000000   -0.02281438
     atom   50 type  1   force =     0.00000000    0.00000000   -0.02846485
     atom   51 type  4   force =     0.00092848    0.00000000   -0.00255070
     atom   52 type  4   force =    -0.00092848    0.00000000   -0.00255070
     atom   53 type  3   force =    -0.00020465    0.00000000    0.00065241
     atom   54 type  3   force =     0.00020465    0.00000000    0.00065241
     atom   55 type  4   force =     0.00007722    0.00000000   -0.00028792
     atom   56 type  4   force =    -0.00007722    0.00000000   -0.00028792

     Total force =     0.212965     Total SCF correction =     0.000365


     Computing stress (Cartesian axis) and pressure


     negative rho (up, down):  9.107E-02 0.000E+00
          total   stress  (Ry/bohr**3)                   (kbar)     P=       -8.26
  -0.00001386   0.00000000   0.00000000           -2.04        0.00        0.00
   0.00000000   0.00000738   0.00000000            0.00        1.09        0.00
   0.00000000   0.00000000  -0.00016200            0.00        0.00      -23.83

 
     init_run     :     24.22s CPU     25.77s WALL (       1 calls)
     electrons    :   1821.51s CPU   1912.39s WALL (       1 calls)
     forces       :     10.75s CPU     11.50s WALL (       1 calls)
     stress       :    108.86s CPU    110.76s WALL (       1 calls)

     Called by init_run:
     wfcinit      :     19.84s CPU     20.73s WALL (       1 calls)
     potinit      :      1.03s CPU      1.04s WALL (       1 calls)
     hinit0       :      1.67s CPU      1.70s WALL (       1 calls)

     Called by electrons:
     c_bands      :   1518.21s CPU   1561.40s WALL (      37 calls)
     sum_band     :    228.76s CPU    255.45s WALL (      37 calls)
     v_of_rho     :      5.07s CPU      5.16s WALL (      38 calls)
     newd         :     33.21s CPU     54.30s WALL (      38 calls)
     mix_rho      :     36.57s CPU     36.92s WALL (      37 calls)

     Called by c_bands:
     init_us_2    :      9.48s CPU      9.57s WALL (    1925 calls)
     cegterg      :   1446.33s CPU   1488.34s WALL (     925 calls)

     Called by sum_band:
     sum_band:bec :      1.07s CPU      1.08s WALL (     925 calls)
     addusdens    :     34.91s CPU     59.11s WALL (      37 calls)

     Called by *egterg:
     h_psi        :    707.54s CPU    722.21s WALL (    4500 calls)
     s_psi        :    108.28s CPU    108.87s WALL (    4500 calls)
     g_psi        :      1.55s CPU      1.57s WALL (    3550 calls)
     cdiaghg      :    313.08s CPU    314.27s WALL (    4475 calls)

     Called by h_psi:
     h_psi:calbec :    116.74s CPU    117.30s WALL (    4500 calls)
     vloc_psi     :    479.41s CPU    486.46s WALL (    4500 calls)
     add_vuspsi   :    108.19s CPU    108.74s WALL (    4500 calls)

     General routines
     calbec       :    191.78s CPU    192.64s WALL (    5550 calls)
     fft          :      4.84s CPU      4.88s WALL (     517 calls)
     ffts         :     20.63s CPU     20.84s WALL (   21063 calls)
     fftw         :    551.17s CPU    559.10s WALL ( 1308030 calls)
     interpolate  :      0.44s CPU      0.44s WALL (      38 calls)
 
     Parallel routines
     fft_scatt_xy :     62.58s CPU     63.45s WALL ( 1329610 calls)
     fft_scatt_yz :    367.68s CPU    372.89s WALL ( 1329610 calls)
 
     PWSCF        :  32m46.36s CPU  34m21.60s WALL

 
   This run was terminated on:  10:39:22  28May2021            

=------------------------------------------------------------------------------=
   JOB DONE.
=------------------------------------------------------------------------------=
[1622212762.335801] [holy7c04508:254262:0]          mpool.c:43   UCX  WARN  object 0x3037d40 was not returned to mpool ucp_requests
[1622212762.335821] [holy7c04508:254262:0]          mpool.c:43   UCX  WARN  object 0x3038440 was not returned to mpool ucp_requests
[1622212762.333224] [holy7c04506:148689:0]          mpool.c:43   UCX  WARN  object 0x3994380 was not returned to mpool ucp_requests
[1622212762.333243] [holy7c04506:148689:0]          mpool.c:43   UCX  WARN  object 0x3994540 was not returned to mpool ucp_requests
[1622212762.337537] [holy7c04507:242664:0]          mpool.c:43   UCX  WARN  object 0x3c08a80 was not returned to mpool ucp_requests
[1622212762.342570] [holy7c04509:183277:0]          mpool.c:43   UCX  WARN  object 0x448ba80 was not returned to mpool ucp_requests
[1622212762.351689] [holy7c04504:3321 :0]          mpool.c:43   UCX  WARN  object 0x45bb740 was not returned to mpool ucp_requests
[1622212762.351715] [holy7c04504:3321 :0]          mpool.c:43   UCX  WARN  object 0x45bbe40 was not returned to mpool ucp_requests
[1622212762.355984] [holy7c04504:3319 :0]          mpool.c:43   UCX  WARN  object 0x31f3f80 was not returned to mpool ucp_requests
[1622212762.342281] [holy7c04506:148688:0]          mpool.c:43   UCX  WARN  object 0x2c5b900 was not returned to mpool ucp_requests
[1622212762.343095] [holy7c04509:183275:0]          mpool.c:43   UCX  WARN  object 0x3c3a340 was not returned to mpool ucp_requests
[1622212762.343114] [holy7c04509:183275:0]          mpool.c:43   UCX  WARN  object 0x3c3ac00 was not returned to mpool ucp_requests
[1622212762.342300] [holy7c04509:183273:0]          mpool.c:43   UCX  WARN  object 0x3090e00 was not returned to mpool ucp_requests
[1622212762.354336] [holy7c04509:183272:0]          mpool.c:43   UCX  WARN  object 0x38b8380 was not returned to mpool ucp_requests
[1622212762.355040] [holy7c04509:183278:0]          mpool.c:43   UCX  WARN  object 0x33a6e80 was not returned to mpool ucp_requests
[1622212762.357895] [holy7c04504:3324 :0]          mpool.c:43   UCX  WARN  object 0x3e77a40 was not returned to mpool ucp_requests
[1622212762.362665] [holy7c04504:3320 :0]          mpool.c:43   UCX  WARN  object 0x3c79e40 was not returned to mpool ucp_requests
