
     Program PWSCF v.6.5 starts on 28May2021 at 10: 5: 0 

     This program is part of the open-source Quantum ESPRESSO suite
     for quantum simulation of materials; please cite
         "P. Giannozzi et al., J. Phys.:Condens. Matter 21 395502 (2009);
         "P. Giannozzi et al., J. Phys.:Condens. Matter 29 465901 (2017);
          URL http://www.quantum-espresso.org", 
     in publications or presentations arising from this work. More details at
     http://www.quantum-espresso.org/quote

     Parallel version (MPI), running on    32 processors

     MPI processes distributed on     7 nodes
     R & G space division:  proc/nbgrp/npool/nimage =      32
     Reading input from YCBCO50_212_Y_cleave_1.75_sep.pwi
Warning: card &IONS ignored
Warning: card     ION_DYNAMICS = 'BFGS' ignored
Warning: card / ignored
Warning: card &CELL ignored
Warning: card     CELL_DYNAMICS = 'BFGS' ignored
Warning: card     PRESS_CONV_THR = 5 ignored
Warning: card / ignored

     Current dimensions of program PWSCF are:
     Max number of different atomic species (ntypx) = 10
     Max number of k-points (npk) =  40000
     Max angular momentum in pseudopotentials (lmaxx) =  3

     Subspace diagonalization in iterative solution of the eigenvalue problem:
     one sub-group per band group will be used
     scalapack distributed-memory algorithm (size of sub-group:  5*  5 procs)

     Message from routine setup:
     using ibrav=0 with symmetry is DISCOURAGED, use correct ibrav instead
 
     Parallelization info
     --------------------
     sticks:   dense  smooth     PW     G-vecs:    dense   smooth      PW
     Min         188      62     17                92390    17770    2651
     Max         189      63     18                92418    17815    2690
     Sum        6019    2003    565              2956985   569373   85611
 


     bravais-lattice index     =            0
     lattice parameter (alat)  =      14.8133  a.u.
     unit-cell volume          =    9063.7339 (a.u.)^3
     number of atoms/cell      =           56
     number of atomic types    =            5
     number of electrons       =       456.00
     number of Kohn-Sham states=          274
     kinetic-energy cutoff     =      60.0000  Ry
     charge density cutoff     =     720.0000  Ry
     convergence threshold     =      1.0E-08
     mixing beta               =       0.5000
     number of iterations used =           10  local-TF  mixing
     Exchange-correlation= SLA PW PBE PBE
                           (   1   4   3   4   0   0   0)

     celldm(1)=  14.813271  celldm(2)=   0.000000  celldm(3)=   0.000000
     celldm(4)=   0.000000  celldm(5)=   0.000000  celldm(6)=   0.000000

     crystal axes: (cart. coord. in units of alat)
               a(1) = (   1.000000   0.000000   0.000000 )  
               a(2) = (   0.000000   0.477453   0.000000 )  
               a(3) = (   0.000000   0.000000   5.840148 )  

     reciprocal axes: (cart. coord. in units 2 pi/alat)
               b(1) = (  1.000000  0.000000  0.000000 )  
               b(2) = (  0.000000  2.094448  0.000000 )  
               b(3) = (  0.000000  0.000000  0.171229 )  


     PseudoPot. # 1 for Ba read from file:
     ./pseudo/Ba.pbe-nsp-van.UPF
     MD5 check sum: 2b9c31dd849566dd297d80989662b7a0
     Pseudo is Ultrasoft + core correction, Zval = 10.0
     Generated by new atomic code, or converted to UPF format
     Using radial grid of  907 points,  6 beta functions with: 
                l(1) =   0
                l(2) =   0
                l(3) =   1
                l(4) =   1
                l(5) =   2
                l(6) =   2
     Q(r) pseudized with  6 coefficients,  rinner =    1.200   1.200   1.200
                                                       1.200   1.200

     PseudoPot. # 2 for Ca read from file:
     ./pseudo/Ca.pbe-nsp-van.UPF
     MD5 check sum: 6471098428ff4fa451746d08035ff179
     Pseudo is Ultrasoft + core correction, Zval = 10.0
     Generated by new atomic code, or converted to UPF format
     Using radial grid of  845 points,  6 beta functions with: 
                l(1) =   0
                l(2) =   0
                l(3) =   1
                l(4) =   1
                l(5) =   2
                l(6) =   2
     Q(r) pseudized with  6 coefficients,  rinner =    1.200   1.200   1.200
                                                       1.200   1.200

     PseudoPot. # 3 for Cu read from file:
     ./pseudo/Cu.pbe-n-van_ak.UPF
     MD5 check sum: 34e3282627ffb533726feb647e090d62
     Pseudo is Ultrasoft + core correction, Zval = 11.0
     Generated by new atomic code, or converted to UPF format
     Using radial grid of  867 points,  6 beta functions with: 
                l(1) =   0
                l(2) =   0
                l(3) =   1
                l(4) =   1
                l(5) =   2
                l(6) =   2
     Q(r) pseudized with  8 coefficients,  rinner =    1.400   1.400   1.400
                                                       1.400   1.400

     PseudoPot. # 4 for O  read from file:
     ./pseudo/O.pbe-van_ak.UPF
     MD5 check sum: 783ce7fe4c79b6a4916957118fed0856
     Pseudo is Ultrasoft, Zval =  6.0
     Generated by new atomic code, or converted to UPF format
     Using radial grid of  737 points,  4 beta functions with: 
                l(1) =   0
                l(2) =   0
                l(3) =   1
                l(4) =   1
     Q(r) pseudized with  8 coefficients,  rinner =    0.800   0.800   0.800


     PseudoPot. # 5 for Y  read from file:
     ./pseudo/Y.pbe-nsp-van.UPF
     MD5 check sum: 4412fed3ab108fed87a1b7d6a69a4a38
     Pseudo is Ultrasoft + core correction, Zval = 11.0
     Generated by new atomic code, or converted to UPF format
     Using radial grid of  885 points,  6 beta functions with: 
                l(1) =   0
                l(2) =   0
                l(3) =   1
                l(4) =   1
                l(5) =   2
                l(6) =   2
     Q(r) pseudized with  6 coefficients,  rinner =    1.200   1.200   1.200
                                                       1.200   1.200

     atomic species   valence    mass     pseudopotential
        Ba            10.00   137.32700     Ba( 1.00)
        Ca            10.00    40.07800     Ca( 1.00)
        Cu            11.00    63.54600     Cu( 1.00)
        O              6.00    15.99900     O ( 1.00)
        Y             11.00    88.90584     Y ( 1.00)

      4 Sym. Ops. (no inversion) found ( 2 have fractional translation)



   Cartesian axes

     site n.     atom                  positions (alat units)
         1           O   tau(   1) = (  -0.0008343   0.2387265  -0.0222443  )
         2           O   tau(   2) = (   0.5008340   0.2387265  -0.0222443  )
         3           Cu  tau(   3) = (   0.5017257   0.0000000   0.0109608  )
         4           Cu  tau(   4) = (  -0.0017260   0.0000000   0.0109608  )
         5           O   tau(   5) = (  -0.0028933   0.0000000   0.2506504  )
         6           O   tau(   6) = (   0.5028929   0.0000000   0.2506504  )
         7           Ba  tau(   7) = (   0.7499995   0.2387265   0.2749435  )
         8           Ba  tau(   8) = (   0.2499998   0.2387265   0.2755214  )
         9           Cu  tau(   9) = (   0.4980963   0.0000000   0.5208446  )
        10           Cu  tau(  10) = (   0.0019033   0.0000000   0.5208446  )
        11           O   tau(  11) = (   0.2499998   0.0000000   0.5341884  )
        12           O   tau(  12) = (   0.5083351   0.2387265   0.5569851  )
        13           O   tau(  13) = (  -0.0083354   0.2387265   0.5569851  )
        14           O   tau(  14) = (   0.7499995   0.0000000   0.5573831  )
        15           Ca  tau(  15) = (   0.2499998   0.2387265   0.7436937  )
        16           Y   tau(  16) = (   0.7499995   0.2387265   0.7469544  )
        17           O   tau(  17) = (  -0.0063798   0.2387265   0.9248530  )
        18           O   tau(  18) = (   0.5063794   0.2387265   0.9248530  )
        19           O   tau(  19) = (   0.7499995   0.0000000   0.9338544  )
        20           O   tau(  20) = (   0.2499998   0.0000000   0.9461329  )
        21           Cu  tau(  21) = (   0.0015717   0.0000000   0.9686860  )
        22           Cu  tau(  22) = (   0.4984280   0.0000000   0.9686860  )
        23           Ba  tau(  23) = (   0.2499998   0.2387265   1.2085224  )
        24           Ba  tau(  24) = (   0.7499995   0.2387265   1.2233294  )
        25           O   tau(  25) = (   0.0063772   0.0000000   1.2547537  )
        26           O   tau(  26) = (   0.4936224   0.0000000   1.2547537  )
        27           O   tau(  27) = (   0.5384045   0.2387265   1.4952521  )
        28           O   tau(  28) = (  -0.0384049   0.2387265   1.4952521  )
        29           Cu  tau(  29) = (   0.5006120   0.0000000   1.4952546  )
        30           Cu  tau(  30) = (  -0.0006123   0.0000000   1.4952546  )
        31           O   tau(  31) = (   0.4936212   0.0000000   1.7357531  )
        32           O   tau(  32) = (   0.0063785   0.0000000   1.7357531  )
        33           Ba  tau(  33) = (   0.7499995   0.2387265   1.7671824  )
        34           Ba  tau(  34) = (   0.2499998   0.2387265   1.7819920  )
        35           Cu  tau(  35) = (   0.4984280   0.0000000   2.0218232  )
        36           Cu  tau(  36) = (   0.0015717   0.0000000   2.0218232  )
        37           O   tau(  37) = (   0.2499998   0.0000000   2.0443814  )
        38           O   tau(  38) = (   0.7499995   0.0000000   2.0566511  )
        39           O   tau(  39) = (   0.5063781   0.2387265   2.0656562  )
        40           O   tau(  40) = (  -0.0063785   0.2387265   2.0656562  )
        41           Y   tau(  41) = (   0.7499995   0.2387265   2.2435498  )
        42           Ca  tau(  42) = (   0.2499998   0.2387265   2.2468194  )
        43           O   tau(  43) = (   0.7499995   0.0000000   2.6563644  )
        44           O   tau(  44) = (  -0.0083354   0.2387265   2.6567662  )
        45           O   tau(  45) = (   0.5083351   0.2387265   2.6567662  )
        46           O   tau(  46) = (   0.2499998   0.0000000   2.6795642  )
        47           Cu  tau(  47) = (   0.0019059   0.0000000   2.6928978  )
        48           Cu  tau(  48) = (   0.4980938   0.0000000   2.6928978  )
        49           Ba  tau(  49) = (   0.2499998   0.2387265   2.9382375  )
        50           Ba  tau(  50) = (   0.7499995   0.2387265   2.9387797  )
        51           O   tau(  51) = (  -0.0028895   0.0000000   2.9630869  )
        52           O   tau(  52) = (   0.5028891   0.0000000   2.9630869  )
        53           Cu  tau(  53) = (   0.5017844   0.0000000   3.2027714  )
        54           Cu  tau(  54) = (  -0.0017847   0.0000000   3.2027714  )
        55           O   tau(  55) = (   0.5008990   0.2387265   3.2359778  )
        56           O   tau(  56) = (  -0.0008994   0.2387265   3.2359778  )

     number of k points=    25  Gaussian smearing, width (Ry)=  0.0100
                       cart. coord. in units 2pi/alat
        k(    1) = (   0.0000000   0.0000000   0.0000000), wk =   0.0312500
        k(    2) = (   0.0000000   0.2618060   0.0000000), wk =   0.0625000
        k(    3) = (   0.0000000   0.5236121   0.0000000), wk =   0.0625000
        k(    4) = (   0.0000000   0.7854181   0.0000000), wk =   0.0625000
        k(    5) = (   0.0000000  -1.0472241   0.0000000), wk =   0.0312500
        k(    6) = (   0.1250000   0.0000000   0.0000000), wk =   0.0625000
        k(    7) = (   0.1250000   0.2618060   0.0000000), wk =   0.1250000
        k(    8) = (   0.1250000   0.5236121   0.0000000), wk =   0.1250000
        k(    9) = (   0.1250000   0.7854181   0.0000000), wk =   0.1250000
        k(   10) = (   0.1250000  -1.0472241   0.0000000), wk =   0.0625000
        k(   11) = (   0.2500000   0.0000000   0.0000000), wk =   0.0625000
        k(   12) = (   0.2500000   0.2618060   0.0000000), wk =   0.1250000
        k(   13) = (   0.2500000   0.5236121   0.0000000), wk =   0.1250000
        k(   14) = (   0.2500000   0.7854181   0.0000000), wk =   0.1250000
        k(   15) = (   0.2500000  -1.0472241   0.0000000), wk =   0.0625000
        k(   16) = (   0.3750000   0.0000000   0.0000000), wk =   0.0625000
        k(   17) = (   0.3750000   0.2618060   0.0000000), wk =   0.1250000
        k(   18) = (   0.3750000   0.5236121   0.0000000), wk =   0.1250000
        k(   19) = (   0.3750000   0.7854181   0.0000000), wk =   0.1250000
        k(   20) = (   0.3750000  -1.0472241   0.0000000), wk =   0.0625000
        k(   21) = (  -0.5000000   0.0000000   0.0000000), wk =   0.0312500
        k(   22) = (  -0.5000000   0.2618060   0.0000000), wk =   0.0625000
        k(   23) = (  -0.5000000   0.5236121   0.0000000), wk =   0.0625000
        k(   24) = (  -0.5000000   0.7854181   0.0000000), wk =   0.0625000
        k(   25) = (  -0.5000000  -1.0472241   0.0000000), wk =   0.0312500

     Dense  grid:  2956985 G-vectors     FFT dimensions: ( 128,  64, 750)

     Smooth grid:   569373 G-vectors     FFT dimensions: (  80,  36, 432)

     Estimated max dynamical RAM per process >     856.47 MB

     Estimated total dynamical RAM >      26.76 GB

     Initial potential from superposition of free atoms

     starting charge  455.69457, renormalised to  456.00000

     negative rho (up, down):  9.337E-02 0.000E+00
     Starting wfcs are  396 randomized atomic wfcs

     total cpu time spent up to now is       27.1 secs

     Self-consistent Calculation

     iteration #  1     ecut=    60.00 Ry     beta= 0.50
     Davidson diagonalization with overlap
     ethr =  1.00E-02,  avg # of iterations =  2.0

     negative rho (up, down):  8.576E-02 0.000E+00

     total cpu time spent up to now is       74.4 secs

     total energy              =   -3708.33269867 Ry
     Harris-Foulkes estimate   =   -3716.32251148 Ry
     estimated scf accuracy    <      30.85084202 Ry

     iteration #  2     ecut=    60.00 Ry     beta= 0.50
     Davidson diagonalization with overlap
     ethr =  6.77E-03,  avg # of iterations =  2.0

     negative rho (up, down):  8.513E-02 0.000E+00

     total cpu time spent up to now is      121.1 secs

     total energy              =   -3711.01404269 Ry
     Harris-Foulkes estimate   =   -3712.18052675 Ry
     estimated scf accuracy    <      11.81820249 Ry

     iteration #  3     ecut=    60.00 Ry     beta= 0.50
     Davidson diagonalization with overlap
     ethr =  2.59E-03,  avg # of iterations =  1.0

     negative rho (up, down):  8.525E-02 0.000E+00

     total cpu time spent up to now is      164.0 secs

     total energy              =   -3711.36563946 Ry
     Harris-Foulkes estimate   =   -3711.77438607 Ry
     estimated scf accuracy    <      10.59209775 Ry

     iteration #  4     ecut=    60.00 Ry     beta= 0.50
     Davidson diagonalization with overlap
     ethr =  2.32E-03,  avg # of iterations =  1.0

     negative rho (up, down):  8.590E-02 0.000E+00

     total cpu time spent up to now is      206.9 secs

     total energy              =   -3711.30258986 Ry
     Harris-Foulkes estimate   =   -3711.58613833 Ry
     estimated scf accuracy    <       3.40190650 Ry

     iteration #  5     ecut=    60.00 Ry     beta= 0.50
     Davidson diagonalization with overlap
     ethr =  7.46E-04,  avg # of iterations =  3.0

     negative rho (up, down):  8.711E-02 0.000E+00

     total cpu time spent up to now is      255.3 secs

     total energy              =   -3711.27706143 Ry
     Harris-Foulkes estimate   =   -3711.43294937 Ry
     estimated scf accuracy    <       2.09198066 Ry

     iteration #  6     ecut=    60.00 Ry     beta= 0.50
     Davidson diagonalization with overlap
     ethr =  4.59E-04,  avg # of iterations =  7.0

     negative rho (up, down):  8.809E-02 0.000E+00

     total cpu time spent up to now is      317.4 secs

     total energy              =   -3711.29290560 Ry
     Harris-Foulkes estimate   =   -3711.34758812 Ry
     estimated scf accuracy    <       2.15638174 Ry

     iteration #  7     ecut=    60.00 Ry     beta= 0.50
     Davidson diagonalization with overlap
     ethr =  4.59E-04,  avg # of iterations =  3.5

     negative rho (up, down):  8.906E-02 0.000E+00

     total cpu time spent up to now is      368.0 secs

     total energy              =   -3711.26982546 Ry
     Harris-Foulkes estimate   =   -3711.32130711 Ry
     estimated scf accuracy    <       0.77793855 Ry

     iteration #  8     ecut=    60.00 Ry     beta= 0.50
     Davidson diagonalization with overlap
     ethr =  1.71E-04,  avg # of iterations =  5.6

     negative rho (up, down):  8.957E-02 0.000E+00

     total cpu time spent up to now is      425.4 secs

     total energy              =   -3711.27773214 Ry
     Harris-Foulkes estimate   =   -3711.30226378 Ry
     estimated scf accuracy    <       0.91392150 Ry

     iteration #  9     ecut=    60.00 Ry     beta= 0.50
     Davidson diagonalization with overlap
     ethr =  1.71E-04,  avg # of iterations =  2.5

     negative rho (up, down):  8.968E-02 0.000E+00

     total cpu time spent up to now is      472.3 secs

     total energy              =   -3711.27596688 Ry
     Harris-Foulkes estimate   =   -3711.28575659 Ry
     estimated scf accuracy    <       0.33294868 Ry

     iteration # 10     ecut=    60.00 Ry     beta= 0.50
     Davidson diagonalization with overlap
     ethr =  7.30E-05,  avg # of iterations =  5.1

     negative rho (up, down):  8.916E-02 0.000E+00

     total cpu time spent up to now is      527.2 secs

     total energy              =   -3711.27085474 Ry
     Harris-Foulkes estimate   =   -3711.27966050 Ry
     estimated scf accuracy    <       0.18716971 Ry

     iteration # 11     ecut=    60.00 Ry     beta= 0.50
     Davidson diagonalization with overlap
     ethr =  4.10E-05,  avg # of iterations =  5.1

     negative rho (up, down):  8.902E-02 0.000E+00

     total cpu time spent up to now is      581.5 secs

     total energy              =   -3711.27187322 Ry
     Harris-Foulkes estimate   =   -3711.27377870 Ry
     estimated scf accuracy    <       0.12088903 Ry

     iteration # 12     ecut=    60.00 Ry     beta= 0.50
     Davidson diagonalization with overlap
     ethr =  2.65E-05,  avg # of iterations =  4.5

     negative rho (up, down):  8.882E-02 0.000E+00

     total cpu time spent up to now is      633.5 secs

     total energy              =   -3711.27145486 Ry
     Harris-Foulkes estimate   =   -3711.27262111 Ry
     estimated scf accuracy    <       0.11261384 Ry

     iteration # 13     ecut=    60.00 Ry     beta= 0.50
     Davidson diagonalization with overlap
     c_bands:  1 eigenvalues not converged
     ethr =  2.47E-05,  avg # of iterations =  2.5

     negative rho (up, down):  8.852E-02 0.000E+00

     total cpu time spent up to now is      680.0 secs

     total energy              =   -3711.26966268 Ry
     Harris-Foulkes estimate   =   -3711.27168028 Ry
     estimated scf accuracy    <       0.09765350 Ry

     iteration # 14     ecut=    60.00 Ry     beta= 0.50
     Davidson diagonalization with overlap
     ethr =  2.14E-05,  avg # of iterations =  1.3

     negative rho (up, down):  8.831E-02 0.000E+00

     total cpu time spent up to now is      723.0 secs

     total energy              =   -3711.26824881 Ry
     Harris-Foulkes estimate   =   -3711.27007041 Ry
     estimated scf accuracy    <       0.07740850 Ry

     iteration # 15     ecut=    60.00 Ry     beta= 0.50
     Davidson diagonalization with overlap
     ethr =  1.70E-05,  avg # of iterations =  2.4

     negative rho (up, down):  9.473E-02 0.000E+00

     total cpu time spent up to now is      769.6 secs

     total energy              =   -3711.26519969 Ry
     Harris-Foulkes estimate   =   -3711.26850401 Ry
     estimated scf accuracy    <       0.05793783 Ry

     iteration # 16     ecut=    60.00 Ry     beta= 0.50
     Davidson diagonalization with overlap
     c_bands:  1 eigenvalues not converged
     c_bands:  2 eigenvalues not converged
     ethr =  1.27E-05,  avg # of iterations = 12.6

     negative rho (up, down):  9.565E-02 0.000E+00

     total cpu time spent up to now is      846.0 secs

     total energy              =   -3711.26494274 Ry
     Harris-Foulkes estimate   =   -3711.26564028 Ry
     estimated scf accuracy    <       0.02979464 Ry

     iteration # 17     ecut=    60.00 Ry     beta= 0.50
     Davidson diagonalization with overlap
     c_bands:  1 eigenvalues not converged
     c_bands:  1 eigenvalues not converged
     ethr =  6.53E-06,  avg # of iterations =  7.7

     negative rho (up, down):  9.508E-02 0.000E+00

     total cpu time spent up to now is      907.5 secs

     total energy              =   -3711.26401729 Ry
     Harris-Foulkes estimate   =   -3711.26505499 Ry
     estimated scf accuracy    <       0.02221620 Ry

     iteration # 18     ecut=    60.00 Ry     beta= 0.50
     Davidson diagonalization with overlap
     ethr =  4.87E-06,  avg # of iterations =  6.6

     negative rho (up, down):  9.119E-02 0.000E+00

     total cpu time spent up to now is      966.5 secs

     total energy              =   -3711.26295021 Ry
     Harris-Foulkes estimate   =   -3711.26422665 Ry
     estimated scf accuracy    <       0.00930482 Ry

     iteration # 19     ecut=    60.00 Ry     beta= 0.50
     Davidson diagonalization with overlap
     c_bands:  2 eigenvalues not converged
     ethr =  2.04E-06,  avg # of iterations = 12.0

     negative rho (up, down):  8.960E-02 0.000E+00

     total cpu time spent up to now is     1042.1 secs

     total energy              =   -3711.26276365 Ry
     Harris-Foulkes estimate   =   -3711.26316445 Ry
     estimated scf accuracy    <       0.00732099 Ry

     iteration # 20     ecut=    60.00 Ry     beta= 0.50
     Davidson diagonalization with overlap
     c_bands:  2 eigenvalues not converged
     ethr =  1.61E-06,  avg # of iterations =  9.2

     negative rho (up, down):  9.258E-02 0.000E+00

     total cpu time spent up to now is     1108.7 secs

     total energy              =   -3711.26255218 Ry
     Harris-Foulkes estimate   =   -3711.26281906 Ry
     estimated scf accuracy    <       0.00326971 Ry

     iteration # 21     ecut=    60.00 Ry     beta= 0.50
     Davidson diagonalization with overlap
     ethr =  7.17E-07,  avg # of iterations = 10.0

     negative rho (up, down):  9.146E-02 0.000E+00

     total cpu time spent up to now is     1178.1 secs

     total energy              =   -3711.26259623 Ry
     Harris-Foulkes estimate   =   -3711.26263578 Ry
     estimated scf accuracy    <       0.00155266 Ry

     iteration # 22     ecut=    60.00 Ry     beta= 0.50
     Davidson diagonalization with overlap
     ethr =  3.40E-07,  avg # of iterations =  5.3

     negative rho (up, down):  9.210E-02 0.000E+00

     total cpu time spent up to now is     1234.4 secs

     total energy              =   -3711.26260924 Ry
     Harris-Foulkes estimate   =   -3711.26263494 Ry
     estimated scf accuracy    <       0.00056622 Ry

     iteration # 23     ecut=    60.00 Ry     beta= 0.50
     Davidson diagonalization with overlap
     ethr =  1.24E-07,  avg # of iterations =  5.9

     negative rho (up, down):  9.082E-02 0.000E+00

     total cpu time spent up to now is     1291.7 secs

     total energy              =   -3711.26262065 Ry
     Harris-Foulkes estimate   =   -3711.26263271 Ry
     estimated scf accuracy    <       0.00019053 Ry

     iteration # 24     ecut=    60.00 Ry     beta= 0.50
     Davidson diagonalization with overlap
     c_bands:  1 eigenvalues not converged
     c_bands:  1 eigenvalues not converged
     ethr =  4.18E-08,  avg # of iterations =  5.3

     negative rho (up, down):  9.142E-02 0.000E+00

     total cpu time spent up to now is     1346.7 secs

     total energy              =   -3711.26263044 Ry
     Harris-Foulkes estimate   =   -3711.26262888 Ry
     estimated scf accuracy    <       0.00008255 Ry

     iteration # 25     ecut=    60.00 Ry     beta= 0.50
     Davidson diagonalization with overlap
     ethr =  1.81E-08,  avg # of iterations =  1.9

     negative rho (up, down):  9.151E-02 0.000E+00

     total cpu time spent up to now is     1392.3 secs

     total energy              =   -3711.26262907 Ry
     Harris-Foulkes estimate   =   -3711.26263292 Ry
     estimated scf accuracy    <       0.00004218 Ry

     iteration # 26     ecut=    60.00 Ry     beta= 0.50
     Davidson diagonalization with overlap
     ethr =  9.25E-09,  avg # of iterations =  1.0

     negative rho (up, down):  9.161E-02 0.000E+00

     total cpu time spent up to now is     1435.1 secs

     total energy              =   -3711.26262771 Ry
     Harris-Foulkes estimate   =   -3711.26263011 Ry
     estimated scf accuracy    <       0.00001764 Ry

     iteration # 27     ecut=    60.00 Ry     beta= 0.50
     Davidson diagonalization with overlap
     ethr =  3.87E-09,  avg # of iterations =  1.4

     negative rho (up, down):  9.121E-02 0.000E+00

     total cpu time spent up to now is     1479.4 secs

     total energy              =   -3711.26262774 Ry
     Harris-Foulkes estimate   =   -3711.26262844 Ry
     estimated scf accuracy    <       0.00000731 Ry

     iteration # 28     ecut=    60.00 Ry     beta= 0.50
     Davidson diagonalization with overlap
     ethr =  1.60E-09,  avg # of iterations =  1.4

     negative rho (up, down):  9.119E-02 0.000E+00

     total cpu time spent up to now is     1523.7 secs

     total energy              =   -3711.26262789 Ry
     Harris-Foulkes estimate   =   -3711.26262808 Ry
     estimated scf accuracy    <       0.00000219 Ry

     iteration # 29     ecut=    60.00 Ry     beta= 0.50
     Davidson diagonalization with overlap
     ethr =  4.80E-10,  avg # of iterations =  2.5

     negative rho (up, down):  9.120E-02 0.000E+00

     total cpu time spent up to now is     1570.9 secs

     total energy              =   -3711.26262797 Ry
     Harris-Foulkes estimate   =   -3711.26262803 Ry
     estimated scf accuracy    <       0.00000164 Ry

     iteration # 30     ecut=    60.00 Ry     beta= 0.50
     Davidson diagonalization with overlap
     ethr =  3.61E-10,  avg # of iterations =  1.0

     negative rho (up, down):  9.110E-02 0.000E+00

     total cpu time spent up to now is     1613.8 secs

     total energy              =   -3711.26262805 Ry
     Harris-Foulkes estimate   =   -3711.26262800 Ry
     estimated scf accuracy    <       0.00000061 Ry

     iteration # 31     ecut=    60.00 Ry     beta= 0.50
     Davidson diagonalization with overlap
     ethr =  1.34E-10,  avg # of iterations =  2.0

     negative rho (up, down):  9.112E-02 0.000E+00

     total cpu time spent up to now is     1659.8 secs

     total energy              =   -3711.26262804 Ry
     Harris-Foulkes estimate   =   -3711.26262808 Ry
     estimated scf accuracy    <       0.00000052 Ry

     iteration # 32     ecut=    60.00 Ry     beta= 0.50
     Davidson diagonalization with overlap
     ethr =  1.14E-10,  avg # of iterations =  1.0

     negative rho (up, down):  9.111E-02 0.000E+00

     total cpu time spent up to now is     1703.1 secs

     total energy              =   -3711.26262806 Ry
     Harris-Foulkes estimate   =   -3711.26262806 Ry
     estimated scf accuracy    <       0.00000015 Ry

     iteration # 33     ecut=    60.00 Ry     beta= 0.50
     Davidson diagonalization with overlap
     ethr =  3.25E-11,  avg # of iterations =  1.8

     negative rho (up, down):  9.108E-02 0.000E+00

     total cpu time spent up to now is     1747.7 secs

     total energy              =   -3711.26262810 Ry
     Harris-Foulkes estimate   =   -3711.26262806 Ry
     estimated scf accuracy    <       0.00000009 Ry

     iteration # 34     ecut=    60.00 Ry     beta= 0.50
     Davidson diagonalization with overlap
     ethr =  2.06E-11,  avg # of iterations =  1.8

     negative rho (up, down):  9.108E-02 0.000E+00

     total cpu time spent up to now is     1791.3 secs

     total energy              =   -3711.26262809 Ry
     Harris-Foulkes estimate   =   -3711.26262810 Ry
     estimated scf accuracy    <       0.00000003 Ry

     iteration # 35     ecut=    60.00 Ry     beta= 0.50
     Davidson diagonalization with overlap
     ethr =  7.19E-12,  avg # of iterations =  2.3

     negative rho (up, down):  9.107E-02 0.000E+00

     total cpu time spent up to now is     1835.7 secs

     End of self-consistent calculation

          k = 0.0000 0.0000 0.0000 ( 71173 PWs)   bands (ev):

   -41.2376 -38.6753 -38.0423 -35.6696 -23.0122 -22.8789 -22.8307 -22.7023
   -22.6187 -22.5964 -22.4913 -22.4426 -21.2738 -21.2701 -21.1550 -19.7380
   -19.7107 -19.6527 -18.5175 -18.4133 -18.0455 -17.0176 -16.8823 -16.6993
   -16.1534 -15.6444 -15.4450 -15.4280 -15.0031 -14.9575 -14.8875 -14.8803
   -14.7954 -14.7720 -14.6748 -14.5729 -14.4960 -14.4682 -14.4523 -14.3329
   -14.2539 -14.1173 -14.0716 -14.0082 -14.0023 -13.9956 -13.9764 -13.9747
   -13.9044 -13.7938 -13.7314 -13.7309 -13.5842 -13.4392  -8.3450  -8.2565
    -8.0687  -7.9887  -7.9603  -7.8831  -7.8801  -7.8587  -7.8068  -7.7698
    -7.7616  -7.7420  -7.6940  -7.6939  -7.6737  -7.6456  -7.5884  -7.5482
    -7.5040  -7.4715  -7.4621  -7.4029  -7.3064  -7.2483  -3.5090  -2.9989
    -2.8649  -2.8307  -2.6847  -2.6356  -2.4692  -2.2798  -2.1883  -2.1875
    -2.1494  -2.1149  -2.0998  -2.0712  -2.0569  -1.9164  -1.9004  -1.8527
    -1.8153  -1.6796  -1.6464  -1.6456  -1.5572  -1.5458  -1.5243  -1.4626
    -1.4129  -1.3449  -1.3118  -1.2499  -1.1890  -1.1776  -1.1198  -1.0401
    -1.0368  -1.0227  -0.9482  -0.9351  -0.9336  -0.9327  -0.9241  -0.9225
    -0.8923  -0.8867  -0.7920  -0.7776  -0.7082  -0.6644  -0.6535  -0.6295
    -0.6203  -0.5548  -0.5223  -0.3372  -0.3308  -0.2866  -0.2687  -0.2548
    -0.2376  -0.2102  -0.2019  -0.1756  -0.1496  -0.1452  -0.0985  -0.0483
    -0.0318  -0.0123   0.0089   0.0186   0.0380   0.0433   0.0489   0.0519
     0.0616   0.0946   0.1631   0.1634   0.2527   0.2542   0.2595   0.2636
     0.2955   0.2988   0.3026   0.3303   0.3573   0.3936   0.3988   0.4003
     0.4229   0.4247   0.5105   0.5139   0.5565   0.5602   0.5705   0.5869
     0.5931   0.6056   0.6587   0.7524   0.7537   0.7965   0.8759   0.9690
     1.0275   1.0480   1.0709   1.0801   1.1007   1.1067   1.1665   1.2193
     1.2428   1.2514   1.2572   1.2686   1.2767   1.2883   1.3072   1.3806
     1.3867   1.4426   1.4610   1.4668   1.5618   1.6183   1.6279   1.6771
     1.6835   1.7155   1.7250   1.7547   1.7940   1.8268   1.8293   1.8559
     1.8725   1.9645   2.0320   2.0517   2.0771   2.1026   2.1070   2.1359
     2.1839   2.2747   2.2983   2.3142   2.3319   2.3901   2.4116   2.4813
     2.5247   2.6010   2.6219   2.6776   2.9125   2.9558   3.0921   4.2674
     4.6525   5.0057   5.2642   5.3923   5.4104   5.5758   5.7060   6.0893
     6.2611   6.5394   6.6799   6.7553   6.8759   6.8782   6.9485   7.0989
     7.3145   7.3845   7.4101   7.4129   7.4339   7.5870   7.6304   7.7124
     7.8965   7.9467   8.1084   8.1671   8.1846   8.3472   8.4330   8.5408
     8.5680   8.6926

          k = 0.0000 0.2618 0.0000 ( 71195 PWs)   bands (ev):

   -41.2355 -38.6740 -38.0396 -35.6679 -22.9886 -22.8602 -22.8061 -22.6832
   -22.5938 -22.5728 -22.4722 -22.4238 -21.2787 -21.2701 -21.1817 -19.7357
   -19.7156 -19.6664 -18.4788 -18.4061 -18.1564 -16.9881 -16.8780 -16.7653
   -16.1040 -15.6072 -15.4373 -15.3219 -14.9444 -14.8953 -14.8919 -14.8316
   -14.7507 -14.7234 -14.6363 -14.5711 -14.4593 -14.4465 -14.4093 -14.2952
   -14.2135 -14.1132 -14.0657 -14.0375 -13.9991 -13.9862 -13.9833 -13.9548
   -13.9425 -13.7891 -13.7885 -13.7340 -13.6440 -13.4703  -8.3540  -8.2466
    -8.0620  -7.9734  -7.9655  -7.9249  -7.9099  -7.8918  -7.8674  -7.8365
    -7.7847  -7.7774  -7.7580  -7.7579  -7.7111  -7.7111  -7.6524  -7.5916
    -7.5869  -7.5754  -7.5140  -7.5113  -7.4921  -7.4611  -3.6402  -3.0991
    -3.0390  -2.8925  -2.6980  -2.6720  -2.5026  -2.3894  -2.3057  -2.2408
    -2.1996  -2.1478  -2.1315  -2.1128  -2.1104  -2.0750  -2.0596  -1.9962
    -1.8973  -1.8901  -1.8616  -1.7899  -1.7173  -1.6754  -1.6449  -1.6261
    -1.4834  -1.4732  -1.4709  -1.3806  -1.3682  -1.3623  -1.3485  -1.3359
    -1.2875  -1.2687  -1.2648  -1.0707  -1.0481  -0.9974  -0.9847  -0.9065
    -0.8880  -0.8640  -0.7928  -0.7205  -0.7198  -0.7069  -0.6646  -0.6023
    -0.5910  -0.5235  -0.4757  -0.4699  -0.3688  -0.3606  -0.3199  -0.3199
    -0.3020  -0.2850  -0.2515  -0.2355  -0.2136  -0.1975  -0.1801  -0.1551
    -0.1116  -0.0729  -0.0552   0.0184   0.0367   0.0485   0.0574   0.0744
     0.1391   0.1902   0.1960   0.2238   0.2260   0.2279   0.2360   0.2857
     0.2930   0.3226   0.3341   0.3360   0.3726   0.3756   0.4097   0.4275
     0.4405   0.4620   0.4725   0.4879   0.5073   0.5417   0.6079   0.6733
     0.7036   0.7182   0.7333   0.8245   0.8819   0.8996   0.9796   1.0345
     1.0417   1.0476   1.1037   1.1437   1.1830   1.2129   1.2258   1.2510
     1.2996   1.3019   1.3099   1.3603   1.3612   1.3652   1.3879   1.4392
     1.4610   1.4821   1.4982   1.5403   1.5673   1.5990   1.6008   1.6355
     1.6626   1.6990   1.7226   1.7561   1.7740   1.8096   1.8228   1.8751
     1.9276   1.9378   1.9760   2.0186   2.0279   2.0314   2.1035   2.2316
     2.2623   2.3529   2.3948   2.4475   2.7124   2.8458   2.8862   2.9224
     2.9351   2.9587   3.0027   3.0534   3.2193   3.2426   3.2710   4.2440
     4.6956   5.1628   5.3387   5.6467   5.6969   5.7298   5.8325   6.2935
     6.3381   6.5383   6.6256   6.7711   6.9935   7.1514   7.1847   7.2117
     7.2400   7.2448   7.5408   7.5666   7.6289   7.7476   7.8049   7.8315
     7.8768   8.0313   8.2127   8.2938   8.3577   8.5051   8.5711   8.7413
     8.7830   8.8759

          k = 0.0000 0.5236 0.0000 ( 71061 PWs)   bands (ev):

   -41.2305 -38.6707 -38.0331 -35.6638 -22.9306 -22.8141 -22.7456 -22.6364
   -22.5324 -22.5148 -22.4254 -22.3776 -21.3500 -21.2611 -21.1928 -19.7584
   -19.7302 -19.6676 -18.3966 -18.3886 -18.3791 -16.9179 -16.9051 -16.8675
   -15.9742 -15.5152 -15.4282 -15.0816 -14.9470 -14.7921 -14.7078 -14.6846
   -14.6526 -14.6372 -14.6211 -14.5426 -14.4564 -14.4049 -14.2375 -14.2026
   -14.1822 -14.1164 -14.1071 -14.0337 -13.9732 -13.9623 -13.9570 -13.9358
   -13.9289 -13.9099 -13.7807 -13.7735 -13.7580 -13.5604  -8.4386  -8.2972
    -8.2495  -8.2203  -8.2192  -8.0900  -8.0486  -8.0252  -8.0118  -7.9947
    -7.9544  -7.9088  -7.8692  -7.8487  -7.8346  -7.7782  -7.7240  -7.7226
    -7.7196  -7.6902  -7.6515  -7.5975  -7.5290  -7.4267  -4.0698  -3.4910
    -3.3576  -3.1376  -2.8515  -2.8184  -2.7934  -2.6887  -2.5879  -2.5340
    -2.5203  -2.4797  -2.4184  -2.3993  -2.2683  -2.2353  -2.1938  -2.1701
    -2.1667  -2.1627  -2.1459  -2.1141  -2.1139  -2.0511  -2.0409  -2.0208
    -2.0055  -1.9315  -1.7464  -1.7334  -1.6438  -1.5944  -1.5662  -1.5481
    -1.3596  -1.3051  -1.3044  -1.1984  -1.1806  -1.1179  -1.0267  -0.9633
    -0.9418  -0.9274  -0.8965  -0.8163  -0.8114  -0.7991  -0.7923  -0.7754
    -0.7180  -0.6783  -0.6436  -0.6175  -0.5718  -0.5538  -0.5534  -0.5265
    -0.5231  -0.5182  -0.4741  -0.4739  -0.4524  -0.4161  -0.3843  -0.3529
    -0.3030  -0.3002  -0.2490  -0.2311  -0.1683  -0.1427   0.0873   0.0965
     0.1123   0.1569   0.1678   0.2425   0.2504   0.2836   0.3176   0.3489
     0.3491   0.3539   0.3753   0.4324   0.4529   0.4778   0.6136   0.6360
     0.6717   0.7530   0.8296   0.8599   0.8748   0.9493   0.9611   0.9667
     1.0530   1.0606   1.0871   1.1141   1.1227   1.1301   1.1670   1.2167
     1.2312   1.2748   1.2937   1.2995   1.3228   1.3239   1.3438   1.3497
     1.3733   1.3863   1.3922   1.4367   1.4437   1.4883   1.4883   1.5035
     1.5334   1.5617   1.5790   1.6236   1.6941   1.7132   1.7391   1.7574
     1.7879   1.8474   1.8640   1.8660   1.8742   1.8916   1.9232   1.9747
     1.9914   2.0304   2.0405   2.0406   2.1179   2.1379   2.1495   2.2212
     2.3343   2.3724   2.5560   2.5750   3.1190   3.1575   3.1721   3.2330
     3.5258   3.5609   3.6342   3.6539   3.8681   3.9653   3.9980   4.2708
     4.8447   5.2830   5.4396   5.6945   5.9747   6.2531   6.5505   6.5547
     6.6059   6.6698   6.7333   6.7926   6.8249   7.0025   7.1438   7.3102
     7.5261   7.8501   7.9774   8.0232   8.0977   8.2169   8.2545   8.3510
     8.4675   8.5358   8.6000   8.6831   8.7426   8.7917   8.8785   8.9103
     9.0809   9.1039

          k = 0.0000 0.7854 0.0000 ( 71116 PWs)   bands (ev):

   -41.2255 -38.6674 -38.0266 -35.6597 -22.8710 -22.7671 -22.6832 -22.5885
   -22.4689 -22.4553 -22.3777 -22.3303 -21.4456 -21.2521 -21.1758 -19.8137
   -19.7248 -19.6552 -18.6055 -18.3712 -18.2732 -17.0400 -16.8572 -16.8317
   -15.8149 -15.4460 -15.4196 -15.0181 -14.8659 -14.7336 -14.7049 -14.6104
   -14.5305 -14.5122 -14.4736 -14.4627 -14.4381 -14.3030 -14.2184 -14.1332
   -14.1212 -14.1101 -14.0904 -14.0297 -14.0162 -13.9264 -13.9226 -13.8985
   -13.8902 -13.8679 -13.8646 -13.7909 -13.7902 -13.6952  -8.7971  -8.6446
    -8.5029  -8.4495  -8.3850  -8.3816  -8.3597  -8.2027  -8.1916  -8.0885
    -8.0751  -8.0289  -7.9600  -7.9179  -7.8817  -7.7472  -7.7181  -7.7157
    -7.7058  -7.6729  -7.6665  -7.5984  -7.4055  -7.3162  -4.5340  -3.9755
    -3.6321  -3.5412  -3.2426  -3.2135  -3.1779  -3.0559  -2.9412  -2.8866
    -2.8782  -2.8470  -2.8099  -2.7463  -2.7442  -2.7236  -2.5641  -2.3956
    -2.3474  -2.2992  -2.2956  -2.1938  -2.1580  -2.1485  -2.1273  -2.1105
    -2.0908  -2.0423  -1.8376  -1.7813  -1.7230  -1.6496  -1.6121  -1.6030
    -1.5833  -1.5266  -1.5023  -1.4286  -1.3903  -1.1495  -1.1469  -1.1300
    -1.0593  -0.9762  -0.9721  -0.9692  -0.9474  -0.9297  -0.9235  -0.8847
    -0.8702  -0.8211  -0.8036  -0.8013  -0.7861  -0.7596  -0.7489  -0.7310
    -0.7289  -0.6926  -0.6915  -0.6564  -0.6462  -0.6091  -0.5712  -0.5519
    -0.5404  -0.5052  -0.4146  -0.1637  -0.1400  -0.1333  -0.0859   0.0576
     0.1068   0.1370   0.2377   0.2679   0.3346   0.3402   0.3414   0.3419
     0.4275   0.5433   0.5475   0.5764   0.6022   0.7008   0.8243   0.8345
     0.9056   0.9103   1.0263   1.0494   1.0526   1.0850   1.1052   1.1173
     1.1244   1.1942   1.2256   1.2511   1.2599   1.3044   1.3259   1.3437
     1.3495   1.3766   1.4194   1.4307   1.4619   1.5057   1.5086   1.5848
     1.5851   1.5905   1.6049   1.6167   1.6614   1.6781   1.7102   1.7234
     1.7713   1.7827   1.8039   1.8112   1.8684   1.8717   1.8835   1.9005
     1.9470   1.9486   1.9747   2.0170   2.0248   2.0697   2.0789   2.0970
     2.1536   2.2519   2.2840   2.2986   2.3169   2.3201   2.3337   2.4013
     2.4810   2.5223   2.5435   2.8706   2.9665   3.0185   3.0701   3.1523
     3.6796   3.8720   3.9879   4.1368   4.2752   4.5152   4.5800   4.7393
     5.1382   5.2905   5.5260   5.6641   5.7405   5.9602   6.1393   6.2487
     6.7929   6.8358   7.0876   7.3453   7.3746   7.4809   7.5602   7.7049
     7.8698   8.1354   8.3135   8.4120   8.5070   8.5953   8.6325   8.8036
     8.8326   8.8377   8.8545   8.9012   9.0467   9.0929   9.1115   9.1948
     9.2642   9.3163

          k = 0.0000-1.0472 0.0000 ( 71150 PWs)   bands (ev):

   -41.2234 -38.6661 -38.0239 -35.6580 -22.8457 -22.7472 -22.6568 -22.5682
   -22.4421 -22.4301 -22.3576 -22.3103 -21.4860 -21.2484 -21.1670 -19.8370
   -19.7225 -19.6493 -18.6861 -18.3640 -18.2259 -17.0904 -16.8529 -16.7959
   -15.7250 -15.4764 -15.3789 -15.0531 -14.8727 -14.7482 -14.6709 -14.5919
   -14.5072 -14.4451 -14.4277 -14.3576 -14.3177 -14.2762 -14.2374 -14.1507
   -14.1274 -14.0739 -14.0349 -14.0095 -14.0057 -13.9512 -13.8932 -13.8910
   -13.8902 -13.8725 -13.8632 -13.8477 -13.7753 -13.7448  -8.9504  -8.7978
    -8.6199  -8.6031  -8.5286  -8.5038  -8.3775  -8.3207  -8.1746  -8.1730
    -8.1247  -8.0345  -7.9538  -7.9454  -7.8919  -7.7556  -7.7437  -7.7150
    -7.6755  -7.6724  -7.6609  -7.5458  -7.3518  -7.2678  -4.7213  -4.1777
    -3.7436  -3.7276  -3.4399  -3.4038  -3.3471  -3.2655  -3.0880  -3.0880
    -3.0424  -2.9915  -2.9743  -2.9549  -2.9525  -2.8429  -2.5929  -2.4244
    -2.4183  -2.3829  -2.2013  -2.1802  -2.1715  -2.1674  -2.1510  -2.0780
    -2.0316  -2.0154  -1.8984  -1.8962  -1.8614  -1.7194  -1.6961  -1.6939
    -1.6814  -1.6314  -1.5262  -1.4209  -1.2754  -1.2467  -1.2176  -1.1525
    -1.0950  -1.0884  -1.0670  -1.0272  -1.0084  -1.0021  -0.9797  -0.9788
    -0.9166  -0.9074  -0.8929  -0.8554  -0.8516  -0.8249  -0.8180  -0.7953
    -0.7836  -0.7629  -0.7599  -0.7590  -0.7575  -0.6479  -0.6410  -0.6223
    -0.5290  -0.4779  -0.4341  -0.1866  -0.1489  -0.1248  -0.1049  -0.0190
     0.0465   0.1476   0.2572   0.2785   0.3273   0.3321   0.3431   0.3470
     0.4642   0.5854   0.6150   0.6381   0.6836   0.8005   0.9176   0.9427
     0.9479   0.9481   1.0078   1.0477   1.0675   1.0839   1.1051   1.2082
     1.2389   1.2559   1.2722   1.3302   1.3359   1.3386   1.3499   1.3967
     1.4079   1.4147   1.4489   1.4518   1.4734   1.4811   1.5628   1.6130
     1.6635   1.6789   1.6814   1.7508   1.7667   1.7982   1.8071   1.8328
     1.8340   1.8820   1.8836   1.9607   1.9692   2.0012   2.0094   2.0380
     2.0388   2.0427   2.0450   2.1680   2.1896   2.2330   2.2429   2.2711
     2.2713   2.2821   2.2956   2.3692   2.3971   2.4329   2.4694   2.5012
     2.5214   2.6856   2.7050   2.7344   2.7875   2.9010   2.9855   3.0243
     3.6301   3.9582   4.0779   4.2815   4.3839   4.7217   4.7902   4.9670
     5.3021   5.4098   5.4620   5.5450   5.6793   5.8462   5.8998   6.0293
     6.6807   6.9292   7.3989   7.4934   7.5689   7.8093   7.8784   7.9785
     8.1080   8.1165   8.2884   8.3081   8.4446   8.4870   8.6855   8.8372
     8.8872   8.9994   9.0070   9.0615   9.1875   9.2137   9.2665   9.2968
     9.3365   9.4130

          k = 0.1250 0.0000 0.0000 ( 71201 PWs)   bands (ev):

   -41.2376 -38.6753 -38.0423 -35.6696 -23.0084 -22.8829 -22.8262 -22.7071
   -22.6141 -22.5931 -22.4963 -22.4462 -21.2733 -21.2700 -21.1550 -19.7392
   -19.7105 -19.6527 -18.5167 -18.4101 -18.0455 -17.0205 -16.8943 -16.6993
   -16.1448 -15.6711 -15.4248 -15.4005 -14.9887 -14.9499 -14.8799 -14.8736
   -14.7994 -14.7629 -14.6672 -14.5854 -14.5431 -14.4760 -14.4616 -14.2996
   -14.2805 -14.1130 -14.0598 -14.0121 -14.0022 -13.9963 -13.9793 -13.9757
   -13.9093 -13.7713 -13.7496 -13.7256 -13.5908 -13.4458  -8.3469  -8.2619
    -8.0709  -7.9783  -7.9644  -7.8755  -7.8664  -7.8631  -7.8111  -7.7754
    -7.7676  -7.7337  -7.7050  -7.6820  -7.6711  -7.6522  -7.5735  -7.5396
    -7.5133  -7.4674  -7.4640  -7.4047  -7.3161  -7.2567  -3.4876  -2.9641
    -2.8604  -2.7981  -2.7215  -2.5999  -2.4467  -2.3056  -2.1963  -2.1838
    -2.1493  -2.1184  -2.1055  -2.0793  -2.0533  -1.9226  -1.9048  -1.8504
    -1.8296  -1.6885  -1.6872  -1.5985  -1.5819  -1.5253  -1.5178  -1.4634
    -1.3875  -1.3731  -1.3089  -1.2246  -1.2004  -1.1393  -1.1175  -1.0643
    -1.0476  -1.0284  -0.9514  -0.9331  -0.9321  -0.9249  -0.9234  -0.9216
    -0.9203  -0.8672  -0.7987  -0.7401  -0.6881  -0.6489  -0.6381  -0.6298
    -0.6055  -0.5645  -0.5382  -0.4116  -0.3340  -0.3211  -0.3179  -0.2667
    -0.2345  -0.2082  -0.2009  -0.1989  -0.1683  -0.1561  -0.1180  -0.0751
    -0.0712   0.0142   0.0204   0.0324   0.0383   0.0458   0.0525   0.0598
     0.0750   0.0834   0.1627   0.2152   0.2204   0.2583   0.2613   0.2650
     0.2895   0.2948   0.2980   0.3006   0.3578   0.3590   0.4069   0.4374
     0.4388   0.4415   0.5150   0.5337   0.5434   0.5568   0.5653   0.5960
     0.6102   0.6235   0.6546   0.7420   0.7562   0.7752   0.8960   0.9504
     0.9892   1.0292   1.0705   1.0784   1.0908   1.1288   1.1775   1.1914
     1.2021   1.2218   1.2746   1.2773   1.2784   1.3161   1.3202   1.3569
     1.4380   1.4706   1.4754   1.4847   1.5527   1.5747   1.6175   1.6760
     1.6950   1.7265   1.7590   1.7830   1.7950   1.8211   1.8540   1.8556
     1.8904   1.9322   1.9655   2.0472   2.0598   2.0894   2.1066   2.1585
     2.1907   2.2742   2.2897   2.2961   2.3295   2.4014   2.4079   2.4798
     2.5276   2.6289   2.6333   2.6756   2.9066   2.9578   3.1286   4.1801
     4.7389   5.0222   5.3144   5.3950   5.4429   5.5927   5.7491   6.1221
     6.2565   6.5398   6.7330   6.7367   6.8901   6.9198   6.9511   6.9756
     7.0005   7.0486   7.4596   7.5875   7.5945   7.6404   7.7820   7.8377
     7.9590   7.9964   8.1269   8.1759   8.1857   8.3767   8.4732   8.5415
     8.6027   8.7091

          k = 0.1250 0.2618 0.0000 ( 71153 PWs)   bands (ev):

   -41.2355 -38.6740 -38.0396 -35.6679 -22.9850 -22.8640 -22.8018 -22.6878
   -22.5893 -22.5697 -22.4769 -22.4272 -21.2787 -21.2695 -21.1817 -19.7369
   -19.7155 -19.6663 -18.4781 -18.4029 -18.1564 -16.9909 -16.8894 -16.7652
   -16.0959 -15.6334 -15.4179 -15.2952 -14.9314 -14.8978 -14.8822 -14.8202
   -14.7545 -14.7160 -14.6295 -14.5771 -14.4692 -14.4634 -14.4527 -14.2565
   -14.2386 -14.1088 -14.0686 -14.0283 -13.9997 -13.9881 -13.9825 -13.9568
   -13.9460 -13.7989 -13.7696 -13.7342 -13.6475 -13.4761  -8.3555  -8.2499
    -8.0639  -8.0198  -7.9793  -7.9730  -7.8924  -7.8748  -7.8613  -7.8293
    -7.8196  -7.7660  -7.7644  -7.7254  -7.7216  -7.6984  -7.6647  -7.6188
    -7.6115  -7.5616  -7.5281  -7.4715  -7.4394  -7.4169  -3.6157  -3.0631
    -3.0504  -2.8572  -2.7033  -2.6354  -2.5336  -2.3688  -2.3142  -2.2436
    -2.1916  -2.1515  -2.1274  -2.1181  -2.1013  -2.0817  -2.0257  -2.0008
    -1.9123  -1.8883  -1.8614  -1.7842  -1.7457  -1.7099  -1.6724  -1.6189
    -1.4917  -1.4830  -1.4553  -1.3763  -1.3674  -1.3509  -1.3370  -1.3301
    -1.3236  -1.2402  -1.2027  -1.0918  -1.0754  -1.0592  -0.9864  -0.8976
    -0.8785  -0.8603  -0.8033  -0.7251  -0.7071  -0.6918  -0.6814  -0.6521
    -0.6111  -0.5924  -0.5517  -0.4656  -0.3912  -0.3437  -0.3254  -0.3126
    -0.2981  -0.2897  -0.2599  -0.2422  -0.2273  -0.2020  -0.1319  -0.1260
    -0.1013  -0.0650  -0.0437   0.0139   0.0279   0.0461   0.0502   0.0682
     0.1151   0.1701   0.1986   0.2080   0.2128   0.2277   0.2463   0.2616
     0.2938   0.3352   0.3451   0.3480   0.3582   0.3836   0.3973   0.4257
     0.4380   0.4611   0.4783   0.4884   0.5221   0.5346   0.6452   0.6747
     0.6833   0.7051   0.7412   0.8270   0.8985   0.9215   0.9784   1.0054
     1.0592   1.0823   1.1232   1.1332   1.1564   1.2054   1.2220   1.2711
     1.2925   1.2946   1.3123   1.3242   1.3319   1.3589   1.3988   1.4372
     1.4474   1.4798   1.5097   1.5372   1.5733   1.5938   1.6358   1.6537
     1.6644   1.7333   1.7487   1.7599   1.7736   1.8145   1.8254   1.8474
     1.9089   1.9099   1.9356   1.9845   2.0469   2.1343   2.1417   2.1901
     2.2404   2.3613   2.4735   2.5199   2.7014   2.8422   2.8920   2.9280
     2.9382   2.9617   3.0006   3.0517   3.2211   3.2378   3.2898   4.1738
     4.7664   5.1698   5.3366   5.6847   5.7138   5.7609   5.8571   6.3039
     6.3561   6.5317   6.6171   6.7808   6.9851   7.0479   7.0569   7.1270
     7.2470   7.2944   7.5629   7.5990   7.6838   7.6944   7.8256   7.9313
     7.9569   8.1918   8.2397   8.3342   8.3644   8.5316   8.6078   8.7228
     8.8188   8.8777

          k = 0.1250 0.5236 0.0000 ( 71120 PWs)   bands (ev):

   -41.2305 -38.6707 -38.0331 -35.6638 -22.9275 -22.8175 -22.7418 -22.6403
   -22.5284 -22.5121 -22.4296 -22.3805 -21.3500 -21.2605 -21.1928 -19.7584
   -19.7314 -19.6676 -18.3966 -18.3855 -18.3785 -16.9196 -16.9060 -16.8776
   -15.9675 -15.5393 -15.4112 -15.0571 -14.9453 -14.7844 -14.7046 -14.6809
   -14.6499 -14.6362 -14.6225 -14.5372 -14.4563 -14.4000 -14.2945 -14.2162
   -14.1398 -14.1357 -14.1083 -14.0323 -13.9717 -13.9601 -13.9562 -13.9375
   -13.9286 -13.9119 -13.7786 -13.7690 -13.7561 -13.5637  -8.4542  -8.3139
    -8.2833  -8.2190  -8.1620  -8.0874  -8.0793  -8.0449  -8.0148  -8.0122
    -7.9609  -7.9170  -7.8613  -7.8434  -7.8014  -7.7505  -7.7391  -7.7202
    -7.7136  -7.6795  -7.6676  -7.6573  -7.4763  -7.3890  -4.0393  -3.4555
    -3.3731  -3.1006  -2.8207  -2.8146  -2.8028  -2.6852  -2.5820  -2.5280
    -2.5195  -2.4966  -2.4133  -2.4012  -2.2657  -2.2362  -2.1935  -2.1692
    -2.1607  -2.1553  -2.1436  -2.1154  -2.1086  -2.0518  -2.0398  -2.0201
    -2.0037  -1.8986  -1.7864  -1.7212  -1.6386  -1.6229  -1.5881  -1.5464
    -1.3627  -1.3408  -1.2792  -1.1970  -1.1857  -1.1386  -1.1214  -1.0456
    -0.9583  -0.9308  -0.8926  -0.8637  -0.8480  -0.8177  -0.7760  -0.7268
    -0.7156  -0.6733  -0.6697  -0.6429  -0.5837  -0.5671  -0.5555  -0.5493
    -0.5116  -0.4906  -0.4762  -0.4671  -0.4442  -0.4105  -0.3846  -0.3494
    -0.3340  -0.2964  -0.2772  -0.2252  -0.1640  -0.1321   0.0748   0.1148
     0.1390   0.1499   0.1775   0.1990   0.2624   0.2698   0.2740   0.3332
     0.3567   0.3711   0.3757   0.4429   0.4704   0.4758   0.5999   0.6284
     0.7151   0.7584   0.8239   0.8441   0.8869   0.9144   0.9205   0.9678
     1.0466   1.0695   1.1152   1.1281   1.1288   1.1409   1.1815   1.2005
     1.2292   1.2470   1.2628   1.2829   1.2866   1.3249   1.3628   1.3699
     1.4024   1.4118   1.4311   1.4430   1.4478   1.4796   1.5131   1.5207
     1.5336   1.5887   1.5980   1.6157   1.6593   1.6841   1.7314   1.7676
     1.7825   1.8247   1.8685   1.8706   1.8715   1.9056   1.9455   1.9554
     1.9998   2.0542   2.0725   2.1086   2.1285   2.1586   2.1957   2.2081
     2.3161   2.5035   2.6108   2.6246   3.1201   3.1586   3.1740   3.2364
     3.5000   3.5678   3.6313   3.6552   3.8360   3.9457   3.9732   4.2280
     4.8786   5.2876   5.4391   5.7190   5.9867   6.2378   6.5554   6.5660
     6.6187   6.6775   6.7400   6.7986   6.8246   7.0213   7.1668   7.2703
     7.5187   7.8285   7.8991   8.0322   8.0662   8.2449   8.3332   8.4555
     8.4922   8.5658   8.5958   8.6360   8.7695   8.8169   8.9012   8.9261
     9.0530   9.1091

          k = 0.1250 0.7854 0.0000 ( 71124 PWs)   bands (ev):

   -41.2255 -38.6674 -38.0266 -35.6597 -22.8683 -22.7699 -22.6800 -22.5918
   -22.4656 -22.4530 -22.3812 -22.3327 -21.4456 -21.2515 -21.1759 -19.8137
   -19.7259 -19.6551 -18.6055 -18.3682 -18.2726 -17.0400 -16.8665 -16.8338
   -15.8106 -15.4540 -15.4156 -15.0177 -14.8500 -14.7167 -14.6976 -14.6106
   -14.5257 -14.5193 -14.4737 -14.4621 -14.4386 -14.3032 -14.2120 -14.1475
   -14.1360 -14.1192 -14.0844 -14.0372 -14.0081 -13.9332 -13.9213 -13.8979
   -13.8911 -13.8714 -13.8619 -13.7945 -13.7871 -13.6949  -8.7848  -8.6348
    -8.4686  -8.4406  -8.3727  -8.3506  -8.3429  -8.1940  -8.1595  -8.1304
    -8.0378  -8.0278  -7.9649  -7.9608  -7.8826  -7.7830  -7.7499  -7.7252
    -7.7182  -7.6807  -7.6753  -7.6133  -7.4208  -7.3330  -4.4980  -3.9387
    -3.6533  -3.5064  -3.2222  -3.2130  -3.1802  -3.0583  -2.9497  -2.8808
    -2.8687  -2.8374  -2.8074  -2.7467  -2.7467  -2.7253  -2.5504  -2.3850
    -2.3529  -2.3310  -2.2701  -2.1878  -2.1595  -2.1516  -2.1270  -2.0899
    -2.0836  -2.0371  -1.8310  -1.7612  -1.7302  -1.6792  -1.6459  -1.6103
    -1.5642  -1.5598  -1.5125  -1.4842  -1.4095  -1.1784  -1.1504  -1.1073
    -1.0493  -1.0129  -0.9945  -0.9758  -0.9705  -0.9540  -0.9460  -0.9046
    -0.8813  -0.8526  -0.8088  -0.7874  -0.7704  -0.7666  -0.7291  -0.7272
    -0.6931  -0.6870  -0.6825  -0.6648  -0.6420  -0.5979  -0.5734  -0.5580
    -0.5554  -0.5185  -0.4717  -0.1735  -0.1418  -0.1260  -0.0780   0.1117
     0.1671   0.2041   0.2248   0.2340   0.2728   0.3140   0.3669   0.3670
     0.4101   0.5254   0.5435   0.5882   0.6205   0.7014   0.7696   0.8042
     0.9211   0.9368   1.0052   1.0348   1.0471   1.0962   1.1103   1.1222
     1.1494   1.1761   1.2242   1.2400   1.2552   1.2944   1.3183   1.3284
     1.3669   1.4092   1.4118   1.4468   1.4659   1.4906   1.5039   1.5349
     1.5589   1.5916   1.6479   1.6587   1.6594   1.6972   1.7165   1.7477
     1.7602   1.7964   1.8095   1.8283   1.8683   1.8883   1.8891   1.9243
     1.9535   1.9633   2.0039   2.0125   2.0391   2.0602   2.0873   2.1440
     2.1717   2.2058   2.2979   2.3073   2.3151   2.3336   2.3707   2.5102
     2.5137   2.5434   2.5525   2.8410   2.9684   3.0229   3.0752   3.1591
     3.6839   3.8722   3.9875   4.0854   4.2621   4.4513   4.5223   4.6817
     5.1377   5.3169   5.5402   5.6862   5.7572   5.9454   6.1945   6.3020
     6.8202   6.8309   7.0658   7.3138   7.3565   7.4479   7.5294   7.6870
     7.8596   8.0250   8.1400   8.3961   8.6075   8.6416   8.6571   8.8204
     8.8249   8.8522   8.9317   8.9463   9.0823   9.1189   9.1387   9.2156
     9.2795   9.3277

          k = 0.1250-1.0472 0.0000 ( 71186 PWs)   bands (ev):

   -41.2234 -38.6661 -38.0239 -35.6580 -22.8432 -22.7498 -22.6539 -22.5713
   -22.4389 -22.4281 -22.3608 -22.3125 -21.4860 -21.2478 -21.1670 -19.8370
   -19.7236 -19.6492 -18.6860 -18.3610 -18.2254 -17.0904 -16.8619 -16.7979
   -15.7229 -15.4726 -15.3819 -15.0559 -14.8615 -14.7375 -14.6471 -14.5902
   -14.4943 -14.4666 -14.4418 -14.3505 -14.3181 -14.2756 -14.2305 -14.1434
   -14.1386 -14.0915 -14.0333 -14.0216 -14.0059 -13.9560 -13.8906 -13.8882
   -13.8879 -13.8734 -13.8631 -13.8489 -13.7791 -13.7485  -8.9208  -8.7676
    -8.5901  -8.5731  -8.4994  -8.4733  -8.3755  -8.2899  -8.1820  -8.1568
    -8.1391  -8.0308  -7.9805  -7.9566  -7.8929  -7.7907  -7.7474  -7.7406
    -7.7220  -7.6660  -7.6637  -7.5896  -7.3961  -7.3074  -4.6834  -4.1398
    -3.7672  -3.6932  -3.4112  -3.4044  -3.3599  -3.2677  -3.0986  -3.0885
    -3.0405  -2.9770  -2.9722  -2.9582  -2.9547  -2.8340  -2.5761  -2.4040
    -2.3985  -2.3631  -2.2217  -2.1826  -2.1653  -2.1645  -2.1515  -2.0790
    -2.0578  -2.0278  -1.9846  -1.8939  -1.8269  -1.6958  -1.6871  -1.6833
    -1.6620  -1.5956  -1.5288  -1.4394  -1.3845  -1.3106  -1.2277  -1.1520
    -1.1234  -1.0846  -1.0627  -1.0607  -1.0193  -1.0080  -0.9851  -0.9804
    -0.9714  -0.8819  -0.8716  -0.8533  -0.8381  -0.8261  -0.8039  -0.7817
    -0.7728  -0.7652  -0.7488  -0.7425  -0.7353  -0.6459  -0.6323  -0.6298
    -0.6249  -0.5340  -0.4086  -0.1577  -0.1399  -0.1262  -0.1170   0.0712
     0.0932   0.2207   0.2302   0.2531   0.2813   0.3069   0.3536   0.3700
     0.4489   0.5745   0.6501   0.6515   0.6882   0.7632   0.8121   0.9009
     0.9692   0.9925   1.0332   1.0720   1.0725   1.0818   1.0986   1.1768
     1.2314   1.2600   1.2640   1.2812   1.3329   1.3358   1.3503   1.3961
     1.4280   1.4365   1.4419   1.4651   1.4800   1.4845   1.5541   1.6471
     1.6474   1.6796   1.6873   1.7314   1.7733   1.8106   1.8201   1.8301
     1.8921   1.8941   1.9508   1.9580   2.0010   2.0036   2.0204   2.0327
     2.0366   2.0710   2.0896   2.1490   2.2235   2.2539   2.2684   2.2769
     2.2872   2.2885   2.3222   2.3423   2.3996   2.4405   2.4652   2.5079
     2.5286   2.6783   2.6983   2.7386   2.7962   2.9119   2.9943   2.9945
     3.6377   3.9537   4.0806   4.2421   4.3526   4.6430   4.7165   4.8921
     5.3110   5.4127   5.4824   5.5864   5.6928   5.8301   5.9679   6.0937
     6.7110   6.9251   7.3489   7.4613   7.4746   7.7860   7.8317   7.8894
     8.0978   8.1136   8.2702   8.2811   8.3011   8.5154   8.7524   8.8966
     8.9295   9.0590   9.0944   9.1075   9.1473   9.2269   9.3354   9.3488
     9.3726   9.4089

          k = 0.2500 0.0000 0.0000 ( 71157 PWs)   bands (ev):

   -41.2376 -38.6753 -38.0423 -35.6696 -22.9983 -22.8937 -22.8136 -22.7205
   -22.6007 -22.5844 -22.5104 -22.4556 -21.2719 -21.2699 -21.1550 -19.7421
   -19.7102 -19.6527 -18.5150 -18.4022 -18.0455 -17.0277 -16.9227 -16.6993
   -16.1218 -15.7269 -15.3871 -15.3267 -14.9531 -14.9301 -14.8781 -14.8352
   -14.8116 -14.7399 -14.6641 -14.6443 -14.5878 -14.4952 -14.4855 -14.3447
   -14.2528 -14.0992 -14.0308 -14.0174 -14.0072 -13.9953 -13.9835 -13.9792
   -13.9201 -13.7864 -13.7263 -13.7206 -13.6062 -13.4644  -8.3516  -8.2737
    -8.0758  -7.9722  -7.9521  -7.8736  -7.8540  -7.8333  -7.8232  -7.7856
    -7.7772  -7.7130  -7.7100  -7.7055  -7.6712  -7.6365  -7.5396  -7.5396
    -7.5150  -7.4829  -7.4426  -7.4108  -7.3435  -7.2803  -3.4300  -2.8634
    -2.8485  -2.8035  -2.7038  -2.4998  -2.4067  -2.3608  -2.2154  -2.2010
    -2.1599  -2.1496  -2.1086  -2.0684  -2.0441  -1.9803  -1.9186  -1.8740
    -1.8439  -1.7247  -1.7056  -1.6216  -1.5227  -1.4823  -1.4738  -1.4567
    -1.4491  -1.3387  -1.3011  -1.2883  -1.1971  -1.1476  -1.0723  -1.0660
    -0.9994  -0.9867  -0.9642  -0.9536  -0.9305  -0.9263  -0.9213  -0.9166
    -0.8844  -0.8356  -0.7819  -0.7159  -0.6612  -0.6344  -0.6290  -0.6176
    -0.6027  -0.5918  -0.5662  -0.5437  -0.4084  -0.3310  -0.3113  -0.2792
    -0.2773  -0.2592  -0.2281  -0.2161  -0.2010  -0.1735  -0.1633  -0.1409
    -0.1288  -0.1205   0.0037   0.0245   0.0451   0.0456   0.0517   0.0528
     0.0609   0.1471   0.1706   0.2261   0.2404   0.2637   0.2691   0.2815
     0.2866   0.2958   0.3066   0.3150   0.3504   0.3846   0.4238   0.4570
     0.4756   0.5031   0.5119   0.5146   0.5516   0.5559   0.6070   0.6379
     0.6425   0.6440   0.7057   0.7231   0.7249   0.7514   0.8985   0.9159
     0.9582   1.0030   1.0152   1.0408   1.0736   1.1000   1.1311   1.1691
     1.2189   1.2345   1.2539   1.2900   1.3136   1.3277   1.3584   1.3631
     1.4281   1.4818   1.5218   1.5233   1.5782   1.5967   1.6107   1.6326
     1.6832   1.7268   1.7480   1.7981   1.8009   1.8251   1.8382   1.8463
     1.8488   1.9262   1.9374   2.0136   2.0540   2.0757   2.1372   2.1855
     2.2307   2.2483   2.2567   2.2888   2.3236   2.3994   2.4295   2.4801
     2.5330   2.6508   2.6699   2.7031   2.8841   2.9557   3.2275   4.0175
     4.9006   5.0568   5.4015   5.4534   5.5448   5.6167   5.8610   6.1860
     6.2772   6.5358   6.5675   6.6116   6.7006   6.8864   6.9023   6.9102
     7.0964   7.1595   7.4312   7.4670   7.5886   7.6431   8.0106   8.0493
     8.0653   8.1744   8.1886   8.2342   8.2809   8.4175   8.4734   8.5263
     8.6290   8.7750

          k = 0.2500 0.2618 0.0000 ( 71122 PWs)   bands (ev):

   -41.2355 -38.6740 -38.0396 -35.6679 -22.9754 -22.8742 -22.7898 -22.7005
   -22.5766 -22.5614 -22.4904 -22.4360 -21.2788 -21.2679 -21.1818 -19.7398
   -19.7153 -19.6663 -18.4764 -18.3951 -18.1564 -16.9977 -16.9164 -16.7650
   -16.0742 -15.6868 -15.3831 -15.2231 -14.9026 -14.8934 -14.8637 -14.7888
   -14.7660 -14.6985 -14.6172 -14.6033 -14.5550 -14.4780 -14.4666 -14.2992
   -14.2103 -14.0979 -14.0739 -14.0066 -13.9994 -13.9930 -13.9805 -13.9614
   -13.9521 -13.8263 -13.7383 -13.7257 -13.6548 -13.4922  -8.3591  -8.2611
    -8.0728  -8.0699  -8.0277  -7.9995  -7.9460  -7.8846  -7.8647  -7.8070
    -7.7965  -7.7767  -7.7722  -7.7694  -7.7195  -7.6503  -7.6475  -7.6428
    -7.6074  -7.6052  -7.4551  -7.4146  -7.3783  -7.3556  -3.5481  -3.0881
    -2.9591  -2.7580  -2.7124  -2.5874  -2.5319  -2.3558  -2.3350  -2.2552
    -2.1726  -2.1571  -2.1404  -2.1238  -2.0983  -2.0649  -2.0115  -1.9605
    -1.9330  -1.8812  -1.8602  -1.8484  -1.8008  -1.7639  -1.6647  -1.6121
    -1.5187  -1.5045  -1.4216  -1.3704  -1.3683  -1.3536  -1.3403  -1.3243
    -1.3082  -1.2505  -1.1647  -1.1248  -1.0854  -1.0734  -0.9892  -0.9589
    -0.9177  -0.8621  -0.8189  -0.8169  -0.7264  -0.7239  -0.6971  -0.6478
    -0.6296  -0.6135  -0.5567  -0.5106  -0.4676  -0.4050  -0.3470  -0.3404
    -0.3117  -0.2988  -0.2631  -0.2493  -0.2161  -0.1790  -0.1219  -0.0990
    -0.0835  -0.0492  -0.0268  -0.0042   0.0194   0.0309   0.0464   0.0526
     0.0598   0.1213   0.1759   0.1935   0.2137   0.2251   0.2384   0.2429
     0.2996   0.3451   0.3656   0.3703   0.3812   0.3855   0.4148   0.4334
     0.4464   0.4605   0.4864   0.4930   0.5469   0.5777   0.6285   0.6418
     0.6425   0.7475   0.8073   0.8550   0.9184   0.9446   0.9754   0.9849
     1.0722   1.1025   1.1369   1.1516   1.1746   1.1854   1.1971   1.2252
     1.2497   1.2586   1.2801   1.3213   1.3400   1.3597   1.3757   1.4266
     1.4418   1.4835   1.5274   1.5498   1.5687   1.6435   1.6531   1.6873
     1.7076   1.7194   1.7568   1.7632   1.7746   1.7781   1.7955   1.8300
     1.8431   1.9039   1.9427   1.9766   2.0494   2.1255   2.2358   2.2692
     2.2881   2.3659   2.5770   2.6619   2.7241   2.8287   2.9065   2.9389
     2.9504   2.9718   2.9921   3.0433   3.1969   3.2354   3.3443   4.0323
     4.9127   5.1858   5.3277   5.7311   5.7932   5.8542   5.9285   6.2997
     6.4481   6.5065   6.6198   6.7028   6.7576   6.7999   7.0354   7.2065
     7.3874   7.3973   7.4597   7.5322   7.6272   7.7856   7.9225   8.1210
     8.1839   8.2859   8.3662   8.4426   8.4539   8.5912   8.6661   8.7129
     8.7780   8.8609

          k = 0.2500 0.5236 0.0000 ( 71098 PWs)   bands (ev):

   -41.2305 -38.6707 -38.0331 -35.6638 -22.9190 -22.8264 -22.7313 -22.6514
   -22.5172 -22.5051 -22.4414 -22.3880 -21.3500 -21.2590 -21.1929 -19.7584
   -19.7341 -19.6674 -18.3965 -18.3779 -18.3771 -16.9243 -16.9083 -16.9009
   -15.9498 -15.5837 -15.3852 -14.9909 -14.9411 -14.7676 -14.6956 -14.6711
   -14.6440 -14.6379 -14.6228 -14.5228 -14.4566 -14.3898 -14.3842 -14.2249
   -14.1835 -14.1213 -14.1101 -14.0197 -13.9677 -13.9545 -13.9543 -13.9419
   -13.9280 -13.9177 -13.7892 -13.7535 -13.7427 -13.5727  -8.4736  -8.3251
    -8.3187  -8.2191  -8.1945  -8.1256  -8.0696  -8.0656  -8.0286  -8.0240
    -7.9658  -7.8848  -7.8715  -7.8662  -7.7943  -7.7500  -7.7423  -7.7157
    -7.7114  -7.6680  -7.6299  -7.6204  -7.4290  -7.3513  -3.9539  -3.4229
    -3.3549  -2.9988  -2.8367  -2.8222  -2.7191  -2.6813  -2.5916  -2.5551
    -2.5166  -2.4515  -2.4095  -2.3964  -2.2554  -2.2407  -2.1914  -2.1637
    -2.1579  -2.1373  -2.1341  -2.1110  -2.0898  -2.0591  -2.0366  -2.0189
    -1.9946  -1.8820  -1.8138  -1.7953  -1.6958  -1.5840  -1.5699  -1.5380
    -1.4436  -1.3815  -1.3662  -1.2791  -1.2281  -1.2044  -1.1522  -1.0528
    -1.0113  -0.9540  -0.9517  -0.8921  -0.8846  -0.8573  -0.8215  -0.7817
    -0.7500  -0.7026  -0.6596  -0.6592  -0.6226  -0.5943  -0.5903  -0.5450
    -0.4852  -0.4705  -0.4684  -0.4490  -0.4269  -0.3953  -0.3727  -0.3621
    -0.3573  -0.2865  -0.2746  -0.2150  -0.1560  -0.1039   0.0032   0.0589
     0.1002   0.1179   0.1486   0.2118   0.2418   0.2772   0.2902   0.3068
     0.3961   0.4271   0.4472   0.4540   0.4768   0.5332   0.5757   0.6135
     0.7602   0.7918   0.8079   0.8241   0.8415   0.8731   0.9200   0.9922
     1.0129   1.0337   1.0986   1.1121   1.1344   1.1549   1.1616   1.1889
     1.1927   1.2039   1.2703   1.2799   1.2907   1.3197   1.3554   1.4131
     1.4403   1.4512   1.4782   1.5032   1.5055   1.5180   1.5210   1.5355
     1.5768   1.5968   1.6099   1.6362   1.6498   1.6527   1.7062   1.7454
     1.7661   1.7887   1.8030   1.8766   1.8836   1.9035   1.9557   2.0072
     2.0471   2.0842   2.0863   2.1181   2.1290   2.1476   2.2475   2.4074
     2.4181   2.5812   2.8192   2.8979   3.1228   3.1646   3.1780   3.2535
     3.4085   3.5869   3.6318   3.6560   3.7363   3.8679   3.9130   4.1173
     4.9595   5.2970   5.4373   5.7669   6.0212   6.2142   6.5488   6.6066
     6.6577   6.6952   6.7511   6.8078   6.8243   7.0779   7.1860   7.2239
     7.4692   7.5853   8.0348   8.1547   8.1837   8.2448   8.3852   8.4091
     8.4601   8.4997   8.6101   8.8176   8.8265   8.8870   8.9608   8.9875
     9.0542   9.1319

          k = 0.2500 0.7854 0.0000 ( 71122 PWs)   bands (ev):

   -41.2255 -38.6674 -38.0266 -35.6597 -22.8610 -22.7775 -22.6711 -22.6010
   -22.4560 -22.4472 -22.3912 -22.3388 -21.4456 -21.2500 -21.1760 -19.8137
   -19.7286 -19.6549 -18.6054 -18.3608 -18.2714 -17.0400 -16.8889 -16.8390
   -15.7998 -15.4705 -15.4093 -15.0169 -14.8101 -14.6767 -14.6666 -14.6221
   -14.5399 -14.5104 -14.4696 -14.4610 -14.4372 -14.3038 -14.2180 -14.1936
   -14.1677 -14.1034 -14.0678 -14.0583 -14.0055 -13.9520 -13.9179 -13.8963
   -13.8938 -13.8786 -13.8558 -13.8027 -13.7812 -13.6943  -8.7417  -8.5949
    -8.4019  -8.3893  -8.3496  -8.3069  -8.2450  -8.2338  -8.1850  -8.0920
    -8.0478  -8.0124  -7.9679  -7.9527  -7.8999  -7.8819  -7.8401  -7.7802
    -7.7213  -7.6850  -7.6817  -7.6695  -7.4778  -7.3885  -4.3974  -3.8362
    -3.7185  -3.4125  -3.2633  -3.1777  -3.1357  -3.0646  -2.9771  -2.8897
    -2.8390  -2.8003  -2.7852  -2.7538  -2.7475  -2.7300  -2.5062  -2.4713
    -2.3465  -2.2829  -2.1887  -2.1866  -2.1661  -2.1531  -2.1277  -2.0851
    -2.0308  -2.0139  -1.8984  -1.8268  -1.7571  -1.7426  -1.6766  -1.6386
    -1.6076  -1.5314  -1.4993  -1.4502  -1.4335  -1.3265  -1.1952  -1.1657
    -1.1625  -1.0819  -1.0620  -1.0371  -0.9851  -0.9802  -0.9245  -0.9115
    -0.9046  -0.8776  -0.8380  -0.8203  -0.7832  -0.7187  -0.7159  -0.7101
    -0.6907  -0.6511  -0.6508  -0.6338  -0.6248  -0.5823  -0.5736  -0.5599
    -0.5416  -0.5301  -0.4405  -0.2072  -0.1666  -0.1061  -0.0510   0.0543
     0.0780   0.1910   0.2278   0.3046   0.3615   0.3644   0.4116   0.4311
     0.4380   0.4725   0.4995   0.5565   0.6781   0.7305   0.7419   0.7470
     0.9395   0.9652   0.9870   1.0091   1.0325   1.0451   1.1084   1.1186
     1.1596   1.2051   1.2303   1.2421   1.2723   1.2851   1.2921   1.3656
     1.3726   1.4029   1.4274   1.4445   1.4611   1.4849   1.5231   1.5299
     1.5564   1.5958   1.6245   1.6710   1.6746   1.7158   1.7271   1.7347
     1.7476   1.7968   1.8079   1.8301   1.8473   1.8838   1.8907   1.9208
     1.9346   1.9682   1.9788   2.0253   2.0312   2.0645   2.1155   2.1175
     2.2524   2.3059   2.3320   2.3582   2.3618   2.4286   2.4901   2.5117
     2.5656   2.7114   2.7898   2.8376   2.9745   3.0339   3.1107   3.2017
     3.6835   3.8710   3.9214   4.0017   4.2280   4.2669   4.3516   4.5115
     5.1496   5.3655   5.5603   5.7375   5.8280   5.9208   6.3509   6.4533
     6.8167   6.8855   6.9975   7.2313   7.2946   7.3364   7.4245   7.6188
     7.8094   7.8149   8.1245   8.2593   8.6456   8.7001   8.7763   8.8079
     8.8096   8.9136   8.9695   9.0635   9.1672   9.1827   9.2238   9.3018
     9.3326   9.3472

          k = 0.2500-1.0472 0.0000 ( 71112 PWs)   bands (ev):

   -41.2234 -38.6661 -38.0239 -35.6580 -22.8365 -22.7568 -22.6457 -22.5797
   -22.4300 -22.4228 -22.3700 -22.3181 -21.4859 -21.2463 -21.1671 -19.8371
   -19.7262 -19.6490 -18.6859 -18.3537 -18.2242 -17.0905 -16.8835 -16.8028
   -15.7177 -15.4620 -15.3904 -15.0627 -14.8291 -14.7064 -14.5959 -14.5825
   -14.5044 -14.4810 -14.4595 -14.3418 -14.3189 -14.2743 -14.2112 -14.1697
   -14.1410 -14.1231 -14.0530 -14.0290 -14.0068 -13.9743 -13.8890 -13.8786
   -13.8759 -13.8737 -13.8627 -13.8520 -13.7905 -13.7590  -8.8370  -8.6808
    -8.5046  -8.4872  -8.4162  -8.3845  -8.3693  -8.2465  -8.2001  -8.1846
    -8.0786  -8.0653  -8.0203  -7.9652  -7.8995  -7.8891  -7.8381  -7.8200
    -7.7320  -7.7098  -7.6723  -7.6705  -7.5171  -7.4145  -4.5774  -4.0347
    -3.8387  -3.6004  -3.4299  -3.3779  -3.3365  -3.2734  -3.1322  -3.0931
    -3.0341  -2.9847  -2.9668  -2.9600  -2.9161  -2.8050  -2.5229  -2.3619
    -2.3235  -2.3080  -2.3056  -2.2775  -2.1899  -2.1652  -2.1518  -2.1036
    -2.0787  -2.0076  -2.0070  -1.8800  -1.7407  -1.7144  -1.6722  -1.6353
    -1.6222  -1.6066  -1.5741  -1.4984  -1.4803  -1.4308  -1.3937  -1.2495
    -1.1560  -1.0842  -1.0818  -1.0705  -1.0526  -1.0507  -1.0208  -1.0166
    -0.9538  -0.9280  -0.9016  -0.8486  -0.8064  -0.7955  -0.7942  -0.7847
    -0.7742  -0.7325  -0.7233  -0.7123  -0.6713  -0.6520  -0.6386  -0.5850
    -0.5835  -0.5507  -0.4061  -0.1833  -0.1534  -0.1237  -0.0629   0.0451
     0.0757   0.2117   0.2343   0.2739   0.3855   0.3890   0.4001   0.4212
     0.4488   0.5374   0.5868   0.6257   0.7385   0.7710   0.8020   0.8287
     0.9940   1.0417   1.0675   1.0793   1.0946   1.1032   1.1157   1.1211
     1.1956   1.2081   1.2725   1.2847   1.2992   1.3305   1.3462   1.3926
     1.4410   1.4578   1.4753   1.4791   1.4902   1.5329   1.5806   1.5955
     1.5969   1.6332   1.6664   1.7029   1.7102   1.8106   1.8111   1.8207
     1.8439   1.9071   1.9468   1.9671   1.9891   1.9995   2.0172   2.0224
     2.0277   2.1055   2.1888   2.2418   2.2433   2.2601   2.2625   2.2685
     2.2733   2.3095   2.4576   2.4656   2.4754   2.5272   2.5489   2.6265
     2.6578   2.6588   2.6797   2.7529   2.8190   2.9132   2.9895   3.0543
     3.6518   3.9394   4.0369   4.1180   4.3229   4.4170   4.5043   4.6832
     5.3346   5.4124   5.5283   5.7039   5.7324   5.7950   6.1606   6.2798
     6.7909   6.9156   7.1894   7.2615   7.3778   7.5373   7.6450   7.9059
     7.9960   8.0886   8.1457   8.2642   8.2980   8.5420   8.8981   8.9188
     9.0242   9.0553   9.2059   9.2596   9.3026   9.3461   9.3943   9.3944
     9.4486   9.4573

          k = 0.3750 0.0000 0.0000 ( 71180 PWs)   bands (ev):

   -41.2376 -38.6753 -38.0423 -35.6696 -22.9854 -22.9072 -22.7954 -22.7394
   -22.5806 -22.5742 -22.5313 -22.4665 -21.2707 -21.2697 -21.1550 -19.7450
   -19.7100 -19.6527 -18.5132 -18.3942 -18.0455 -17.0347 -16.9503 -16.6993
   -16.0939 -15.7796 -15.3569 -15.2317 -14.9223 -14.9165 -14.8728 -14.8311
   -14.7823 -14.7299 -14.7198 -14.6586 -14.5958 -14.5176 -14.5070 -14.4183
   -14.2237 -14.0828 -14.0219 -14.0149 -14.0056 -13.9866 -13.9827 -13.9752
   -13.9291 -13.8396 -13.7290 -13.6693 -13.6205 -13.4892  -8.3565  -8.2838
    -8.0799  -7.9777  -7.9225  -7.8849  -7.8379  -7.8215  -7.7942  -7.7930
    -7.7831  -7.7400  -7.7198  -7.6999  -7.6751  -7.5990  -7.5771  -7.5063
    -7.5048  -7.4779  -7.4211  -7.4121  -7.3833  -7.3130  -3.3589  -2.8880
    -2.8351  -2.7082  -2.5674  -2.4099  -2.3771  -2.3633  -2.3334  -2.2489
    -2.1847  -2.1541  -2.1297  -2.0600  -2.0342  -2.0140  -1.9936  -1.8448
    -1.8355  -1.7250  -1.7212  -1.6543  -1.5966  -1.5143  -1.4984  -1.4746
    -1.4372  -1.3008  -1.2804  -1.1995  -1.1643  -1.0960  -1.0399  -1.0352
    -0.9978  -0.9558  -0.9557  -0.9284  -0.9249  -0.9186  -0.9148  -0.8915
    -0.8381  -0.8146  -0.8103  -0.7618  -0.7561  -0.6951  -0.6777  -0.6399
    -0.5423  -0.5420  -0.5310  -0.4597  -0.4577  -0.4287  -0.4282  -0.3489
    -0.3361  -0.3095  -0.2758  -0.2566  -0.2286  -0.2230  -0.2011  -0.1955
    -0.1339  -0.1007  -0.0304   0.0047   0.0162   0.0394   0.0469   0.0638
     0.0657   0.0936   0.2170   0.2251   0.2394   0.2703   0.2751   0.2841
     0.2894   0.3515   0.3795   0.3855   0.3899   0.4011   0.4482   0.4623
     0.4718   0.5138   0.5141   0.5221   0.5377   0.5936   0.6006   0.6251
     0.6341   0.6967   0.7285   0.7401   0.7443   0.8444   0.8583   0.8852
     0.9093   0.9479   0.9815   0.9991   1.0300   1.0680   1.1635   1.1780
     1.2173   1.2281   1.2752   1.2778   1.3375   1.3595   1.3834   1.4041
     1.4112   1.4751   1.4972   1.5352   1.5640   1.5783   1.5805   1.6115
     1.6635   1.6885   1.7232   1.7742   1.7757   1.8022   1.8424   1.8610
     1.8771   1.9446   1.9597   1.9760   2.0083   2.0402   2.1790   2.1894
     2.2136   2.2757   2.2900   2.3175   2.3240   2.3913   2.4575   2.4822
     2.5465   2.6400   2.6988   2.7846   2.8384   2.9353   3.3564   3.8579
     5.0548   5.0871   5.4082   5.5962   5.6602   5.7193   5.9836   6.1883
     6.2194   6.2731   6.4048   6.5415   6.6704   6.8951   6.9242   7.1416
     7.2364   7.2526   7.3542   7.3767   7.5897   7.7713   7.8627   7.9704
     8.0583   8.1741   8.1914   8.2744   8.4447   8.4486   8.5096   8.6275
     8.6768   8.9164

          k = 0.3750 0.2618 0.0000 ( 71148 PWs)   bands (ev):

   -41.2355 -38.6740 -38.0396 -35.6679 -22.9632 -22.8870 -22.7726 -22.7184
   -22.5574 -22.5519 -22.5103 -22.4463 -21.2789 -21.2664 -21.1818 -19.7426
   -19.7151 -19.6662 -18.4747 -18.3872 -18.1564 -17.0044 -16.9428 -16.7649
   -16.0481 -15.7364 -15.3562 -15.1288 -14.8976 -14.8714 -14.8409 -14.7851
   -14.7459 -14.6876 -14.6667 -14.6355 -14.5650 -14.4947 -14.4715 -14.3693
   -14.1842 -14.0887 -14.0783 -14.0032 -13.9990 -13.9776 -13.9698 -13.9666
   -13.9535 -13.8653 -13.7458 -13.6816 -13.6601 -13.5133  -8.3621  -8.2775
    -8.0965  -8.0801  -8.0658  -8.0248  -7.9727  -7.8957  -7.8876  -7.8321
    -7.8154  -7.8075  -7.7522  -7.7348  -7.7237  -7.6595  -7.6527  -7.6335
    -7.5962  -7.5649  -7.4026  -7.3748  -7.3358  -7.3112  -3.4581  -3.1513
    -2.8006  -2.7152  -2.6336  -2.6104  -2.4468  -2.3919  -2.3406  -2.2813
    -2.1811  -2.1688  -2.1535  -2.1296  -2.1033  -2.0271  -2.0162  -1.9876
    -1.9799  -1.8810  -1.8630  -1.8409  -1.7929  -1.7200  -1.6575  -1.6072
    -1.5808  -1.5463  -1.5190  -1.3904  -1.3645  -1.3583  -1.3571  -1.3455
    -1.2887  -1.2464  -1.1733  -1.1157  -1.0551  -1.0441  -1.0295  -0.9610
    -0.9405  -0.8849  -0.8762  -0.8331  -0.8145  -0.6937  -0.6912  -0.6881
    -0.6327  -0.6300  -0.5560  -0.5297  -0.4956  -0.4407  -0.4192  -0.3776
    -0.3500  -0.3379  -0.2494  -0.2201  -0.2009  -0.1873  -0.1492  -0.1206
    -0.0761  -0.0495  -0.0465  -0.0294  -0.0053   0.0004   0.0305   0.0348
     0.0863   0.0936   0.1598   0.1800   0.2228   0.2332   0.2344   0.2532
     0.3345   0.3725   0.3851   0.4081   0.4124   0.4230   0.4260   0.4431
     0.4599   0.4669   0.4930   0.5131   0.5639   0.5799   0.5933   0.6222
     0.6696   0.7224   0.7638   0.8836   0.9594   0.9885   1.0167   1.0404
     1.0665   1.0908   1.1062   1.1153   1.1524   1.1629   1.1840   1.1948
     1.2586   1.2864   1.2893   1.3189   1.3596   1.3597   1.3687   1.4158
     1.4717   1.5181   1.5509   1.5732   1.5783   1.6026   1.6237   1.6502
     1.6749   1.6880   1.6927   1.7332   1.7348   1.7585   1.7944   1.8253
     1.8330   1.9140   1.9633   2.0385   2.0547   2.1998   2.2236   2.2725
     2.3309   2.5384   2.5918   2.7486   2.7989   2.8644   2.9254   2.9458
     2.9726   2.9895   2.9946   3.0255   3.1335   3.2186   3.4235   3.8904
     5.0710   5.2011   5.2991   5.7091   5.9599   6.0060   6.0168   6.2973
     6.4240   6.4670   6.4751   6.6004   6.6477   6.8125   6.9958   7.2833
     7.3130   7.4617   7.4991   7.6376   7.7199   7.9623   7.9771   8.0927
     8.1902   8.2778   8.3327   8.5268   8.6131   8.6384   8.6701   8.7344
     8.7601   8.9296

          k = 0.3750 0.5236 0.0000 ( 71095 PWs)   bands (ev):

   -41.2305 -38.6707 -38.0331 -35.6638 -22.9084 -22.8375 -22.7165 -22.6667
   -22.5003 -22.4970 -22.4587 -22.3966 -21.3500 -21.2575 -21.1930 -19.7583
   -19.7369 -19.6672 -18.3963 -18.3757 -18.3702 -16.9298 -16.9259 -16.9075
   -15.9294 -15.6229 -15.3671 -14.9370 -14.9038 -14.7593 -14.6822 -14.6594
   -14.6479 -14.6401 -14.6178 -14.5129 -14.4738 -14.4574 -14.3552 -14.2412
   -14.2315 -14.1456 -14.0955 -14.0026 -13.9633 -13.9523 -13.9470 -13.9460
   -13.9271 -13.9261 -13.7997 -13.7519 -13.7172 -13.5837  -8.4644  -8.3451
    -8.3169  -8.2878  -8.2193  -8.1793  -8.1244  -8.0375  -8.0277  -7.9875
    -7.9604  -7.9465  -7.9051  -7.8625  -7.7740  -7.7535  -7.7219  -7.7129
    -7.6965  -7.6232  -7.5826  -7.5265  -7.4321  -7.3544  -3.8348  -3.5081
    -3.2100  -2.9167  -2.8547  -2.8247  -2.6886  -2.6309  -2.5976  -2.5713
    -2.5256  -2.4318  -2.3639  -2.3283  -2.2576  -2.2269  -2.1845  -2.1579
    -2.1555  -2.1351  -2.1328  -2.0954  -2.0720  -2.0584  -2.0313  -2.0188
    -1.9797  -1.9726  -1.9526  -1.7817  -1.6671  -1.6457  -1.5507  -1.5391
    -1.5122  -1.4517  -1.4234  -1.3782  -1.2854  -1.1793  -1.1707  -1.0891
    -1.0661  -1.0307  -0.9951  -0.9652  -0.9192  -0.8846  -0.8470  -0.8171
    -0.7504  -0.7358  -0.6734  -0.6581  -0.6263  -0.6241  -0.6032  -0.5373
    -0.5145  -0.4540  -0.4510  -0.4269  -0.4120  -0.3855  -0.3792  -0.3439
    -0.3388  -0.2939  -0.2518  -0.2104  -0.1478  -0.1179  -0.0617  -0.0551
     0.0733   0.0763   0.1241   0.2094   0.2341   0.2892   0.3371   0.3584
     0.4259   0.4504   0.4900   0.5360   0.5399   0.5632   0.5657   0.6442
     0.7158   0.7588   0.7796   0.8068   0.8651   0.8885   0.9564   0.9584
     1.0181   1.0315   1.0582   1.0692   1.1154   1.1199   1.1229   1.1536
     1.1564   1.1600   1.2161   1.2977   1.3430   1.3850   1.3997   1.4197
     1.4273   1.4648   1.5000   1.5342   1.5506   1.5541   1.5647   1.5829
     1.5952   1.6122   1.6318   1.6446   1.6508   1.6634   1.6969   1.7288
     1.7469   1.7654   1.7761   1.8608   1.8978   1.9329   1.9472   2.0394
     2.0426   2.0462   2.0694   2.0957   2.1721   2.1873   2.2734   2.3465
     2.6749   2.9279   3.0815   3.1246   3.1264   3.1808   3.2172   3.2377
     3.3509   3.5516   3.6116   3.6350   3.6582   3.7153   3.8170   3.9863
     5.0497   5.2968   5.4345   5.7845   6.0838   6.2079   6.5320   6.6548
     6.7086   6.7111   6.7531   6.8028   6.8238   7.1134   7.1631   7.2707
     7.3261   7.5273   8.1233   8.2137   8.2826   8.3360   8.3626   8.3991
     8.4872   8.5264   8.6289   8.7979   8.8995   8.9773   9.0335   9.0663
     9.1511   9.1634

          k = 0.3750 0.7854 0.0000 ( 71150 PWs)   bands (ev):

   -41.2255 -38.6674 -38.0266 -35.6597 -22.8521 -22.7867 -22.6589 -22.6136
   -22.4416 -22.4407 -22.4059 -22.3457 -21.4456 -21.2486 -21.1761 -19.8137
   -19.7312 -19.6547 -18.6053 -18.3533 -18.2701 -17.0399 -16.9110 -16.8441
   -15.7881 -15.4862 -15.4047 -15.0161 -14.7601 -14.6554 -14.6454 -14.5928
   -14.5710 -14.4897 -14.4652 -14.4592 -14.4262 -14.3224 -14.2792 -14.2130
   -14.1661 -14.0887 -14.0774 -14.0429 -14.0197 -13.9788 -13.9126 -13.8984
   -13.8941 -13.8848 -13.8492 -13.8109 -13.7765 -13.6936  -8.6630  -8.5136
    -8.3793  -8.3588  -8.3212  -8.2616  -8.2412  -8.2264  -8.1689  -8.0885
    -8.0503  -8.0034  -7.9820  -7.9738  -7.9344  -7.8984  -7.8550  -7.7903
    -7.7744  -7.7119  -7.6918  -7.6879  -7.5829  -7.4819  -4.2588  -3.8230
    -3.6948  -3.3448  -3.2902  -3.1730  -3.0717  -3.0419  -3.0248  -2.9131
    -2.8089  -2.7896  -2.7644  -2.7471  -2.7362  -2.6940  -2.5686  -2.4268
    -2.2818  -2.2288  -2.2193  -2.2062  -2.1632  -2.1311  -2.1164  -2.0731
    -2.0457  -1.9408  -1.9398  -1.9235  -1.8919  -1.7385  -1.6582  -1.6216
    -1.5806  -1.5519  -1.5343  -1.4825  -1.4799  -1.3940  -1.3580  -1.2922
    -1.2550  -1.0990  -1.0585  -1.0516  -1.0448  -1.0423  -0.9721  -0.9300
    -0.9018  -0.8576  -0.8473  -0.8347  -0.7688  -0.7578  -0.7176  -0.6939
    -0.6738  -0.6351  -0.6072  -0.5989  -0.5877  -0.5824  -0.5375  -0.5362
    -0.5110  -0.4369  -0.3733  -0.2580  -0.1957  -0.1846  -0.0827  -0.0086
     0.0867   0.1330   0.2625   0.2931   0.3819   0.4151   0.4213   0.4262
     0.5134   0.5446   0.5807   0.5873   0.6516   0.6705   0.7643   0.8680
     0.8932   0.9060   0.9565   0.9815   1.0243   1.0595   1.1146   1.1251
     1.1607   1.1849   1.1965   1.2164   1.2734   1.3104   1.3322   1.3933
     1.3936   1.4133   1.4435   1.4613   1.4971   1.5199   1.5285   1.5502
     1.5606   1.5840   1.5921   1.6407   1.6701   1.6862   1.7072   1.7483
     1.7548   1.7734   1.7886   1.8307   1.8481   1.8559   1.8740   1.8766
     1.8996   1.9334   1.9686   2.0202   2.0321   2.0412   2.0806   2.1145
     2.2215   2.3477   2.3692   2.3969   2.4269   2.4553   2.4815   2.6132
     2.7730   2.9117   2.9795   3.0067   3.0462   3.0954   3.3256   3.4095
     3.5465   3.8043   3.8676   3.9348   4.0085   4.0812   4.1967   4.2592
     5.1748   5.3958   5.5706   5.7516   5.9107   5.9939   6.5825   6.6674
     6.7854   6.8194   7.0131   7.1433   7.1544   7.2226   7.2343   7.5263
     7.7017   7.7540   8.1419   8.1983   8.6826   8.7223   8.7785   8.8283
     8.8635   8.9221   9.0190   9.0686   9.0953   9.2859   9.3084   9.3962
     9.4101   9.4873

          k = 0.3750-1.0472 0.0000 ( 71134 PWs)   bands (ev):

   -41.2234 -38.6661 -38.0239 -35.6580 -22.8284 -22.7653 -22.6346 -22.5911
   -22.4169 -22.4168 -22.3836 -22.3243 -21.4859 -21.2448 -21.1673 -19.8371
   -19.7289 -19.6488 -18.6858 -18.3463 -18.2230 -17.0905 -16.9049 -16.8076
   -15.7124 -15.4477 -15.4028 -15.0697 -14.7806 -14.6585 -14.6353 -14.5369
   -14.5178 -14.4971 -14.4158 -14.3392 -14.3199 -14.2729 -14.2122 -14.2092
   -14.1814 -14.1020 -14.0855 -14.0237 -14.0087 -14.0053 -13.8864 -13.8793
   -13.8615 -13.8608 -13.8559 -13.8557 -13.8083 -13.7735  -8.7141  -8.5494
    -8.3812  -8.3753  -8.3565  -8.3556  -8.2923  -8.2464  -8.2213  -8.1864
    -8.0600  -8.0365  -8.0320  -8.0054  -7.9806  -7.9695  -7.9090  -7.8784
    -7.8755  -7.7241  -7.7060  -7.6764  -7.6619  -7.5578  -4.4318  -3.9504
    -3.8918  -3.5100  -3.4809  -3.3769  -3.2790  -3.2455  -3.1880  -3.1109
    -3.0233  -2.9963  -2.9757  -2.9663  -2.8319  -2.7498  -2.4777  -2.4424
    -2.4316  -2.2772  -2.2379  -2.2077  -2.2011  -2.1798  -2.1498  -2.1187
    -2.0647  -1.9301  -1.8965  -1.8788  -1.8610  -1.7694  -1.7464  -1.7128
    -1.6754  -1.6067  -1.5831  -1.5237  -1.5160  -1.4531  -1.3977  -1.3621
    -1.2981  -1.1773  -1.1542  -1.0985  -1.0821  -1.0699  -1.0670  -1.0313
    -0.9391  -0.9362  -0.8676  -0.8569  -0.8435  -0.7905  -0.7821  -0.7390
[...]
    -2.2314  -2.1712  -2.1639  -2.1115  -2.1035  -2.0547  -2.0401  -2.0114
    -1.8752  -1.8722  -1.8651  -1.8537  -1.7769  -1.7510  -1.6572  -1.6457
    -1.5965  -1.5311  -1.4825  -1.4772  -1.3769  -1.3624  -1.3601  -1.3516
    -1.3515  -1.2546  -1.1970  -1.0369  -1.0221  -1.0083  -0.9836  -0.9793
    -0.9283  -0.9156  -0.8825  -0.8702  -0.8375  -0.7847  -0.7304  -0.6740
    -0.6269  -0.6264  -0.5566  -0.4817  -0.4474  -0.4387  -0.4383  -0.4324
    -0.4085  -0.3743  -0.2621  -0.2291  -0.1930  -0.1695  -0.1525  -0.1404
    -0.0635  -0.0620  -0.0600  -0.0396  -0.0271  -0.0050   0.0284   0.0442
     0.0828   0.1037   0.1569   0.1735   0.2227   0.2301   0.2444   0.2569
     0.3316   0.3924   0.4052   0.4129   0.4307   0.4541   0.4555   0.4570
     0.4700   0.4754   0.5061   0.5131   0.5297   0.5476   0.6179   0.6219
     0.6630   0.7037   0.7610   0.8709   0.9659   0.9955   1.0040   1.0784
     1.0855   1.0934   1.0939   1.1153   1.1207   1.1514   1.1666   1.1975
     1.2736   1.2843   1.3087   1.3569   1.3599   1.3775   1.4041   1.4648
     1.4684   1.5137   1.5426   1.5504   1.5738   1.5921   1.6082   1.6229
     1.6290   1.6387   1.6601   1.6699   1.7430   1.7640   1.8221   1.8237
     1.8702   1.8802   1.9966   2.0636   2.0755   2.1398   2.2406   2.2976
     2.4194   2.5122   2.6370   2.7520   2.8656   2.8983   2.9449   2.9479
     2.9550   2.9788   3.0428   3.0463   3.0623   3.1952   3.4737   3.8186
     5.1740   5.2160   5.2439   5.6868   6.0534   6.1650   6.1824   6.2119
     6.2142   6.3124   6.4517   6.6421   6.7286   6.8202   7.0003   7.1724
     7.2059   7.5250   7.7441   7.7991   7.8595   7.9187   7.9471   8.0171
     8.0480   8.2026   8.2577   8.5031   8.6358   8.7067   8.7662   8.7862
     8.8791   8.8927

          k =-0.5000 0.5236 0.0000 ( 71094 PWs)   bands (ev):

   -41.2305 -38.6707 -38.0331 -35.6638 -22.9029 -22.8432 -22.7064 -22.6770
   -22.4932 -22.4838 -22.4754 -22.4006 -21.3500 -21.2568 -21.1931 -19.7583
   -19.7380 -19.6672 -18.3963 -18.3751 -18.3670 -16.9361 -16.9315 -16.9079
   -15.9197 -15.6391 -15.3608 -14.9353 -14.8477 -14.7703 -14.6700 -14.6588
   -14.6533 -14.6399 -14.6131 -14.5371 -14.4829 -14.4599 -14.3268 -14.2809
   -14.2334 -14.1586 -14.0905 -13.9955 -13.9621 -13.9510 -13.9492 -13.9378
   -13.9344 -13.9266 -13.8043 -13.7514 -13.7062 -13.5892  -8.4307  -8.3979
    -8.3057  -8.2829  -8.2538  -8.2196  -8.0894  -8.0635  -8.0272  -8.0013
    -7.9729  -7.9598  -7.8859  -7.8816  -7.7604  -7.7205  -7.7166  -7.6946
    -7.6839  -7.6730  -7.4949  -7.4810  -7.4657  -7.3784  -3.7515  -3.5781
    -3.0853  -3.0076  -2.8259  -2.7515  -2.7230  -2.6563  -2.5784  -2.5288
    -2.5198  -2.4649  -2.3269  -2.2868  -2.2392  -2.1855  -2.1640  -2.1627
    -2.1489  -2.1454  -2.1411  -2.1330  -2.0590  -2.0516  -2.0258  -2.0198
    -2.0041  -1.9969  -1.9868  -1.8529  -1.7317  -1.6659  -1.5451  -1.4714
    -1.4675  -1.4518  -1.4333  -1.4155  -1.3424  -1.2578  -1.2015  -1.1377
    -1.1222  -0.9748  -0.9697  -0.9475  -0.9470  -0.8838  -0.8690  -0.8427
    -0.8014  -0.7476  -0.6634  -0.6592  -0.6463  -0.6334  -0.5683  -0.5486
    -0.5300  -0.4479  -0.4354  -0.4105  -0.4060  -0.3991  -0.3482  -0.3478
    -0.3111  -0.2857  -0.2633  -0.2244  -0.1815  -0.1332  -0.1228  -0.0122
     0.0322   0.0803   0.0973   0.2026   0.2472   0.2809   0.3835   0.3910
     0.4014   0.4952   0.5160   0.5316   0.5386   0.6251   0.6292   0.6374
     0.6429   0.7663   0.7687   0.7789   0.8782   0.8904   0.9474   0.9872
     1.0269   1.0316   1.0468   1.0492   1.0917   1.1030   1.1134   1.1140
     1.1423   1.1429   1.1990   1.2928   1.3603   1.4186   1.4199   1.4238
     1.4684   1.4840   1.5023   1.5247   1.5367   1.5476   1.5777   1.5871
     1.6007   1.6111   1.6143   1.6498   1.6614   1.6703   1.6936   1.7388
     1.7496   1.7964   1.8037   1.8463   1.8713   1.9325   1.9915   2.0015
     2.0485   2.0678   2.0900   2.1073   2.1425   2.1802   2.2017   2.3717
     2.9422   3.0239   3.0930   3.1235   3.1743   3.1776   3.2707   3.3227
     3.4219   3.5069   3.5486   3.5976   3.6324   3.6729   3.6910   3.9318
     5.0962   5.2880   5.4333   5.7804   6.1312   6.2012   6.5220   6.6810
     6.7091   6.7368   6.7650   6.7813   6.8239   7.0834   7.2246   7.2647
     7.2721   7.5174   8.0815   8.2250   8.3375   8.3583   8.4222   8.4405
     8.4618   8.6120   8.7440   8.7575   8.8307   8.9730   9.0997   9.1060
     9.1309   9.1941

          k =-0.5000 0.7854 0.0000 ( 71114 PWs)   bands (ev):

   -41.2255 -38.6674 -38.0266 -35.6597 -22.8476 -22.7913 -22.6511 -22.6216
   -22.4376 -22.4280 -22.4196 -22.3489 -21.4456 -21.2479 -21.1761 -19.8137
   -19.7323 -19.6547 -18.6053 -18.3502 -18.2695 -17.0399 -16.9201 -16.8463
   -15.7829 -15.4927 -15.4030 -15.0158 -14.7187 -14.6922 -14.6115 -14.6049
   -14.5463 -14.4740 -14.4667 -14.4574 -14.4189 -14.3695 -14.2671 -14.2503
   -14.1431 -14.1130 -14.0479 -14.0466 -14.0178 -14.0036 -13.9081 -13.9026
   -13.8926 -13.8877 -13.8458 -13.8146 -13.7748 -13.6934  -8.5874  -8.4762
    -8.4096  -8.3710  -8.3536  -8.2177  -8.2140  -8.1840  -8.1501  -8.1056
    -8.0957  -8.0068  -7.9972  -7.9911  -7.9131  -7.9125  -7.8655  -7.7541
    -7.7383  -7.7242  -7.6886  -7.6885  -7.6743  -7.5610  -4.1680  -3.8999
    -3.5969  -3.4170  -3.2011  -3.1890  -3.0721  -3.0656  -2.9735  -2.9519
    -2.7861  -2.7774  -2.7765  -2.7454  -2.7403  -2.6798  -2.5448  -2.3471
    -2.3449  -2.2669  -2.2123  -2.1992  -2.1903  -2.1345  -2.0929  -2.0543
    -2.0418  -2.0046  -1.8973  -1.8739  -1.8251  -1.7660  -1.6784  -1.6714
    -1.6615  -1.6528  -1.5307  -1.5125  -1.4989  -1.4027  -1.3111  -1.2922
    -1.2782  -1.1325  -1.1204  -1.0932  -1.0719  -1.0456  -0.9569  -0.9472
    -0.9007  -0.8430  -0.8180  -0.8161  -0.8039  -0.7414  -0.7252  -0.7023
    -0.6801  -0.6340  -0.5968  -0.5953  -0.5857  -0.5774  -0.5084  -0.4834
    -0.4805  -0.4181  -0.2983  -0.2936  -0.2632  -0.1913  -0.1715   0.0505
     0.0648   0.1826   0.2017   0.3154   0.3285   0.3670   0.4643   0.4693
     0.5003   0.5644   0.6178   0.6434   0.7002   0.7209   0.7638   0.8155
     0.8607   0.8700   0.9298   1.0198   1.0461   1.0640   1.0972   1.1364
     1.1700   1.1825   1.1922   1.2110   1.2147   1.3274   1.3534   1.3944
     1.4059   1.4407   1.4408   1.4747   1.4776   1.5274   1.5500   1.5739
     1.5937   1.5965   1.6182   1.6428   1.6437   1.6477   1.6703   1.7158
     1.7519   1.7754   1.7974   1.8163   1.8328   1.8411   1.8415   1.8741
     1.9105   1.9435   1.9462   2.0224   2.0309   2.0434   2.0615   2.1180
     2.1846   2.3878   2.4072   2.4178   2.4289   2.4311   2.4573   2.5322
     2.9597   2.9849   3.0370   3.0522   3.1721   3.2181   3.5131   3.5584
     3.6611   3.7027   3.7038   3.7998   3.9064   3.9389   4.0537   4.2043
     5.1889   5.4031   5.5721   5.7504   5.9209   6.0996   6.6714   6.7615
     6.8296   6.8708   6.9375   7.0210   7.1103   7.1216   7.1867   7.4948
     7.6344   7.7435   8.1682   8.1751   8.7253   8.7524   8.7900   8.8170
     8.8341   8.9017   8.9555   9.0448   9.2422   9.2925   9.3536   9.3759
     9.4190   9.5888

          k =-0.5000-1.0472 0.0000 ( 71164 PWs)   bands (ev):

   -41.2234 -38.6661 -38.0239 -35.6580 -22.8243 -22.7695 -22.6277 -22.5982
   -22.4142 -22.4045 -22.3960 -22.3271 -21.4859 -21.2442 -21.1673 -19.8371
   -19.7299 -19.6487 -18.6858 -18.3431 -18.2225 -17.0905 -16.9138 -16.8096
   -15.7102 -15.4383 -15.4113 -15.0726 -14.7413 -14.6759 -14.6003 -14.5984
   -14.5168 -14.4424 -14.3954 -14.3395 -14.3207 -14.2722 -14.2526 -14.2362
   -14.1501 -14.1332 -14.0651 -14.0313 -14.0208 -14.0103 -13.8834 -13.8826
   -13.8595 -13.8590 -13.8458 -13.8458 -13.8231 -13.7820  -8.6136  -8.4782
    -8.4130  -8.3623  -8.3612  -8.2581  -8.2151  -8.1857  -8.1807  -8.1784
    -8.1413  -8.0878  -8.0841  -8.0644  -7.9856  -7.9831  -7.8920  -7.8818
    -7.8787  -7.8374  -7.7123  -7.6815  -7.6757  -7.6602  -4.3385  -4.0299
    -3.7982  -3.5781  -3.3988  -3.3879  -3.2776  -3.2332  -3.1863  -3.1392
    -3.0103  -3.0096  -2.9791  -2.9694  -2.7716  -2.6900  -2.5850  -2.5324
    -2.3529  -2.2440  -2.2210  -2.2116  -2.1967  -2.1476  -2.1010  -2.0676
    -2.0257  -1.9815  -1.9452  -1.9120  -1.8271  -1.8211  -1.8041  -1.7692
    -1.7075  -1.5964  -1.5633  -1.5464  -1.5361  -1.4397  -1.4271  -1.4212
    -1.3446  -1.1618  -1.1434  -1.1297  -1.1211  -1.0911  -1.0612  -1.0433
    -0.9366  -0.9126  -0.9085  -0.8703  -0.7919  -0.7854  -0.7827  -0.7168
    -0.7039  -0.6872  -0.6739  -0.6607  -0.6536  -0.6021  -0.5286  -0.5188
    -0.5058  -0.4324  -0.3147  -0.2914  -0.2557  -0.2142  -0.1918   0.0682
     0.0786   0.2331   0.2502   0.3448   0.3793   0.3824   0.4783   0.4868
     0.5323   0.5782   0.5970   0.7452   0.7465   0.7789   0.8238   0.9146
     0.9588   0.9915   1.0037   1.0838   1.1201   1.1686   1.1750   1.2143
     1.2337   1.2508   1.2840   1.3169   1.3292   1.3483   1.3608   1.3813
     1.3895   1.4127   1.4135   1.4197   1.4619   1.4925   1.4948   1.5563
     1.5697   1.6279   1.6763   1.6997   1.7003   1.7620   1.7877   1.8110
     1.8183   1.8528   1.8593   1.8823   1.9345   1.9659   1.9935   1.9974
     2.0091   2.0442   2.0637   2.1130   2.1700   2.2392   2.2429   2.2553
     2.2558   2.4490   2.5418   2.5871   2.5960   2.6069   2.6299   2.7456
     2.7575   2.7724   2.8454   2.8579   3.2071   3.2414   3.5260   3.6124
     3.6185   3.7111   3.7491   3.8231   3.9726   3.9886   4.2026   4.3331
     5.3740   5.3991   5.6195   5.6825   5.7998   6.0402   6.6479   6.7707
     6.8175   6.8788   6.8992   6.9690   7.0347   7.1480   7.2447   7.6538
     8.0260   8.1099   8.2033   8.2495   8.2947   8.5376   8.9075   8.9999
     9.0354   9.1542   9.2630   9.4417   9.4837   9.5091   9.5639   9.6011
     9.6111   9.6606

     the Fermi energy is     2.7674 ev

!    total energy              =   -3711.26262810 Ry
     Harris-Foulkes estimate   =   -3711.26262809 Ry
     estimated scf accuracy    <          7.1E-09 Ry

     The total energy is the sum of the following terms:

     one-electron contribution =  -61740.79178968 Ry
     hartree contribution      =   31174.22059623 Ry
     xc contribution           =   -1263.48590812 Ry
     ewald contribution        =   28118.80742925 Ry
     smearing contrib. (-TS)   =      -0.01295578 Ry

     convergence has been achieved in  35 iterations

     negative rho (up, down):  9.107E-02 0.000E+00

     Forces acting on atoms (cartesian axes, Ry/au):

     atom    1 type  4   force =    -0.00001015    0.00000000   -0.00011616
     atom    2 type  4   force =     0.00001015    0.00000000   -0.00011616
     atom    3 type  3   force =    -0.00001420    0.00000000   -0.00003271
     atom    4 type  3   force =     0.00001420    0.00000000   -0.00003271
     atom    5 type  4   force =    -0.00000137    0.00000000   -0.00005859
     atom    6 type  4   force =     0.00000137    0.00000000   -0.00005859
     atom    7 type  1   force =     0.00000000    0.00000000   -0.00010891
     atom    8 type  1   force =     0.00000000    0.00000000   -0.00010003
     atom    9 type  3   force =     0.00002438    0.00000000   -0.00000241
     atom   10 type  3   force =    -0.00002438    0.00000000   -0.00000241
     atom   11 type  4   force =     0.00000000    0.00000000    0.00013611
     atom   12 type  4   force =    -0.00000151    0.00000000    0.00006369
     atom   13 type  4   force =     0.00000151    0.00000000    0.00006369
     atom   14 type  4   force =     0.00000000    0.00000000    0.00018769
     atom   15 type  2   force =     0.00000000    0.00000000   -0.00049192
     atom   16 type  5   force =     0.00000000    0.00000000   -0.00076279
     atom   17 type  4   force =     0.00009474    0.00000000    0.00081577
     atom   18 type  4   force =    -0.00009474    0.00000000    0.00081577
     atom   19 type  4   force =     0.00000000    0.00000000    0.00089315
     atom   20 type  4   force =     0.00000000    0.00000000    0.00114950
     atom   21 type  3   force =    -0.00003792    0.00000000   -0.00119706
     atom   22 type  3   force =     0.00003792    0.00000000   -0.00119706
     atom   23 type  1   force =     0.00000000    0.00000000   -0.00216469
     atom   24 type  1   force =     0.00000000    0.00000000   -0.00228633
     atom   25 type  4   force =    -0.00021020    0.00000000    0.00395542
     atom   26 type  4   force =     0.00021020    0.00000000    0.00395542
     atom   27 type  4   force =    -0.00020492    0.00000000    0.00481595
     atom   28 type  4   force =     0.00020492    0.00000000    0.00481595
     atom   29 type  3   force =     0.00181610    0.00000000   -0.00935067
     atom   30 type  3   force =    -0.00181610    0.00000000   -0.00935067
     atom   31 type  4   force =     0.00004775    0.00000000    0.01370894
     atom   32 type  4   force =    -0.00004775    0.00000000    0.01370894
     atom   33 type  1   force =     0.00000000    0.00000000   -0.02471380
     atom   34 type  1   force =     0.00000000    0.00000000   -0.01775666
     atom   35 type  3   force =    -0.00281253    0.00000000    0.00609437
     atom   36 type  3   force =     0.00281253    0.00000000    0.00609437
     atom   37 type  4   force =     0.00000000    0.00000000    0.05655473
     atom   38 type  4   force =     0.00000000    0.00000000    0.08420589
     atom   39 type  4   force =     0.02168659    0.00000000    0.07150191
     atom   40 type  4   force =    -0.02168659    0.00000000    0.07150191
     atom   41 type  5   force =     0.00000000    0.00000000   -0.09888036
     atom   42 type  2   force =     0.00000000    0.00000000   -0.04846350
     atom   43 type  4   force =     0.00000000    0.00000000   -0.01170348
     atom   44 type  4   force =    -0.00098261    0.00000000   -0.01130244
     atom   45 type  4   force =     0.00098261    0.00000000   -0.01130244
     atom   46 type  4   force =     0.00000000    0.00000000    0.00214207
     atom   47 type  3   force =     0.00116296    0.00000000   -0.02176148
     atom   48 type  3   force =    -0.00116296    0.00000000   -0.02176148
     atom   49 type  1   force =     0.00000000    0.00000000   -0.02175952
     atom   50 type  1   force =     0.00000000    0.00000000   -0.02731879
     atom   51 type  4   force =     0.00069489    0.00000000   -0.00164215
     atom   52 type  4   force =    -0.00069489    0.00000000   -0.00164215
     atom   53 type  3   force =    -0.00015502    0.00000000    0.00027834
     atom   54 type  3   force =     0.00015502    0.00000000    0.00027834
     atom   55 type  4   force =     0.00005984    0.00000000   -0.00014990
     atom   56 type  4   force =    -0.00005984    0.00000000   -0.00014990

     Total force =     0.194485     Total SCF correction =     0.000376


     Computing stress (Cartesian axis) and pressure


     negative rho (up, down):  9.107E-02 0.000E+00
          total   stress  (Ry/bohr**3)                   (kbar)     P=       -8.91
  -0.00000839   0.00000000   0.00000000           -1.23        0.00        0.00
   0.00000000   0.00001408   0.00000000            0.00        2.07        0.00
   0.00000000   0.00000000  -0.00018747            0.00        0.00      -27.58

 
     init_run     :     25.29s CPU     25.89s WALL (       1 calls)
     electrons    :   1764.78s CPU   1808.61s WALL (       1 calls)
     forces       :     10.47s CPU     10.82s WALL (       1 calls)
     stress       :     97.16s CPU     98.40s WALL (       1 calls)

     Called by init_run:
     wfcinit      :     20.52s CPU     20.81s WALL (       1 calls)
     potinit      :      1.02s CPU      1.03s WALL (       1 calls)
     hinit0       :      1.65s CPU      1.67s WALL (       1 calls)

     Called by electrons:
     c_bands      :   1462.58s CPU   1487.86s WALL (      35 calls)
     sum_band     :    223.50s CPU    233.79s WALL (      35 calls)
     v_of_rho     :      4.02s CPU      4.09s WALL (      36 calls)
     newd         :     42.59s CPU     50.59s WALL (      36 calls)
     mix_rho      :     32.92s CPU     33.31s WALL (      35 calls)

     Called by c_bands:
     init_us_2    :      7.92s CPU      7.98s WALL (    1825 calls)
     cegterg      :   1391.15s CPU   1415.57s WALL (     875 calls)

     Called by sum_band:
     sum_band:bec :      0.91s CPU      0.92s WALL (     875 calls)
     addusdens    :     36.94s CPU     45.07s WALL (      35 calls)

     Called by *egterg:
     h_psi        :    657.45s CPU    669.37s WALL (    4429 calls)
     s_psi        :     96.63s CPU     97.20s WALL (    4429 calls)
     g_psi        :      1.41s CPU      1.42s WALL (    3529 calls)
     cdiaghg      :    328.34s CPU    330.13s WALL (    4404 calls)

     Called by h_psi:
     h_psi:calbec :    108.33s CPU    108.93s WALL (    4429 calls)
     vloc_psi     :    450.39s CPU    457.63s WALL (    4429 calls)
     add_vuspsi   :     96.82s CPU     97.38s WALL (    4429 calls)

     General routines
     calbec       :    183.77s CPU    184.80s WALL (    5429 calls)
     fft          :      3.68s CPU      3.70s WALL (     491 calls)
     ffts         :     18.45s CPU     18.69s WALL (   20715 calls)
     fftw         :    519.31s CPU    527.55s WALL ( 1236406 calls)
     interpolate  :      0.30s CPU      0.30s WALL (      36 calls)
 
     Parallel routines
     fft_scatt_xy :     58.63s CPU     59.65s WALL ( 1257612 calls)
     fft_scatt_yz :    344.99s CPU    350.44s WALL ( 1257612 calls)
 
     PWSCF        :  31m38.76s CPU  32m24.96s WALL

 
   This run was terminated on:  10:37:25  28May2021            

=------------------------------------------------------------------------------=
   JOB DONE.
=------------------------------------------------------------------------------=
[1622212645.633505] [holy7c04405:130362:0]          mpool.c:43   UCX  WARN  object 0x444f740 was not returned to mpool ucp_requests
[1622212645.640412] [holy7c02501:76443:0]          mpool.c:43   UCX  WARN  object 0x380bfc0 was not returned to mpool ucp_requests
[1622212645.637079] [holy7c04310:5860 :0]          mpool.c:43   UCX  WARN  object 0x36aff40 was not returned to mpool ucp_requests
[1622212645.637979] [holy7c04401:11647:0]          mpool.c:43   UCX  WARN  object 0x2b6d3c0 was not returned to mpool ucp_requests
[1622212645.638000] [holy7c04401:11647:0]          mpool.c:43   UCX  WARN  object 0x2b6d740 was not returned to mpool ucp_requests
[1622212645.651580] [holy7c04406:131549:0]          mpool.c:43   UCX  WARN  object 0x44d3200 was not returned to mpool ucp_requests
[1622212645.651604] [holy7c04406:131549:0]          mpool.c:43   UCX  WARN  object 0x44d3580 was not returned to mpool ucp_requests
[1622212645.635958] [holy7c04310:5861 :0]          mpool.c:43   UCX  WARN  object 0x37f8700 was not returned to mpool ucp_requests
[1622212645.635981] [holy7c04310:5861 :0]          mpool.c:43   UCX  WARN  object 0x37f8c40 was not returned to mpool ucp_requests
[1622212645.639492] [holy7c04401:11648:0]          mpool.c:43   UCX  WARN  object 0x4378fc0 was not returned to mpool ucp_requests
[1622212645.644405] [holy7c04403:93770:0]          mpool.c:43   UCX  WARN  object 0x42f9280 was not returned to mpool ucp_requests
[1622212645.644427] [holy7c04403:93770:0]          mpool.c:43   UCX  WARN  object 0x42f9b40 was not returned to mpool ucp_requests
[1622212645.645585] [holy7c04403:93772:0]          mpool.c:43   UCX  WARN  object 0x2aac700 was not returned to mpool ucp_requests
[1622212645.646539] [holy7c04403:93768:0]          mpool.c:43   UCX  WARN  object 0x46b6540 was not returned to mpool ucp_requests
[1622212645.639744] [holy7c04401:11649:0]          mpool.c:43   UCX  WARN  object 0x2efcf80 was not returned to mpool ucp_requests
[1622212645.639761] [holy7c04401:11649:0]          mpool.c:43   UCX  WARN  object 0x2efd300 was not returned to mpool ucp_requests
[1622212645.654990] [holy7c04406:131551:0]          mpool.c:43   UCX  WARN  object 0x32ab3c0 was not returned to mpool ucp_requests
[1622212645.653499] [holy7c04406:131552:0]          mpool.c:43   UCX  WARN  object 0x438f680 was not returned to mpool ucp_requests
