
     Program PWSCF v.6.5 starts on 27May2021 at 23:53: 9 

     This program is part of the open-source Quantum ESPRESSO suite
     for quantum simulation of materials; please cite
         "P. Giannozzi et al., J. Phys.:Condens. Matter 21 395502 (2009);
         "P. Giannozzi et al., J. Phys.:Condens. Matter 29 465901 (2017);
          URL http://www.quantum-espresso.org", 
     in publications or presentations arising from this work. More details at
     http://www.quantum-espresso.org/quote

     Parallel version (MPI), running on    32 processors

     MPI processes distributed on    13 nodes
     R & G space division:  proc/nbgrp/npool/nimage =      32
     Reading input from YCBCO50_212_CuO_cleave_1.5_sep.pwi
Warning: card &IONS ignored
Warning: card     ION_DYNAMICS = 'BFGS' ignored
Warning: card / ignored
Warning: card &CELL ignored
Warning: card     CELL_DYNAMICS = 'BFGS' ignored
Warning: card     PRESS_CONV_THR = 5 ignored
Warning: card / ignored

     Current dimensions of program PWSCF are:
     Max number of different atomic species (ntypx) = 10
     Max number of k-points (npk) =  40000
     Max angular momentum in pseudopotentials (lmaxx) =  3

     Subspace diagonalization in iterative solution of the eigenvalue problem:
     one sub-group per band group will be used
     scalapack distributed-memory algorithm (size of sub-group:  5*  5 procs)

     Message from routine setup:
     using ibrav=0 with symmetry is DISCOURAGED, use correct ibrav instead
 
     Parallelization info
     --------------------
     sticks:   dense  smooth     PW     G-vecs:    dense   smooth      PW
     Min         188      62     17                91886    17674    2637
     Max         189      63     18                91916    17721    2676
     Sum        6019    2003    565              2940889   566335   85181
 


     bravais-lattice index     =            0
     lattice parameter (alat)  =      14.8133  a.u.
     unit-cell volume          =    9014.2378 (a.u.)^3
     number of atoms/cell      =           56
     number of atomic types    =            5
     number of electrons       =       456.00
     number of Kohn-Sham states=          274
     kinetic-energy cutoff     =      60.0000  Ry
     charge density cutoff     =     720.0000  Ry
     convergence threshold     =      1.0E-08
     mixing beta               =       0.5000
     number of iterations used =           10  local-TF  mixing
     Exchange-correlation= SLA PW PBE PBE
                           (   1   4   3   4   0   0   0)

     celldm(1)=  14.813271  celldm(2)=   0.000000  celldm(3)=   0.000000
     celldm(4)=   0.000000  celldm(5)=   0.000000  celldm(6)=   0.000000

     crystal axes: (cart. coord. in units of alat)
               a(1) = (   1.000000   0.000000   0.000000 )  
               a(2) = (   0.000000   0.477453   0.000000 )  
               a(3) = (   0.000000   0.000000   5.808256 )  

     reciprocal axes: (cart. coord. in units 2 pi/alat)
               b(1) = (  1.000000  0.000000  0.000000 )  
               b(2) = (  0.000000  2.094448  0.000000 )  
               b(3) = (  0.000000  0.000000  0.172169 )  


     PseudoPot. # 1 for Ba read from file:
     ./pseudo/Ba.pbe-nsp-van.UPF
     MD5 check sum: 2b9c31dd849566dd297d80989662b7a0
     Pseudo is Ultrasoft + core correction, Zval = 10.0
     Generated by new atomic code, or converted to UPF format
     Using radial grid of  907 points,  6 beta functions with: 
                l(1) =   0
                l(2) =   0
                l(3) =   1
                l(4) =   1
                l(5) =   2
                l(6) =   2
     Q(r) pseudized with  6 coefficients,  rinner =    1.200   1.200   1.200
                                                       1.200   1.200

     PseudoPot. # 2 for Ca read from file:
     ./pseudo/Ca.pbe-nsp-van.UPF
     MD5 check sum: 6471098428ff4fa451746d08035ff179
     Pseudo is Ultrasoft + core correction, Zval = 10.0
     Generated by new atomic code, or converted to UPF format
     Using radial grid of  845 points,  6 beta functions with: 
                l(1) =   0
                l(2) =   0
                l(3) =   1
                l(4) =   1
                l(5) =   2
                l(6) =   2
     Q(r) pseudized with  6 coefficients,  rinner =    1.200   1.200   1.200
                                                       1.200   1.200

     PseudoPot. # 3 for Cu read from file:
     ./pseudo/Cu.pbe-n-van_ak.UPF
     MD5 check sum: 34e3282627ffb533726feb647e090d62
     Pseudo is Ultrasoft + core correction, Zval = 11.0
     Generated by new atomic code, or converted to UPF format
     Using radial grid of  867 points,  6 beta functions with: 
                l(1) =   0
                l(2) =   0
                l(3) =   1
                l(4) =   1
                l(5) =   2
                l(6) =   2
     Q(r) pseudized with  8 coefficients,  rinner =    1.400   1.400   1.400
                                                       1.400   1.400

     PseudoPot. # 4 for O  read from file:
     ./pseudo/O.pbe-van_ak.UPF
     MD5 check sum: 783ce7fe4c79b6a4916957118fed0856
     Pseudo is Ultrasoft, Zval =  6.0
     Generated by new atomic code, or converted to UPF format
     Using radial grid of  737 points,  4 beta functions with: 
                l(1) =   0
                l(2) =   0
                l(3) =   1
                l(4) =   1
     Q(r) pseudized with  8 coefficients,  rinner =    0.800   0.800   0.800


     PseudoPot. # 5 for Y  read from file:
     ./pseudo/Y.pbe-nsp-van.UPF
     MD5 check sum: 4412fed3ab108fed87a1b7d6a69a4a38
     Pseudo is Ultrasoft + core correction, Zval = 11.0
     Generated by new atomic code, or converted to UPF format
     Using radial grid of  885 points,  6 beta functions with: 
                l(1) =   0
                l(2) =   0
                l(3) =   1
                l(4) =   1
                l(5) =   2
                l(6) =   2
     Q(r) pseudized with  6 coefficients,  rinner =    1.200   1.200   1.200
                                                       1.200   1.200

     atomic species   valence    mass     pseudopotential
        Ba            10.00   137.32700     Ba( 1.00)
        Ca            10.00    40.07800     Ca( 1.00)
        Cu            11.00    63.54600     Cu( 1.00)
        O              6.00    15.99900     O ( 1.00)
        Y             11.00    88.90584     Y ( 1.00)

      4 Sym. Ops. (no inversion) found ( 2 have fractional translation)



   Cartesian axes

     site n.     atom                  positions (alat units)
         1           O   tau(   1) = (  -0.0008343   0.2387265  -0.0222443  )
         2           O   tau(   2) = (   0.5008340   0.2387265  -0.0222443  )
         3           Cu  tau(   3) = (   0.5017257   0.0000000   0.0109608  )
         4           Cu  tau(   4) = (  -0.0017260   0.0000000   0.0109608  )
         5           O   tau(   5) = (  -0.0028933   0.0000000   0.2506504  )
         6           O   tau(   6) = (   0.5028929   0.0000000   0.2506504  )
         7           Ba  tau(   7) = (   0.7499995   0.2387265   0.2749435  )
         8           Ba  tau(   8) = (   0.2499998   0.2387265   0.2755214  )
         9           Cu  tau(   9) = (   0.4980963   0.0000000   0.5208446  )
        10           Cu  tau(  10) = (   0.0019033   0.0000000   0.5208446  )
        11           O   tau(  11) = (   0.2499998   0.0000000   0.5341884  )
        12           O   tau(  12) = (   0.5083351   0.2387265   0.5569851  )
        13           O   tau(  13) = (  -0.0083354   0.2387265   0.5569851  )
        14           O   tau(  14) = (   0.7499995   0.0000000   0.5573831  )
        15           Ca  tau(  15) = (   0.2499998   0.2387265   0.7436937  )
        16           Y   tau(  16) = (   0.7499995   0.2387265   0.7469544  )
        17           O   tau(  17) = (  -0.0063798   0.2387265   0.9248530  )
        18           O   tau(  18) = (   0.5063794   0.2387265   0.9248530  )
        19           O   tau(  19) = (   0.7499995   0.0000000   0.9338544  )
        20           O   tau(  20) = (   0.2499998   0.0000000   0.9461329  )
        21           Cu  tau(  21) = (   0.0015717   0.0000000   0.9686860  )
        22           Cu  tau(  22) = (   0.4984280   0.0000000   0.9686860  )
        23           Ba  tau(  23) = (   0.2499998   0.2387265   1.2085224  )
        24           Ba  tau(  24) = (   0.7499995   0.2387265   1.2233294  )
        25           O   tau(  25) = (   0.0063772   0.0000000   1.2547537  )
        26           O   tau(  26) = (   0.4936224   0.0000000   1.2547537  )
        27           O   tau(  27) = (   0.5384045   0.2387265   1.4952521  )
        28           O   tau(  28) = (  -0.0384049   0.2387265   1.4952521  )
        29           Cu  tau(  29) = (   0.5006120   0.0000000   1.4952546  )
        30           Cu  tau(  30) = (  -0.0006123   0.0000000   1.4952546  )
        31           O   tau(  31) = (   0.4936212   0.0000000   1.9271078  )
        32           O   tau(  32) = (   0.0063785   0.0000000   1.9271078  )
        33           Ba  tau(  33) = (   0.7499995   0.2387265   1.9585371  )
        34           Ba  tau(  34) = (   0.2499998   0.2387265   1.9733467  )
        35           Cu  tau(  35) = (   0.4984280   0.0000000   2.2131780  )
        36           Cu  tau(  36) = (   0.0015717   0.0000000   2.2131780  )
        37           O   tau(  37) = (   0.2499998   0.0000000   2.2357361  )
        38           O   tau(  38) = (   0.7499995   0.0000000   2.2480058  )
        39           O   tau(  39) = (   0.5063781   0.2387265   2.2570109  )
        40           O   tau(  40) = (  -0.0063785   0.2387265   2.2570109  )
        41           Y   tau(  41) = (   0.7499995   0.2387265   2.4349045  )
        42           Ca  tau(  42) = (   0.2499998   0.2387265   2.4381741  )
        43           O   tau(  43) = (   0.7499995   0.0000000   2.6244719  )
        44           O   tau(  44) = (  -0.0083354   0.2387265   2.6248738  )
        45           O   tau(  45) = (   0.5083351   0.2387265   2.6248738  )
        46           O   tau(  46) = (   0.2499998   0.0000000   2.6476718  )
        47           Cu  tau(  47) = (   0.0019059   0.0000000   2.6610054  )
        48           Cu  tau(  48) = (   0.4980938   0.0000000   2.6610054  )
        49           Ba  tau(  49) = (   0.2499998   0.2387265   2.9063451  )
        50           Ba  tau(  50) = (   0.7499995   0.2387265   2.9068873  )
        51           O   tau(  51) = (  -0.0028895   0.0000000   2.9311944  )
        52           O   tau(  52) = (   0.5028891   0.0000000   2.9311944  )
        53           Cu  tau(  53) = (   0.5017844   0.0000000   3.1708789  )
        54           Cu  tau(  54) = (  -0.0017847   0.0000000   3.1708789  )
        55           O   tau(  55) = (   0.5008990   0.2387265   3.2040854  )
        56           O   tau(  56) = (  -0.0008994   0.2387265   3.2040854  )

     number of k points=    25  Gaussian smearing, width (Ry)=  0.0100
                       cart. coord. in units 2pi/alat
        k(    1) = (   0.0000000   0.0000000   0.0000000), wk =   0.0312500
        k(    2) = (   0.0000000   0.2618060   0.0000000), wk =   0.0625000
        k(    3) = (   0.0000000   0.5236121   0.0000000), wk =   0.0625000
        k(    4) = (   0.0000000   0.7854181   0.0000000), wk =   0.0625000
        k(    5) = (   0.0000000  -1.0472241   0.0000000), wk =   0.0312500
        k(    6) = (   0.1250000   0.0000000   0.0000000), wk =   0.0625000
        k(    7) = (   0.1250000   0.2618060   0.0000000), wk =   0.1250000
        k(    8) = (   0.1250000   0.5236121   0.0000000), wk =   0.1250000
        k(    9) = (   0.1250000   0.7854181   0.0000000), wk =   0.1250000
        k(   10) = (   0.1250000  -1.0472241   0.0000000), wk =   0.0625000
        k(   11) = (   0.2500000   0.0000000   0.0000000), wk =   0.0625000
        k(   12) = (   0.2500000   0.2618060   0.0000000), wk =   0.1250000
        k(   13) = (   0.2500000   0.5236121   0.0000000), wk =   0.1250000
        k(   14) = (   0.2500000   0.7854181   0.0000000), wk =   0.1250000
        k(   15) = (   0.2500000  -1.0472241   0.0000000), wk =   0.0625000
        k(   16) = (   0.3750000   0.0000000   0.0000000), wk =   0.0625000
        k(   17) = (   0.3750000   0.2618060   0.0000000), wk =   0.1250000
        k(   18) = (   0.3750000   0.5236121   0.0000000), wk =   0.1250000
        k(   19) = (   0.3750000   0.7854181   0.0000000), wk =   0.1250000
        k(   20) = (   0.3750000  -1.0472241   0.0000000), wk =   0.0625000
        k(   21) = (  -0.5000000   0.0000000   0.0000000), wk =   0.0312500
        k(   22) = (  -0.5000000   0.2618060   0.0000000), wk =   0.0625000
        k(   23) = (  -0.5000000   0.5236121   0.0000000), wk =   0.0625000
        k(   24) = (  -0.5000000   0.7854181   0.0000000), wk =   0.0625000
        k(   25) = (  -0.5000000  -1.0472241   0.0000000), wk =   0.0312500

     Dense  grid:  2940889 G-vectors     FFT dimensions: ( 128,  64, 750)

     Smooth grid:   566335 G-vectors     FFT dimensions: (  80,  36, 432)

     Estimated max dynamical RAM per process >     852.05 MB

     Estimated total dynamical RAM >      26.63 GB

     Initial potential from superposition of free atoms

     starting charge  455.69457, renormalised to  456.00000

     negative rho (up, down):  9.331E-02 0.000E+00
     Starting wfcs are  396 randomized atomic wfcs

     total cpu time spent up to now is       32.5 secs

     Self-consistent Calculation

     iteration #  1     ecut=    60.00 Ry     beta= 0.50
     Davidson diagonalization with overlap
     ethr =  1.00E-02,  avg # of iterations =  2.0

     negative rho (up, down):  8.622E-02 0.000E+00

     total cpu time spent up to now is       78.7 secs

     total energy              =   -3708.23927030 Ry
     Harris-Foulkes estimate   =   -3716.39138176 Ry
     estimated scf accuracy    <      30.95005795 Ry

     iteration #  2     ecut=    60.00 Ry     beta= 0.50
     Davidson diagonalization with overlap
     ethr =  6.79E-03,  avg # of iterations =  2.0

     negative rho (up, down):  8.595E-02 0.000E+00

     total cpu time spent up to now is      124.9 secs

     total energy              =   -3710.97136806 Ry
     Harris-Foulkes estimate   =   -3712.24992563 Ry
     estimated scf accuracy    <       6.33336891 Ry

     iteration #  3     ecut=    60.00 Ry     beta= 0.50
     Davidson diagonalization with overlap
     ethr =  1.39E-03,  avg # of iterations =  2.0

     negative rho (up, down):  8.634E-02 0.000E+00

     total cpu time spent up to now is      172.2 secs

     total energy              =   -3711.53175596 Ry
     Harris-Foulkes estimate   =   -3711.91459858 Ry
     estimated scf accuracy    <       8.85438915 Ry

     iteration #  4     ecut=    60.00 Ry     beta= 0.50
     Davidson diagonalization with overlap
     ethr =  1.39E-03,  avg # of iterations =  1.0

     negative rho (up, down):  8.720E-02 0.000E+00

     total cpu time spent up to now is      215.1 secs

     total energy              =   -3711.59561787 Ry
     Harris-Foulkes estimate   =   -3711.72267253 Ry
     estimated scf accuracy    <       1.80053963 Ry

     iteration #  5     ecut=    60.00 Ry     beta= 0.50
     Davidson diagonalization with overlap
     ethr =  3.95E-04,  avg # of iterations =  2.5

     negative rho (up, down):  8.823E-02 0.000E+00

     total cpu time spent up to now is      263.0 secs

     total energy              =   -3711.57715564 Ry
     Harris-Foulkes estimate   =   -3711.65378055 Ry
     estimated scf accuracy    <       1.05379594 Ry

     iteration #  6     ecut=    60.00 Ry     beta= 0.50
     Davidson diagonalization with overlap
     ethr =  2.31E-04,  avg # of iterations =  5.7

     negative rho (up, down):  8.932E-02 0.000E+00

     total cpu time spent up to now is      319.9 secs

     total energy              =   -3711.58009200 Ry
     Harris-Foulkes estimate   =   -3711.61601102 Ry
     estimated scf accuracy    <       1.61811760 Ry

     iteration #  7     ecut=    60.00 Ry     beta= 0.50
     Davidson diagonalization with overlap
     ethr =  2.31E-04,  avg # of iterations =  4.4

     negative rho (up, down):  9.023E-02 0.000E+00

     total cpu time spent up to now is      372.0 secs

     total energy              =   -3711.57546772 Ry
     Harris-Foulkes estimate   =   -3711.59335206 Ry
     estimated scf accuracy    <       0.61294789 Ry

     iteration #  8     ecut=    60.00 Ry     beta= 0.50
     Davidson diagonalization with overlap
     ethr =  1.34E-04,  avg # of iterations =  6.5

     negative rho (up, down):  9.053E-02 0.000E+00

     total cpu time spent up to now is      431.0 secs

     total energy              =   -3711.57845144 Ry
     Harris-Foulkes estimate   =   -3711.58519270 Ry
     estimated scf accuracy    <       0.44655342 Ry

     iteration #  9     ecut=    60.00 Ry     beta= 0.50
     Davidson diagonalization with overlap
     ethr =  9.79E-05,  avg # of iterations =  3.6

     negative rho (up, down):  9.066E-02 0.000E+00

     total cpu time spent up to now is      480.5 secs

     total energy              =   -3711.57296703 Ry
     Harris-Foulkes estimate   =   -3711.58112357 Ry
     estimated scf accuracy    <       0.24994746 Ry

     iteration # 10     ecut=    60.00 Ry     beta= 0.50
     Davidson diagonalization with overlap
     c_bands:  1 eigenvalues not converged
     ethr =  5.48E-05,  avg # of iterations =  8.0

     negative rho (up, down):  9.057E-02 0.000E+00

     total cpu time spent up to now is      542.9 secs

     total energy              =   -3711.56899923 Ry
     Harris-Foulkes estimate   =   -3711.57512249 Ry
     estimated scf accuracy    <       0.24552513 Ry

     iteration # 11     ecut=    60.00 Ry     beta= 0.50
     Davidson diagonalization with overlap
     ethr =  5.38E-05,  avg # of iterations =  1.9

     negative rho (up, down):  9.026E-02 0.000E+00

     total cpu time spent up to now is      587.4 secs

     total energy              =   -3711.56368307 Ry
     Harris-Foulkes estimate   =   -3711.57015203 Ry
     estimated scf accuracy    <       0.15280334 Ry

     iteration # 12     ecut=    60.00 Ry     beta= 0.50
     Davidson diagonalization with overlap
     ethr =  3.35E-05,  avg # of iterations =  7.0

     negative rho (up, down):  9.008E-02 0.000E+00

     total cpu time spent up to now is      646.8 secs

     total energy              =   -3711.56410623 Ry
     Harris-Foulkes estimate   =   -3711.56510318 Ry
     estimated scf accuracy    <       0.08497335 Ry

     iteration # 13     ecut=    60.00 Ry     beta= 0.50
     Davidson diagonalization with overlap
     ethr =  1.86E-05,  avg # of iterations =  4.0

     negative rho (up, down):  9.056E-02 0.000E+00

     total cpu time spent up to now is      696.2 secs

     total energy              =   -3711.56170900 Ry
     Harris-Foulkes estimate   =   -3711.56452050 Ry
     estimated scf accuracy    <       0.07388088 Ry

     iteration # 14     ecut=    60.00 Ry     beta= 0.50
     Davidson diagonalization with overlap
     ethr =  1.62E-05,  avg # of iterations =  3.6

     negative rho (up, down):  9.279E-02 0.000E+00

     total cpu time spent up to now is      745.1 secs

     total energy              =   -3711.56065158 Ry
     Harris-Foulkes estimate   =   -3711.56215197 Ry
     estimated scf accuracy    <       0.06501502 Ry

     iteration # 15     ecut=    60.00 Ry     beta= 0.50
     Davidson diagonalization with overlap
     ethr =  1.43E-05,  avg # of iterations =  1.8

     negative rho (up, down):  1.032E-01 0.000E+00

     total cpu time spent up to now is      789.2 secs

     total energy              =   -3711.55906687 Ry
     Harris-Foulkes estimate   =   -3711.56094368 Ry
     estimated scf accuracy    <       0.07573350 Ry

     iteration # 16     ecut=    60.00 Ry     beta= 0.50
     Davidson diagonalization with overlap
     ethr =  1.43E-05,  avg # of iterations =  7.4

     negative rho (up, down):  1.325E-01 0.000E+00

     total cpu time spent up to now is      850.7 secs

     total energy              =   -3711.55628043 Ry
     Harris-Foulkes estimate   =   -3711.55927663 Ry
     estimated scf accuracy    <       0.04062975 Ry

     iteration # 17     ecut=    60.00 Ry     beta= 0.50
     Davidson diagonalization with overlap
     ethr =  8.91E-06,  avg # of iterations =  9.4

     negative rho (up, down):  1.329E-01 0.000E+00

     total cpu time spent up to now is      924.3 secs

     total energy              =   -3711.55565842 Ry
     Harris-Foulkes estimate   =   -3711.55697155 Ry
     estimated scf accuracy    <       0.00826267 Ry

     iteration # 18     ecut=    60.00 Ry     beta= 0.50
     Davidson diagonalization with overlap
     c_bands:  2 eigenvalues not converged
     ethr =  1.81E-06,  avg # of iterations = 11.1

     negative rho (up, down):  1.205E-01 0.000E+00

     total cpu time spent up to now is      999.8 secs

     total energy              =   -3711.55513181 Ry
     Harris-Foulkes estimate   =   -3711.55581399 Ry
     estimated scf accuracy    <       0.00480176 Ry

     iteration # 19     ecut=    60.00 Ry     beta= 0.50
     Davidson diagonalization with overlap
     ethr =  1.05E-06,  avg # of iterations =  5.2

     negative rho (up, down):  1.099E-01 0.000E+00

     total cpu time spent up to now is     1053.3 secs

     total energy              =   -3711.55437189 Ry
     Harris-Foulkes estimate   =   -3711.55523398 Ry
     estimated scf accuracy    <       0.00346759 Ry

     iteration # 20     ecut=    60.00 Ry     beta= 0.50
     Davidson diagonalization with overlap
     ethr =  7.60E-07,  avg # of iterations =  7.7

     negative rho (up, down):  1.015E-01 0.000E+00

     total cpu time spent up to now is     1116.8 secs

     total energy              =   -3711.55421164 Ry
     Harris-Foulkes estimate   =   -3711.55447743 Ry
     estimated scf accuracy    <       0.00117606 Ry

     iteration # 21     ecut=    60.00 Ry     beta= 0.50
     Davidson diagonalization with overlap
     ethr =  2.58E-07,  avg # of iterations =  6.4

     negative rho (up, down):  9.684E-02 0.000E+00

     total cpu time spent up to now is     1174.6 secs

     total energy              =   -3711.55417208 Ry
     Harris-Foulkes estimate   =   -3711.55425661 Ry
     estimated scf accuracy    <       0.00077009 Ry

     iteration # 22     ecut=    60.00 Ry     beta= 0.50
     Davidson diagonalization with overlap
     ethr =  1.69E-07,  avg # of iterations =  2.1

     negative rho (up, down):  9.183E-02 0.000E+00

     total cpu time spent up to now is     1220.3 secs

     total energy              =   -3711.55424629 Ry
     Harris-Foulkes estimate   =   -3711.55419855 Ry
     estimated scf accuracy    <       0.00023999 Ry

     iteration # 23     ecut=    60.00 Ry     beta= 0.50
     Davidson diagonalization with overlap
     c_bands:  1 eigenvalues not converged
     c_bands:  1 eigenvalues not converged
     c_bands:  2 eigenvalues not converged
     c_bands:  1 eigenvalues not converged
     c_bands:  2 eigenvalues not converged
     ethr =  5.26E-08,  avg # of iterations = 11.1

     negative rho (up, down):  9.147E-02 0.000E+00

     total cpu time spent up to now is     1295.0 secs

     total energy              =   -3711.55427737 Ry
     Harris-Foulkes estimate   =   -3711.55425434 Ry
     estimated scf accuracy    <       0.00007489 Ry

     iteration # 24     ecut=    60.00 Ry     beta= 0.50
     Davidson diagonalization with overlap
     c_bands:  1 eigenvalues not converged
     ethr =  1.64E-08,  avg # of iterations =  5.2

     negative rho (up, down):  9.141E-02 0.000E+00

     total cpu time spent up to now is     1349.0 secs

     total energy              =   -3711.55429139 Ry
     Harris-Foulkes estimate   =   -3711.55427942 Ry
     estimated scf accuracy    <       0.00003058 Ry

     iteration # 25     ecut=    60.00 Ry     beta= 0.50
     Davidson diagonalization with overlap
     c_bands:  1 eigenvalues not converged
     ethr =  6.71E-09,  avg # of iterations =  5.1

     negative rho (up, down):  9.197E-02 0.000E+00

     total cpu time spent up to now is     1402.3 secs

     total energy              =   -3711.55429203 Ry
     Harris-Foulkes estimate   =   -3711.55429268 Ry
     estimated scf accuracy    <       0.00001364 Ry

     iteration # 26     ecut=    60.00 Ry     beta= 0.50
     Davidson diagonalization with overlap
     ethr =  2.99E-09,  avg # of iterations =  1.6

     negative rho (up, down):  9.201E-02 0.000E+00

     total cpu time spent up to now is     1445.8 secs

     total energy              =   -3711.55429226 Ry
     Harris-Foulkes estimate   =   -3711.55429300 Ry
     estimated scf accuracy    <       0.00003126 Ry

     iteration # 27     ecut=    60.00 Ry     beta= 0.50
     Davidson diagonalization with overlap
     ethr =  2.99E-09,  avg # of iterations =  1.0

     negative rho (up, down):  9.190E-02 0.000E+00

     total cpu time spent up to now is     1487.4 secs

     total energy              =   -3711.55429256 Ry
     Harris-Foulkes estimate   =   -3711.55429251 Ry
     estimated scf accuracy    <       0.00001043 Ry

     iteration # 28     ecut=    60.00 Ry     beta= 0.50
     Davidson diagonalization with overlap
     ethr =  2.29E-09,  avg # of iterations =  1.0

     negative rho (up, down):  9.200E-02 0.000E+00

     total cpu time spent up to now is     1530.0 secs

     total energy              =   -3711.55429243 Ry
     Harris-Foulkes estimate   =   -3711.55429275 Ry
     estimated scf accuracy    <       0.00000320 Ry

     iteration # 29     ecut=    60.00 Ry     beta= 0.50
     Davidson diagonalization with overlap
     ethr =  7.03E-10,  avg # of iterations =  1.3

     negative rho (up, down):  9.209E-02 0.000E+00

     total cpu time spent up to now is     1573.1 secs

     total energy              =   -3711.55429229 Ry
     Harris-Foulkes estimate   =   -3711.55429250 Ry
     estimated scf accuracy    <       0.00000103 Ry

     iteration # 30     ecut=    60.00 Ry     beta= 0.50
     Davidson diagonalization with overlap
     ethr =  2.27E-10,  avg # of iterations =  3.0

     negative rho (up, down):  9.212E-02 0.000E+00

     total cpu time spent up to now is     1624.4 secs

     total energy              =   -3711.55429230 Ry
     Harris-Foulkes estimate   =   -3711.55429234 Ry
     estimated scf accuracy    <       0.00000012 Ry

     iteration # 31     ecut=    60.00 Ry     beta= 0.50
     Davidson diagonalization with overlap
     ethr =  2.53E-11,  avg # of iterations =  3.7

     negative rho (up, down):  9.214E-02 0.000E+00

     total cpu time spent up to now is     1680.6 secs

     total energy              =   -3711.55429230 Ry
     Harris-Foulkes estimate   =   -3711.55429232 Ry
     estimated scf accuracy    <       0.00000011 Ry

     iteration # 32     ecut=    60.00 Ry     beta= 0.50
     Davidson diagonalization with overlap
     ethr =  2.33E-11,  avg # of iterations =  1.0

     negative rho (up, down):  9.213E-02 0.000E+00

     total cpu time spent up to now is     1722.3 secs

     total energy              =   -3711.55429230 Ry
     Harris-Foulkes estimate   =   -3711.55429230 Ry
     estimated scf accuracy    <       0.00000002 Ry

     iteration # 33     ecut=    60.00 Ry     beta= 0.50
     Davidson diagonalization with overlap
     ethr =  3.78E-12,  avg # of iterations =  1.3

     negative rho (up, down):  9.213E-02 0.000E+00

     total cpu time spent up to now is     1766.9 secs

     total energy              =   -3711.55429230 Ry
     Harris-Foulkes estimate   =   -3711.55429231 Ry
     estimated scf accuracy    <       0.00000001 Ry

     iteration # 34     ecut=    60.00 Ry     beta= 0.50
     Davidson diagonalization with overlap
     ethr =  2.29E-12,  avg # of iterations =  2.9

     negative rho (up, down):  9.213E-02 0.000E+00

     total cpu time spent up to now is     1815.5 secs

     End of self-consistent calculation

          k = 0.0000 0.0000 0.0000 ( 70809 PWs)   bands (ev):

   -38.2363 -38.1799 -35.8696 -35.8048 -22.9861 -22.9764 -22.8894 -22.8578
   -22.8481 -22.8130 -22.6470 -22.4028 -18.7095 -18.6610 -18.6091 -18.5539
   -18.2401 -18.1829 -17.2158 -17.1532 -17.0824 -17.0213 -16.9007 -16.8330
   -15.6143 -15.5761 -15.1584 -15.1413 -14.9338 -14.8298 -14.7639 -14.7625
   -14.7221 -14.6871 -14.6334 -14.6239 -14.6132 -14.5807 -14.4766 -14.4676
   -14.3001 -14.2623 -14.1878 -14.1616 -14.1526 -14.1520 -14.1462 -14.1372
   -14.1027 -14.0333 -13.9448 -13.8850 -13.0532 -12.5935  -8.2249  -8.2213
    -8.1912  -8.1168  -8.1052  -8.0535  -8.0353  -8.0260  -7.9206  -7.8972
    -7.8877  -7.8223  -7.8006  -7.7916  -7.7588  -7.6977  -7.6975  -7.6593
    -7.6497  -7.6445  -7.6277  -7.4653  -7.2513  -7.1465  -3.1630  -3.1429
    -3.0430  -2.9550  -2.3395  -2.3339  -2.2508  -2.2468  -2.2459  -2.2134
    -2.0980  -2.0499  -2.0442  -2.0165  -2.0079  -1.9668  -1.9522  -1.9202
    -1.8804  -1.8476  -1.8382  -1.7894  -1.7319  -1.6817  -1.5401  -1.5135
    -1.3476  -1.3038  -1.2862  -1.2691  -1.2007  -1.1353  -1.0991  -1.0865
    -1.0853  -1.0835  -1.0776  -1.0755  -1.0491  -1.0482  -0.9816  -0.9136
    -0.8599  -0.8536  -0.6054  -0.5619  -0.4992  -0.4326  -0.4219  -0.4145
    -0.4098  -0.4065  -0.3826  -0.3662  -0.3551  -0.3348  -0.3015  -0.2967
    -0.2952  -0.2952  -0.2727  -0.2347  -0.2093  -0.1403  -0.1307  -0.1204
    -0.1083  -0.1080  -0.0953  -0.0903  -0.0342  -0.0231  -0.0123   0.0098
     0.0116   0.0121   0.0142   0.0457   0.1096   0.1165   0.1435   0.1491
     0.1558   0.1675   0.2019   0.2358   0.2445   0.2589   0.3138   0.3543
     0.3947   0.4192   0.4204   0.4328   0.4389   0.4463   0.4500   0.4538
     0.6149   0.6394   0.7051   0.7729   0.7861   0.8239   0.8734   0.8841
     0.9011   0.9213   0.9246   0.9626   1.0462   1.0743   1.0894   1.1037
     1.1052   1.1119   1.1122   1.1214   1.1975   1.2200   1.2278   1.2621
     1.2681   1.2791   1.2923   1.3175   1.3534   1.3666   1.4445   1.4913
     1.5063   1.5370   1.6034   1.6093   1.6256   1.6758   1.6809   1.6824
     1.7257   1.7367   1.7544   1.7879   1.8352   1.9454   1.9566   2.0333
     2.1194   2.1234   2.2507   2.2883   2.2973   2.3628   2.3650   2.4644
     2.4702   2.4994   2.5173   2.5432   2.7510   2.7956   4.9455   5.1233
     5.1524   5.7994   5.9050   6.4924   6.5190   6.6253   6.7902   6.8836
     7.1178   7.1637   7.1742   7.2599   7.2665   7.4224   7.4808   7.8686
     7.9418   7.9863   8.0386   8.0400   8.1383   8.3412   8.3796   8.3982
     8.4619   8.5054   8.5426   8.6834   8.8939   8.9808   9.0492   9.0585
     9.1935   9.2328

          k = 0.0000 0.2618 0.0000 ( 70825 PWs)   bands (ev):

   -38.2336 -38.1772 -35.8679 -35.8031 -22.9616 -22.9518 -22.8704 -22.8387
   -22.8290 -22.7893 -22.6280 -22.3823 -18.6709 -18.6222 -18.6018 -18.5466
   -18.3508 -18.2942 -17.1864 -17.1237 -17.0780 -17.0169 -16.9666 -16.8991
   -15.5082 -15.4703 -15.1026 -15.0854 -14.8803 -14.7917 -14.7582 -14.7182
   -14.7181 -14.6207 -14.6041 -14.5970 -14.5504 -14.5480 -14.4420 -14.4324
   -14.2949 -14.2584 -14.2491 -14.2083 -14.1674 -14.1414 -14.1394 -14.1341
   -14.1298 -14.0697 -13.9366 -13.9257 -13.0071 -12.6571  -8.2181  -8.2111
    -8.1865  -8.1295  -8.1184  -8.0654  -7.9916  -7.9824  -7.9399  -7.9325
    -7.9301  -7.9233  -7.9120  -7.8664  -7.8570  -7.8177  -7.7699  -7.7581
    -7.7439  -7.7243  -7.6785  -7.6756  -7.3353  -7.2694  -3.2719  -3.2399
    -3.0980  -3.0104  -2.4655  -2.4532  -2.4221  -2.3560  -2.3529  -2.3467
    -2.2290  -2.2228  -2.2053  -2.1631  -2.0951  -2.0435  -1.9657  -1.9329
    -1.8902  -1.8780  -1.8458  -1.8176  -1.7893  -1.7705  -1.6600  -1.6166
    -1.6093  -1.5943  -1.5336  -1.5231  -1.5229  -1.5007  -1.4991  -1.4903
    -1.4502  -1.3761  -1.1679  -1.0233  -0.9882  -0.9502  -0.8839  -0.8700
    -0.8156  -0.7475  -0.7358  -0.7275  -0.6720  -0.6626  -0.5124  -0.5063
    -0.4816  -0.4611  -0.4456  -0.4356  -0.4183  -0.4036  -0.3589  -0.3388
    -0.3301  -0.3110  -0.2582  -0.2531  -0.1692  -0.1551  -0.1347  -0.1020
    -0.0950  -0.0776  -0.0363  -0.0154  -0.0094   0.0378   0.0396   0.0474
     0.0593   0.0774   0.0787   0.0825   0.1294   0.1741   0.1783   0.1846
     0.2078   0.2173   0.2295   0.2633   0.2767   0.2870   0.3007   0.3198
     0.3258   0.3424   0.3568   0.3768   0.5187   0.5527   0.5597   0.6335
     0.6358   0.6574   0.7213   0.7389   0.8285   0.8462   0.8588   0.8949
     0.9605   1.0221   1.0381   1.0533   1.0848   1.0964   1.1027   1.1129
     1.1662   1.1817   1.1995   1.2002   1.2326   1.2528   1.2780   1.2903
     1.3572   1.3754   1.3890   1.3995   1.4155   1.4225   1.4412   1.5508
     1.5662   1.5851   1.6167   1.6306   1.6409   1.6529   1.6981   1.7239
     1.7300   1.7355   1.7613   1.8035   1.8035   1.8907   1.9433   2.0028
     2.2206   2.2467   2.4920   2.5131   2.6307   2.6817   2.7005   2.7390
     2.7719   2.7805   2.8266   2.8495   3.0354   3.0598   5.2416   5.5011
     5.5107   6.0735   6.1559   6.7639   6.8333   6.8406   6.9854   6.9992
     7.0102   7.1514   7.2814   7.4606   7.5120   7.6271   7.6398   7.6774
     7.6964   8.0531   8.1131   8.2311   8.3050   8.5439   8.5825   8.6138
     8.6186   8.6729   8.7604   8.8039   9.0509   9.0896   9.1034   9.1978
     9.2211   9.2389

          k = 0.0000 0.5236 0.0000 ( 70701 PWs)   bands (ev):

   -38.2271 -38.1707 -35.8638 -35.7990 -22.9010 -22.8912 -22.8237 -22.7918
   -22.7822 -22.7308 -22.5813 -22.3317 -18.5915 -18.5843 -18.5707 -18.5357
   -18.5290 -18.5216 -17.1198 -17.1029 -17.0676 -17.0525 -17.0403 -17.0064
   -15.2668 -15.2310 -14.9557 -14.9379 -14.8095 -14.7747 -14.7504 -14.6993
   -14.6305 -14.5968 -14.5894 -14.4988 -14.4029 -14.3914 -14.3815 -14.3580
   -14.3466 -14.3224 -14.2707 -14.2503 -14.2333 -14.1462 -14.1269 -14.1149
   -14.0885 -14.0786 -14.0034 -13.9312 -12.8894 -12.8064  -8.4048  -8.3952
    -8.2451  -8.2359  -8.2142  -8.1814  -8.1756  -8.1654  -8.1105  -8.1002
    -8.0730  -8.0577  -8.0356  -8.0038  -7.9944  -7.9192  -7.8842  -7.8748
    -7.8654  -7.8213  -7.7097  -7.6520  -7.4303  -7.4099  -3.6763  -3.6275
    -3.3364  -3.2528  -2.9601  -2.9392  -2.8117  -2.7507  -2.5798  -2.5685
    -2.4853  -2.4426  -2.3867  -2.3804  -2.3723  -2.3460  -2.3394  -2.2557
    -2.2020  -2.1950  -2.1917  -2.1847  -2.1099  -2.0729  -1.9596  -1.9246
    -1.8970  -1.8941  -1.8252  -1.7777  -1.7560  -1.7525  -1.7072  -1.7053
    -1.3685  -1.3227  -1.2407  -1.1182  -1.1075  -1.0787  -1.0255  -0.9809
    -0.9536  -0.9444  -0.9156  -0.9067  -0.7732  -0.7642  -0.7572  -0.7220
    -0.6885  -0.6800  -0.6798  -0.6596  -0.6246  -0.6173  -0.5745  -0.5485
    -0.5370  -0.5030  -0.4751  -0.4535  -0.4464  -0.3884  -0.3791  -0.3746
    -0.3014  -0.2266  -0.1916  -0.1737  -0.0880  -0.0520   0.0118   0.0245
     0.0958   0.0971   0.1258   0.1512   0.1946   0.2033   0.2113   0.2319
     0.2797   0.2913   0.3052   0.3913   0.4912   0.5244   0.5347   0.5510
     0.6533   0.7079   0.7111   0.7282   0.7441   0.9061   0.9336   0.9369
     0.9505   0.9612   0.9674   0.9949   1.0661   1.0947   1.1347   1.1453
     1.1572   1.1621   1.1626   1.1884   1.1898   1.2629   1.2640   1.2793
     1.2905   1.3164   1.3190   1.3419   1.3596   1.3789   1.3907   1.4580
     1.4741   1.5092   1.5504   1.5619   1.5734   1.6004   1.6055   1.6311
     1.7030   1.7036   1.7068   1.7104   1.7362   1.7606   1.7812   1.8181
     1.8261   1.8649   1.8858   1.9288   1.9667   1.9746   2.0512   2.0587
     2.1162   2.1498   2.4311   2.6177   2.9411   2.9510   2.9856   3.0214
     3.0585   3.0623   3.6929   3.7112   3.7811   3.8101   5.7198   6.3994
     6.4066   6.5162   6.5252   6.7621   6.8341   6.8558   6.9377   7.0060
     7.6895   7.7035   7.7924   7.8307   8.0298   8.0548   8.1717   8.3100
     8.3233   8.4698   8.4903   8.5431   8.5704   8.6058   8.6268   8.7809
     8.8464   8.8974   8.9032   8.9978   9.0871   9.1849   9.2187   9.3208
     9.3264   9.3319

          k = 0.0000 0.7854 0.0000 ( 70706 PWs)   bands (ev):

   -38.2205 -38.1642 -35.8597 -35.7948 -22.8387 -22.8289 -22.7762 -22.7439
   -22.7342 -22.6708 -22.5335 -22.2799 -18.7996 -18.7443 -18.5669 -18.5115
   -18.4657 -18.4161 -17.2414 -17.1739 -17.0573 -17.0301 -16.9960 -16.9678
   -15.0359 -15.0153 -14.9244 -14.8770 -14.7815 -14.7606 -14.7151 -14.6633
   -14.6326 -14.6131 -14.5437 -14.4326 -14.4274 -14.4029 -14.3067 -14.2784
   -14.2768 -14.2627 -14.2288 -14.2186 -14.2004 -14.1369 -14.0740 -14.0625
   -14.0523 -14.0425 -14.0321 -13.9686 -12.9478 -12.7607  -8.7998  -8.7903
    -8.5997  -8.5402  -8.5309  -8.4241  -8.3182  -8.1851  -8.1837  -8.1760
    -8.1454  -8.1164  -8.1049  -8.0766  -8.0730  -8.0635  -7.9264  -7.8370
    -7.7537  -7.7443  -7.7341  -7.5396  -7.5063  -7.3649  -4.1625  -4.1137
    -3.7402  -3.6621  -3.3632  -3.3460  -3.1766  -3.1106  -2.9613  -2.9528
    -2.9236  -2.8950  -2.8865  -2.8212  -2.7195  -2.7125  -2.6139  -2.5633
    -2.4778  -2.4375  -2.3088  -2.3043  -2.2418  -2.2377  -2.0183  -1.9668
    -1.9382  -1.9229  -1.9177  -1.8923  -1.7935  -1.7630  -1.6246  -1.5892
    -1.5776  -1.3430  -1.3417  -1.3043  -1.2522  -1.1925  -1.1864  -1.1417
    -1.1225  -1.1134  -1.0720  -1.0671  -1.0298  -0.9878  -0.9795  -0.9125
    -0.9015  -0.8911  -0.8726  -0.8451  -0.8365  -0.8242  -0.8240  -0.7988
    -0.7209  -0.7026  -0.6953  -0.6838  -0.6749  -0.6430  -0.5339  -0.3134
    -0.3061  -0.2353  -0.2143  -0.2070  -0.1624  -0.1010  -0.0999   0.0591
     0.0994   0.1177   0.1319   0.1378   0.1663   0.2026   0.2083   0.2310
     0.3639   0.3993   0.4321   0.4763   0.6961   0.6985   0.7684   0.8036
     0.8656   0.9019   0.9474   0.9509   0.9613   0.9720   1.0820   1.1107
     1.1265   1.1608   1.1743   1.1839   1.1963   1.2202   1.2283   1.2764
     1.2878   1.2940   1.3377   1.3708   1.4417   1.4687   1.4776   1.4801
     1.5087   1.5852   1.5921   1.5948   1.5971   1.6259   1.6328   1.6401
     1.6548   1.6984   1.7031   1.7215   1.7421   1.7427   1.7706   1.7877
     1.7915   1.8336   1.8536   1.8686   1.9023   1.9083   1.9250   2.0012
     2.0459   2.1238   2.1458   2.1535   2.1548   2.1634   2.2736   2.3709
     2.3790   2.4596   2.4617   2.5518   2.7914   2.8411   2.8811   2.9398
     3.0271   3.0839   4.3242   4.3512   4.3902   4.4068   5.7726   5.9873
     5.9939   6.5806   6.6685   7.1592   7.3238   7.3355   7.6585   7.7155
     8.1313   8.1728   8.3033   8.3555   8.3763   8.4607   8.4943   8.6178
     8.6607   8.7038   8.7613   8.7815   8.8385   8.8982   8.9223   9.0304
     9.1079   9.1094   9.1774   9.2089   9.2667   9.3244   9.3308   9.4429
     9.5150   9.5359

          k = 0.0000-1.0472 0.0000 ( 70762 PWs)   bands (ev):

   -38.2178 -38.1615 -35.8580 -35.7931 -22.8123 -22.8025 -22.7562 -22.7237
   -22.7140 -22.6454 -22.5133 -22.2579 -18.8801 -18.8250 -18.5597 -18.5042
   -18.4185 -18.3687 -17.2918 -17.2243 -17.0530 -16.9945 -16.9917 -16.9321
   -15.0374 -15.0159 -14.8580 -14.8265 -14.7902 -14.7219 -14.6914 -14.6626
   -14.6020 -14.5958 -14.5922 -14.4434 -14.4163 -14.3266 -14.2879 -14.2727
   -14.2532 -14.2363 -14.2309 -14.2012 -14.1338 -14.0739 -14.0679 -14.0435
   -14.0327 -14.0253 -14.0241 -14.0141 -13.0036 -12.7034  -8.9531  -8.9435
    -8.7536  -8.6590  -8.6497  -8.5633  -8.4233  -8.3056  -8.1910  -8.1821
    -8.1370  -8.1106  -8.1005  -8.0979  -8.0912  -8.0854  -7.9552  -7.8290
    -7.7441  -7.7011  -7.6916  -7.5285  -7.4904  -7.3336  -4.3643  -4.3166
    -3.9265  -3.8499  -3.5177  -3.5025  -3.3264  -3.2562  -3.1960  -3.1866
    -3.1327  -3.1251  -3.1165  -3.0377  -2.7480  -2.7411  -2.6346  -2.6032
    -2.5810  -2.5628  -2.3310  -2.3268  -2.2289  -2.2250  -2.0797  -2.0360
    -2.0302  -1.9943  -1.9358  -1.8902  -1.7151  -1.7068  -1.6795  -1.4650
    -1.4420  -1.4194  -1.4182  -1.4100  -1.3358  -1.3002  -1.2941  -1.2441
    -1.1783  -1.1764  -1.1536  -1.1472  -1.1453  -1.1388  -1.0208  -0.9976
    -0.9868  -0.9626  -0.9439  -0.9369  -0.9340  -0.9252  -0.9048  -0.8960
    -0.7980  -0.7916  -0.7842  -0.7808  -0.6471  -0.6365  -0.5807  -0.2774
    -0.2700  -0.2081  -0.2075  -0.2069  -0.1885  -0.1597  -0.1317  -0.1113
     0.0886   0.1127   0.1253   0.1661   0.1754   0.1887   0.2019   0.2380
     0.3949   0.4520   0.4927   0.4971   0.7664   0.7741   0.7913   0.8848
     0.9176   0.9571   0.9689   0.9874   1.0757   1.0791   1.0894   1.1325
     1.1372   1.1958   1.2431   1.2571   1.2673   1.2697   1.2720   1.2816
     1.2920   1.3268   1.3466   1.3677   1.5042   1.5286   1.5428   1.5634
     1.6068   1.6344   1.6358   1.6510   1.6916   1.7312   1.7885   1.7897
     1.7981   1.8265   1.8292   1.8318   1.8551   1.8814   1.8820   1.8993
     1.9041   1.9610   2.0061   2.0304   2.0679   2.0882   2.1072   2.1176
     2.1285   2.1287   2.2395   2.3360   2.3501   2.3579   2.3802   2.3811
     2.5342   2.5424   2.5528   2.6102   2.6213   2.6240   2.7103   2.7790
     2.9098   3.0143   4.5208   4.5509   4.6101   4.6239   5.6880   5.7478
     5.7546   6.4597   6.5603   7.5644   7.7249   7.7338   7.9390   8.0770
     8.1020   8.2416   8.2677   8.3010   8.3058   8.5063   8.6999   8.7038
     8.7695   8.7886   8.7971   8.8710   9.0211   9.0260   9.0714   9.1101
     9.1364   9.1461   9.1840   9.2586   9.2647   9.4149   9.4570   9.6061
     9.6318   9.6660

          k = 0.1250 0.0000 0.0000 ( 70775 PWs)   bands (ev):

   -38.2363 -38.1799 -35.8697 -35.8048 -22.9817 -22.9719 -22.8887 -22.8626
   -22.8529 -22.8099 -22.6504 -22.4037 -18.7088 -18.6603 -18.6059 -18.5506
   -18.2401 -18.1829 -17.2188 -17.1562 -17.0943 -17.0335 -16.9007 -16.8330
   -15.5867 -15.5484 -15.1428 -15.1265 -14.9257 -14.8214 -14.7779 -14.7519
   -14.7344 -14.7245 -14.6813 -14.6328 -14.6210 -14.5883 -14.4540 -14.4363
   -14.2922 -14.2560 -14.1896 -14.1628 -14.1547 -14.1546 -14.1476 -14.1387
   -14.1083 -14.0373 -13.9498 -13.8848 -13.0372 -12.6123  -8.2271  -8.2228
    -8.1921  -8.1210  -8.1096  -8.0579  -8.0214  -8.0122  -7.9331  -7.8889
    -7.8794  -7.8072  -7.8039  -7.7981  -7.7627  -7.6902  -7.6884  -7.6686
    -7.6591  -7.6452  -7.6253  -7.4738  -7.2551  -7.1495  -3.1283  -3.1080
    -3.0099  -2.9215  -2.3360  -2.3299  -2.2702  -2.2653  -2.2420  -2.2098
    -2.1272  -2.0680  -2.0478  -2.0252  -2.0144  -1.9726  -1.9684  -1.9350
    -1.8884  -1.8548  -1.8524  -1.8295  -1.7134  -1.6618  -1.5814  -1.5530
    -1.3207  -1.2823  -1.2446  -1.2151  -1.2016  -1.1297  -1.1271  -1.0838
    -1.0825  -1.0752  -1.0743  -1.0721  -1.0608  -1.0231  -0.9409  -0.8655
    -0.8399  -0.8336  -0.5835  -0.5566  -0.5044  -0.4911  -0.4643  -0.4297
    -0.4091  -0.3894  -0.3800  -0.3715  -0.3507  -0.3490  -0.3484  -0.3220
    -0.3144  -0.3140  -0.2984  -0.2713  -0.2693  -0.1528  -0.1407  -0.1188
    -0.1150  -0.1063  -0.1028  -0.0836  -0.0609  -0.0480   0.0065   0.0197
     0.0456   0.0557   0.0567   0.0626   0.1113   0.1182   0.1342   0.1477
     0.1549   0.2022   0.2080   0.2477   0.2656   0.2699   0.3167   0.3638
     0.3965   0.4136   0.4155   0.4318   0.4432   0.4551   0.4555   0.4696
     0.5986   0.6178   0.7040   0.7764   0.7790   0.7968   0.8256   0.8340
     0.9025   0.9221   0.9524   0.9665   1.0034   1.0325   1.0388   1.0649
     1.0695   1.1015   1.1209   1.1429   1.1547   1.1614   1.2492   1.2758
     1.2843   1.3207   1.3373   1.3519   1.3714   1.3927   1.4363   1.4805
     1.5499   1.5958   1.6172   1.6245   1.6336   1.6782   1.6937   1.7117
     1.7170   1.7172   1.7634   1.8109   1.8252   1.9321   1.9439   2.0190
     2.1088   2.1153   2.2599   2.2891   2.3019   2.3205   2.3847   2.4368
     2.4776   2.5064   2.5177   2.5464   2.7454   2.7903   4.9955   5.1720
     5.1946   5.8502   5.9490   6.5199   6.5709   6.5806   6.7256   6.8004
     6.8077   6.8815   7.3516   7.4031   7.5000   7.6289   7.6376   7.8259
     7.9119   7.9875   8.0363   8.0412   8.1759   8.3207   8.3624   8.4718
     8.5085   8.5483   8.5787   8.6076   8.8211   8.9537   9.0436   9.0687
     9.2089   9.2472

          k = 0.1250 0.2618 0.0000 ( 70783 PWs)   bands (ev):

   -38.2336 -38.1772 -35.8680 -35.8031 -22.9573 -22.9475 -22.8697 -22.8432
   -22.8335 -22.7863 -22.6312 -22.3831 -18.6702 -18.6215 -18.5986 -18.5434
   -18.3508 -18.2942 -17.1892 -17.1266 -17.0894 -17.0285 -16.9665 -16.8990
   -15.4813 -15.4434 -15.0888 -15.0726 -14.8735 -14.7841 -14.7646 -14.7245
   -14.7131 -14.6448 -14.6228 -14.6095 -14.6070 -14.5575 -14.4159 -14.3954
   -14.2880 -14.2534 -14.2503 -14.2110 -14.1713 -14.1429 -14.1419 -14.1348
   -14.1316 -14.0725 -13.9492 -13.9161 -12.9945 -12.6708  -8.2200  -8.2124
    -8.1871  -8.1354  -8.1245  -8.0695  -8.0476  -8.0382  -7.9749  -7.9656
    -7.9250  -7.8769  -7.8675  -7.8413  -7.8199  -7.8106  -7.7962  -7.7861
    -7.7646  -7.6794  -7.6620  -7.6442  -7.3221  -7.2568  -3.2360  -3.2038
    -3.0622  -2.9747  -2.4746  -2.4615  -2.4248  -2.3579  -2.3452  -2.3382
    -2.2389  -2.2305  -2.2070  -2.1673  -2.1112  -2.0602  -1.9856  -1.9454
    -1.9073  -1.9014  -1.8940  -1.8582  -1.8083  -1.7593  -1.6460  -1.6080
    -1.5997  -1.5918  -1.5273  -1.5182  -1.5032  -1.4926  -1.4918  -1.4696
    -1.4277  -1.3528  -1.1612  -1.0227  -1.0022  -0.9599  -0.8714  -0.8534
    -0.8001  -0.7776  -0.7450  -0.7325  -0.6945  -0.6853  -0.5578  -0.5400
    -0.4878  -0.4743  -0.4737  -0.4509  -0.4504  -0.4227  -0.3976  -0.3415
    -0.2841  -0.2766  -0.2390  -0.2370  -0.1734  -0.1573  -0.1274  -0.1059
    -0.0998  -0.0880  -0.0478  -0.0319  -0.0304   0.0247   0.0438   0.0504
     0.0578   0.0638   0.0956   0.1040   0.1363   0.1711   0.1777   0.1862
     0.1926   0.2253   0.2431   0.2726   0.2786   0.2867   0.3016   0.3113
     0.3496   0.3558   0.3751   0.3806   0.5311   0.5360   0.5397   0.6224
     0.6510   0.6604   0.7359   0.7553   0.8173   0.8379   0.8744   0.9255
     0.9679   0.9835   1.0080   1.0556   1.0789   1.0982   1.1109   1.1137
     1.1262   1.1646   1.1765   1.1832   1.2111   1.2575   1.2840   1.2937
     1.2961   1.3019   1.3868   1.4046   1.4176   1.4750   1.4949   1.5408
     1.5653   1.6038   1.6065   1.6162   1.6319   1.6587   1.6702   1.6871
     1.6895   1.7320   1.7519   1.8461   1.8798   1.9952   2.0461   2.0731
     2.1035   2.3600   2.4937   2.5239   2.6313   2.6793   2.6983   2.7386
     2.7733   2.7822   2.8255   2.8486   3.0274   3.0520   5.2738   5.5378
     5.5467   6.1130   6.1923   6.6290   6.8330   6.8406   6.8789   6.8966
     7.0201   7.2044   7.4480   7.4885   7.5505   7.6134   7.6820   7.7768
     7.8136   8.0561   8.1272   8.2238   8.3386   8.4835   8.5410   8.6522
     8.6678   8.7004   8.7413   8.8106   8.9941   9.0543   9.1086   9.1146
     9.1527   9.2200

          k = 0.1250 0.5236 0.0000 ( 70698 PWs)   bands (ev):

   -38.2271 -38.1707 -35.8638 -35.7990 -22.8973 -22.8875 -22.8232 -22.7958
   -22.7861 -22.7283 -22.5841 -22.3324 -18.5914 -18.5812 -18.5701 -18.5356
   -18.5259 -18.5211 -17.1212 -17.1041 -17.0777 -17.0544 -17.0410 -17.0166
   -15.2420 -15.2063 -14.9473 -14.9306 -14.8075 -14.7728 -14.7472 -14.6934
   -14.6307 -14.5970 -14.5900 -14.5012 -14.4532 -14.4377 -14.4014 -14.3581
   -14.3208 -14.2849 -14.2708 -14.2529 -14.2347 -14.1437 -14.1254 -14.1130
   -14.0900 -14.0800 -14.0031 -13.9320 -12.8858 -12.8090  -8.4385  -8.4291
    -8.2426  -8.2003  -8.1911  -8.1709  -8.1686  -8.1575  -8.1166  -8.1066
    -8.0923  -8.0725  -8.0627  -8.0520  -7.9887  -7.9106  -7.8997  -7.8659
    -7.8227  -7.8134  -7.7117  -7.6160  -7.4783  -7.3506  -3.6407  -3.5920
    -3.2992  -3.2156  -2.9707  -2.9483  -2.8140  -2.7531  -2.5742  -2.5631
    -2.4835  -2.4403  -2.3878  -2.3815  -2.3690  -2.3455  -2.3390  -2.2585
    -2.2027  -2.1957  -2.1906  -2.1837  -2.0772  -2.0402  -1.9878  -1.9434
    -1.9332  -1.8978  -1.8237  -1.7992  -1.7868  -1.7540  -1.7405  -1.6957
    -1.3744  -1.3299  -1.2506  -1.1258  -1.1200  -1.0840  -1.0341  -1.0074
    -0.9690  -0.9435  -0.9079  -0.8816  -0.8327  -0.8211  -0.8052  -0.7548
    -0.7459  -0.7112  -0.6774  -0.6454  -0.6224  -0.6107  -0.6010  -0.5537
    -0.5437  -0.4984  -0.4682  -0.4416  -0.4379  -0.3901  -0.3711  -0.3668
    -0.3011  -0.2252  -0.1928  -0.1682  -0.0432  -0.0139   0.0095   0.0312
     0.0564   0.0670   0.1276   0.1432   0.1776   0.2027   0.2122   0.2249
     0.3070   0.3175   0.3291   0.3886   0.5182   0.5369   0.5377   0.5719
     0.6428   0.7026   0.7269   0.7438   0.7583   0.8792   0.9214   0.9421
     0.9544   0.9762   0.9813   1.0042   1.0416   1.0553   1.0915   1.1028
     1.1253   1.1596   1.1761   1.2148   1.2225   1.2445   1.2490   1.2606
     1.2980   1.3095   1.3204   1.3450   1.3728   1.3784   1.4188   1.4541
     1.4634   1.5082   1.5271   1.5350   1.5748   1.5992   1.6240   1.6309
     1.6533   1.6843   1.6992   1.7180   1.7231   1.7277   1.7382   1.8149
     1.8187   1.8873   1.9256   1.9566   1.9662   2.0519   2.1267   2.1946
     2.2350   2.2754   2.4404   2.6352   2.9399   2.9527   2.9865   3.0228
     3.0536   3.0679   3.6602   3.6789   3.7532   3.7824   5.7366   6.4149
     6.4221   6.5233   6.5328   6.7615   6.8335   6.8746   6.9684   7.0308
     7.7384   7.7515   7.8038   7.8665   8.0484   8.0789   8.1546   8.2952
     8.3090   8.4118   8.4533   8.5164   8.5786   8.6168   8.6335   8.7672
     8.8422   8.8663   8.9598   9.0205   9.0994   9.1812   9.2311   9.2760
     9.2984   9.3505

          k = 0.1250 0.7854 0.0000 ( 70722 PWs)   bands (ev):

   -38.2205 -38.1642 -35.8597 -35.7948 -22.8355 -22.8257 -22.7758 -22.7472
   -22.7376 -22.6687 -22.5357 -22.2804 -18.7996 -18.7443 -18.5639 -18.5084
   -18.4651 -18.4156 -17.2414 -17.1739 -17.0666 -17.0322 -17.0055 -16.9699
   -15.0180 -14.9989 -14.9102 -14.8603 -14.7791 -14.7600 -14.7085 -14.6597
   -14.6356 -14.6132 -14.5445 -14.4319 -14.4278 -14.4112 -14.3185 -14.2989
   -14.2956 -14.2865 -14.2262 -14.2141 -14.1929 -14.1306 -14.0729 -14.0614
   -14.0503 -14.0434 -14.0328 -13.9705 -12.9411 -12.7682  -8.7901  -8.7805
    -8.5883  -8.4981  -8.4888  -8.4164  -8.2807  -8.1842  -8.1753  -8.1530
    -8.1453  -8.1204  -8.1168  -8.1099  -8.1063  -8.0758  -7.9639  -7.8404
    -7.7686  -7.7593  -7.7337  -7.5580  -7.5523  -7.3658  -4.1254  -4.0771
    -3.7053  -3.6276  -3.3788  -3.3603  -3.1847  -3.1184  -2.9587  -2.9503
    -2.9206  -2.8976  -2.8890  -2.8236  -2.7058  -2.6987  -2.6017  -2.5498
    -2.4485  -2.4089  -2.3105  -2.3058  -2.2408  -2.2366  -2.0108  -1.9589
    -1.9387  -1.9166  -1.9147  -1.8796  -1.8236  -1.7833  -1.7094  -1.6696
    -1.5541  -1.3656  -1.3356  -1.3273  -1.2596  -1.2111  -1.1812  -1.1553
    -1.1489  -1.1438  -1.1188  -1.0948  -1.0896  -1.0735  -0.9625  -0.9230
    -0.9161  -0.8839  -0.8829  -0.8488  -0.8354  -0.8225  -0.8180  -0.8081
    -0.7090  -0.7004  -0.6959  -0.6608  -0.6593  -0.6109  -0.5375  -0.3241
    -0.3180  -0.2436  -0.2140  -0.1853  -0.1028  -0.0484  -0.0346   0.0616
     0.0718   0.0740   0.1181   0.1551   0.1665   0.1976   0.2303   0.2347
     0.3561   0.4405   0.4689   0.4780   0.6723   0.7140   0.7716   0.7849
     0.8649   0.8973   0.9316   0.9611   0.9855   0.9948   1.0943   1.1064
     1.1334   1.1469   1.1564   1.1630   1.1919   1.2014   1.2255   1.2654
     1.2792   1.2931   1.3209   1.3611   1.4300   1.4416   1.4708   1.4750
     1.5168   1.5657   1.5739   1.5887   1.6044   1.6065   1.6457   1.6580
     1.6800   1.6973   1.7106   1.7223   1.7260   1.7547   1.7649   1.7865
     1.8233   1.8421   1.8767   1.8891   1.9165   1.9810   2.0100   2.0509
     2.0614   2.1453   2.1559   2.1637   2.1917   2.2665   2.2921   2.3162
     2.3627   2.3707   2.5391   2.5707   2.7933   2.8424   2.8819   2.9461
     3.0230   3.0901   4.2604   4.2870   4.3317   4.3494   5.8108   6.0423
     6.0491   6.6104   6.6961   7.1614   7.2913   7.3036   7.6471   7.7048
     8.0615   8.1967   8.2155   8.2776   8.3640   8.4844   8.4972   8.6203
     8.6807   8.7514   8.7666   8.8032   8.8605   8.9312   8.9497   9.0450
     9.0962   9.1466   9.2152   9.2243   9.3010   9.3101   9.3910   9.4485
     9.4807   9.5103

          k = 0.1250-1.0472 0.0000 ( 70790 PWs)   bands (ev):

   -38.2178 -38.1615 -35.8580 -35.7931 -22.8094 -22.7995 -22.7558 -22.7267
   -22.7171 -22.6436 -22.5153 -22.2584 -18.8801 -18.8249 -18.5567 -18.5012
   -18.4180 -18.3682 -17.2918 -17.2243 -17.0620 -17.0009 -16.9965 -16.9341
   -15.0263 -15.0047 -14.8340 -14.8024 -14.7848 -14.7230 -14.6782 -14.6496
   -14.6343 -14.6100 -14.5814 -14.4383 -14.4116 -14.3376 -14.2991 -14.2903
   -14.2677 -14.2486 -14.2303 -14.1968 -14.1311 -14.0803 -14.0683 -14.0430
   -14.0322 -14.0259 -14.0246 -14.0150 -12.9934 -12.7163  -8.9228  -8.9133
    -8.7249  -8.6285  -8.6192  -8.5360  -8.3947  -8.2787  -8.1872  -8.1784
    -8.1368  -8.1355  -8.1262  -8.1132  -8.1008  -8.0845  -7.9872  -7.8297
    -7.7449  -7.7439  -7.7352  -7.5570  -7.5313  -7.3710  -4.3261  -4.2790
    -3.8920  -3.8158  -3.5351  -3.5185  -3.3369  -3.2662  -3.1935  -3.1843
    -3.1303  -3.1278  -3.1193  -3.0399  -2.7314  -2.7242  -2.6190  -2.5764
    -2.5638  -2.5367  -2.3334  -2.3291  -2.2299  -2.2259  -2.0724  -2.0231
    -1.9961  -1.9591  -1.9460  -1.8917  -1.7746  -1.7035  -1.6253  -1.5661
    -1.5285  -1.5031  -1.4717  -1.4059  -1.3948  -1.3267  -1.2799  -1.2544
    -1.2374  -1.2359  -1.1693  -1.1624  -1.1586  -1.1276  -1.0246  -1.0168
    -0.9783  -0.9632  -0.9521  -0.9380  -0.9262  -0.9171  -0.9101  -0.8726
    -0.7988  -0.7906  -0.7874  -0.7499  -0.6532  -0.6086  -0.5562  -0.2906
    -0.2846  -0.2146  -0.2063  -0.1377  -0.1248  -0.1160  -0.0743  -0.0718
     0.0729   0.0751   0.1005   0.1526   0.1696   0.2035   0.2097   0.2279
     0.3870   0.4827   0.5024   0.5472   0.7320   0.8018   0.8190   0.8717
     0.8893   0.9472   0.9710   0.9939   1.0369   1.0866   1.0996   1.1285
     1.1386   1.1834   1.2110   1.2437   1.2740   1.2745   1.2862   1.2919
     1.2942   1.3251   1.3598   1.3890   1.4251   1.5093   1.5137   1.5455
     1.5915   1.6172   1.6983   1.7215   1.7343   1.7380   1.7749   1.8132
     1.8235   1.8272   1.8402   1.8505   1.8651   1.8814   1.8889   1.9023
     2.0167   2.0261   2.0353   2.0493   2.0693   2.0962   2.1095   2.1159
     2.1287   2.1366   2.2365   2.3350   2.3567   2.3647   2.3788   2.3955
     2.5270   2.5352   2.5574   2.5682   2.5785   2.6244   2.7146   2.7915
     2.9075   3.0215   4.4427   4.4727   4.5346   4.5493   5.7393   5.8157
     5.8228   6.4918   6.5902   7.5365   7.6320   7.6417   7.9546   8.0434
     8.0678   8.0851   8.1271   8.2291   8.3860   8.5131   8.7574   8.8137
     8.8348   8.8606   8.9063   8.9608   8.9833   9.0472   9.1075   9.1511
     9.1670   9.1929   9.2045   9.2746   9.3137   9.4302   9.4699   9.6176
     9.6482   9.7010

          k = 0.2500 0.0000 0.0000 ( 70721 PWs)   bands (ev):

   -38.2363 -38.1799 -35.8697 -35.8048 -22.9690 -22.9592 -22.8870 -22.8759
   -22.8663 -22.8017 -22.6593 -22.4059 -18.7070 -18.6585 -18.5980 -18.5426
   -18.2401 -18.1829 -17.2258 -17.1634 -17.1226 -17.0624 -16.9007 -16.8330
   -15.5125 -15.4742 -15.1040 -15.0902 -14.9210 -14.8152 -14.8116 -14.7928
   -14.7766 -14.7325 -14.7292 -14.6563 -14.6405 -14.6096 -14.4213 -14.3946
   -14.2728 -14.2407 -14.1934 -14.1680 -14.1600 -14.1585 -14.1525 -14.1423
   -14.1211 -14.0461 -13.9615 -13.8846 -12.9911 -12.6653  -8.2319  -8.2263
    -8.1940  -8.1284  -8.1172  -8.0682  -7.9884  -7.9792  -7.9540  -7.8653
    -7.8558  -7.8263  -7.8171  -7.7701  -7.7674  -7.6948  -7.6853  -7.6691
    -7.6687  -7.6481  -7.6196  -7.4971  -7.2645  -7.1567  -3.0276  -3.0070
    -2.9153  -2.8260  -2.3571  -2.3472  -2.3074  -2.3015  -2.2321  -2.2240
    -2.2006  -2.1341  -2.1013  -2.0651  -2.0418  -2.0086  -1.9783  -1.9336
    -1.9080  -1.8725  -1.8699  -1.8595  -1.6711  -1.6495  -1.6195  -1.6157
    -1.2662  -1.2502  -1.2052  -1.1622  -1.1481  -1.1296  -1.1061  -1.0811
    -1.0774  -1.0724  -1.0688  -1.0455  -0.9933  -0.9532  -0.8979  -0.8082
    -0.7810  -0.7749  -0.6294  -0.5739  -0.5426  -0.5261  -0.4690  -0.4618
    -0.4497  -0.4381  -0.4365  -0.4040  -0.3979  -0.3948  -0.3808  -0.3745
    -0.3729  -0.3673  -0.3377  -0.2937  -0.2623  -0.1738  -0.1603  -0.1385
    -0.1276  -0.1173  -0.1125  -0.0928  -0.0854  -0.0608  -0.0410   0.0338
     0.0715   0.1137   0.1205   0.1276   0.1318   0.1383   0.1394   0.1557
     0.1652   0.2316   0.2596   0.2712   0.2765   0.3106   0.3382   0.3703
     0.3964   0.4004   0.4013   0.4306   0.4568   0.4670   0.4676   0.4964
     0.5638   0.5771   0.7021   0.7328   0.7599   0.7705   0.7897   0.8476
     0.8712   0.8885   0.9055   0.9150   0.9212   0.9712   0.9891   0.9918
     1.0844   1.1125   1.1235   1.1588   1.1804   1.1912   1.2511   1.2671
     1.2988   1.3303   1.3364   1.4136   1.4192   1.4320   1.4527   1.4586
     1.5169   1.5689   1.6172   1.6200   1.6677   1.6681   1.6996   1.7080
     1.7110   1.7209   1.8920   1.8959   1.9141   1.9186   1.9319   1.9813
     2.0827   2.0941   2.2062   2.2747   2.3086   2.3262   2.3613   2.4188
     2.4968   2.5177   2.5294   2.5516   2.7241   2.7699   5.1262   5.3077
     5.3190   5.9919   6.0739   6.2514   6.4152   6.4218   6.7221   6.7463
     6.8614   7.0471   7.2749   7.3306   7.7255   7.8538   7.8675   7.9091
     7.9151   7.9904   8.0441   8.1344   8.2239   8.2757   8.2879   8.4091
     8.4967   8.6410   8.6799   8.6896   8.7561   8.8605   9.0263   9.1574
     9.1950   9.3211

          k = 0.2500 0.2618 0.0000 ( 70750 PWs)   bands (ev):

   -38.2336 -38.1772 -35.8680 -35.8031 -22.9453 -22.9355 -22.8681 -22.8559
   -22.8463 -22.7786 -22.6395 -22.3851 -18.6686 -18.6199 -18.5908 -18.5355
   -18.3508 -18.2942 -17.1960 -17.1335 -17.1164 -17.0561 -16.9663 -16.8988
   -15.4087 -15.3708 -15.0546 -15.0409 -14.8665 -14.7864 -14.7683 -14.7518
   -14.7293 -14.6960 -14.6810 -14.6413 -14.6232 -14.5758 -14.3829 -14.3537
   -14.2741 -14.2504 -14.2421 -14.2173 -14.1825 -14.1486 -14.1429 -14.1370
   -14.1365 -14.0776 -13.9660 -13.9067 -12.9580 -12.7095  -8.2264  -8.2177
    -8.1884  -8.1552  -8.1449  -8.1013  -8.0916  -8.0797  -8.0205  -8.0110
    -7.9620  -7.8692  -7.8339  -7.8187  -7.8034  -7.7943  -7.7835  -7.7606
    -7.7512  -7.6823  -7.6014  -7.5873  -7.2922  -7.2288  -3.1323  -3.0994
    -2.9607  -2.8731  -2.5122  -2.4953  -2.4392  -2.3668  -2.3251  -2.3169
    -2.2672  -2.2540  -2.2138  -2.1769  -2.1626  -2.1099  -2.0590  -2.0170
    -2.0044  -1.9639  -1.9248  -1.9007  -1.8059  -1.7483  -1.6218  -1.6041
    -1.5834  -1.5612  -1.5221  -1.5119  -1.5044  -1.4953  -1.4114  -1.3870
    -1.3531  -1.2803  -1.1399  -1.0280  -1.0259  -0.9751  -0.9014  -0.8565
    -0.8322  -0.7957  -0.7811  -0.7539  -0.7154  -0.7015  -0.6751  -0.6641
    -0.6002  -0.5709  -0.4771  -0.4570  -0.4317  -0.4064  -0.4038  -0.3411
    -0.2629  -0.2613  -0.2106  -0.1989  -0.1645  -0.1552  -0.1240  -0.1164
    -0.1114  -0.1020  -0.0859  -0.0744  -0.0530   0.0009   0.0377   0.0433
     0.0544   0.0587   0.0727   0.1184   0.1576   0.1778   0.1997   0.2193
     0.2266   0.2485   0.2542   0.2776   0.2782   0.2922   0.3054   0.3212
     0.3674   0.3928   0.3999   0.4383   0.4867   0.4974   0.5708   0.6093
     0.6430   0.6653   0.7545   0.7803   0.8067   0.8206   0.9134   0.9636
     0.9806   0.9965   1.0128   1.0261   1.0376   1.0524   1.0744   1.1019
     1.1038   1.1163   1.1417   1.1557   1.2085   1.2213   1.2275   1.2614
     1.3275   1.3350   1.3580   1.4006   1.4062   1.5225   1.5305   1.5498
     1.5606   1.5612   1.5675   1.5687   1.6126   1.6285   1.6336   1.6525
     1.6788   1.7039   1.7312   1.9017   1.9841   2.0601   2.1816   2.2442
     2.3122   2.4374   2.4969   2.5609   2.6282   2.6743   2.6894   2.7367
     2.7779   2.7876   2.8180   2.8419   2.9966   3.0217   5.3612   5.6440
     5.6519   6.2250   6.2943   6.3956   6.5515   6.5588   7.0383   7.0582
     7.1572   7.3315   7.3556   7.4020   7.7007   7.7167   7.8869   7.9675
     7.9794   8.0777   8.1323   8.2946   8.3859   8.4265   8.4429   8.5602
     8.6184   8.7259   8.8240   8.8475   8.8786   8.9915   9.0091   9.0667
     9.1206   9.1553

          k = 0.2500 0.5236 0.0000 ( 70690 PWs)   bands (ev):

   -38.2271 -38.1707 -35.8638 -35.7990 -22.8868 -22.8770 -22.8219 -22.8068
   -22.7972 -22.7218 -22.5911 -22.3341 -18.5913 -18.5736 -18.5688 -18.5354
   -18.5198 -18.5182 -17.1251 -17.1070 -17.1010 -17.0596 -17.0444 -17.0387
   -15.1745 -15.1394 -14.9282 -14.9146 -14.8030 -14.7683 -14.7426 -14.6775
   -14.6321 -14.6037 -14.5979 -14.5327 -14.5198 -14.5025 -14.4090 -14.3686
   -14.2967 -14.2868 -14.2654 -14.2569 -14.2226 -14.1339 -14.1216 -14.1081
   -14.0943 -14.0841 -14.0028 -13.9339 -12.8757 -12.8166  -8.4740  -8.4645
    -8.2720  -8.2209  -8.2114  -8.1845  -8.1768  -8.1678  -8.1216  -8.1175
    -8.1113  -8.0544  -8.0402  -8.0307  -8.0120  -7.9295  -7.8830  -7.8635
    -7.7756  -7.7663  -7.7159  -7.5805  -7.4751  -7.3087  -3.5400  -3.4918
    -3.1964  -3.1140  -3.0079  -2.9802  -2.8240  -2.7623  -2.5557  -2.5454
    -2.4748  -2.4289  -2.3930  -2.3865  -2.3606  -2.3433  -2.3367  -2.2658
    -2.2106  -2.2027  -2.1874  -2.1807  -2.0905  -2.0292  -2.0128  -1.9806
    -1.9631  -1.9393  -1.9339  -1.8634  -1.7435  -1.7144  -1.6987  -1.6727
    -1.4071  -1.3642  -1.2742  -1.1657  -1.1589  -1.1103  -1.0729  -1.0460
    -1.0397  -1.0145  -0.9964  -0.9615  -0.9442  -0.9271  -0.8463  -0.8138
    -0.7427  -0.7057  -0.6604  -0.6341  -0.6129  -0.5936  -0.5908  -0.5647
    -0.5299  -0.5089  -0.4820  -0.4226  -0.4131  -0.3977  -0.3654  -0.3408
    -0.3001  -0.2252  -0.1956  -0.1753  -0.1099  -0.0980   0.0074   0.0272
     0.0628   0.0931   0.1311   0.1601   0.2020   0.2264   0.2685   0.2804
     0.3385   0.3812   0.4049   0.4121   0.4819   0.5133   0.6151   0.6315
     0.6604   0.7020   0.7539   0.7728   0.7913   0.8415   0.8950   0.9310
     0.9479   0.9704   0.9715   0.9923   1.0143   1.0201   1.0379   1.0504
     1.1054   1.1228   1.1408   1.1473   1.1551   1.2618   1.2665   1.2900
     1.3199   1.3368   1.3682   1.3737   1.3788   1.3933   1.4142   1.4510
     1.4522   1.4884   1.5083   1.5340   1.5475   1.5706   1.5886   1.6147
     1.6236   1.6296   1.6417   1.6831   1.7220   1.7446   1.7585   1.7717
     1.8048   1.8188   1.9320   1.9389   2.0962   2.3414   2.3645   2.3975
     2.4488   2.4654   2.5634   2.7300   2.9372   2.9571   2.9885   3.0301
     3.0479   3.0774   3.5579   3.5776   3.6636   3.6940   5.7786   6.4552
     6.4626   6.5399   6.5502   6.7384   6.8763   6.9287   7.0236   7.0872
     7.8340   7.8791   7.8880   7.9560   8.0299   8.0887   8.2226   8.2372
     8.2692   8.2916   8.3226   8.5486   8.5820   8.6439   8.6819   8.7598
     8.8453   8.9051   8.9830   9.0445   9.1185   9.1685   9.1890   9.2185
     9.2599   9.3519

          k = 0.2500 0.7854 0.0000 ( 70730 PWs)   bands (ev):

   -38.2205 -38.1642 -35.8597 -35.7948 -22.8267 -22.8168 -22.7748 -22.7564
   -22.7468 -22.6634 -22.5413 -22.2816 -18.7995 -18.7442 -18.5565 -18.5010
   -18.4638 -18.4143 -17.2414 -17.1738 -17.0890 -17.0374 -17.0283 -16.9752
   -14.9738 -14.9578 -14.8662 -14.8104 -14.7848 -14.7697 -14.6879 -14.6471
   -14.6368 -14.6066 -14.5484 -14.4391 -14.4298 -14.4290 -14.3656 -14.3559
   -14.3333 -14.3182 -14.2202 -14.2016 -14.1856 -14.1259 -14.0696 -14.0581
   -14.0462 -14.0451 -14.0352 -13.9752 -12.9218 -12.7894  -8.7501  -8.7407
    -8.5470  -8.3889  -8.3849  -8.3796  -8.2472  -8.2378  -8.1836  -8.1682
    -8.1610  -8.1432  -8.1233  -8.1127  -8.0889  -8.0763  -8.0619  -7.8443
    -7.8247  -7.8154  -7.7336  -7.6343  -7.6174  -7.3983  -4.0220  -3.9755
    -3.6105  -3.5345  -3.4289  -3.4059  -3.2115  -3.1437  -2.9515  -2.9431
    -2.9125  -2.9047  -2.8962  -2.8301  -2.6620  -2.6542  -2.5612  -2.5042
    -2.3621  -2.3293  -2.3203  -2.3103  -2.2365  -2.2318  -2.0323  -1.9838
    -1.9619  -1.9214  -1.9082  -1.8911  -1.8593  -1.8416  -1.8131  -1.7710
    -1.5041  -1.5028  -1.4789  -1.3594  -1.3505  -1.3470  -1.3036  -1.2321
    -1.2022  -1.1805  -1.1736  -1.1463  -1.0852  -1.0693  -0.9556  -0.8875
    -0.8756  -0.8699  -0.8657  -0.8609  -0.8332  -0.8134  -0.7982  -0.7784
    -0.7188  -0.7075  -0.6698  -0.6424  -0.5983  -0.5836  -0.5431  -0.3591
    -0.3542  -0.2708  -0.2166  -0.1830  -0.1683  -0.1453   0.0377   0.0733
     0.1047   0.1177   0.1715   0.2133   0.2445   0.2715   0.2862   0.3278
     0.3482   0.4382   0.5644   0.5991   0.6026   0.6900   0.7612   0.8233
     0.8640   0.8707   0.8945   0.9603   1.0322   1.0570   1.0687   1.0719
     1.1007   1.1068   1.1506   1.1527   1.2038   1.2165   1.2206   1.2456
     1.2710   1.2720   1.3084   1.3218   1.3932   1.4151   1.4314   1.4626
     1.4787   1.5152   1.5432   1.5670   1.6064   1.6107   1.6413   1.6536
     1.6629   1.6860   1.7084   1.7198   1.7586   1.7706   1.7765   1.7899
     1.8065   1.8241   1.8501   1.8928   1.9072   2.0441   2.0653   2.1102
     2.1475   2.1807   2.1886   2.2960   2.3381   2.3455   2.3483   2.3817
     2.4353   2.5425   2.5630   2.6751   2.7996   2.8463   2.8922   2.9838
     3.0175   3.1101   4.0701   4.0962   4.1590   4.1792   5.9091   6.1979
     6.2054   6.6918   6.7729   7.1493   7.1823   7.2082   7.5936   7.6530
     7.9629   8.0798   8.1061   8.2230   8.3915   8.4897   8.5060   8.6112
     8.6861   8.7386   8.8251   8.8448   8.9026   9.0387   9.0792   9.1070
     9.1184   9.1837   9.2569   9.2891   9.3144   9.3730   9.4025   9.4649
     9.5423   9.5604

          k = 0.2500-1.0472 0.0000 ( 70692 PWs)   bands (ev):

   -38.2178 -38.1615 -35.8580 -35.7931 -22.8013 -22.7914 -22.7549 -22.7352
   -22.7255 -22.6388 -22.5203 -22.2595 -18.8800 -18.8249 -18.5494 -18.4938
   -18.4168 -18.3670 -17.2918 -17.2244 -17.0836 -17.0229 -17.0013 -16.9390
   -14.9944 -14.9724 -14.7769 -14.7686 -14.7371 -14.7361 -14.6787 -14.6425
   -14.6422 -14.6143 -14.5775 -14.4309 -14.4012 -14.3688 -14.3405 -14.3305
   -14.3004 -14.2986 -14.2131 -14.1850 -14.1295 -14.0984 -14.0690 -14.0414
   -14.0307 -14.0283 -14.0249 -14.0175 -12.9641 -12.7523  -8.8360  -8.8265
    -8.6430  -8.5397  -8.5304  -8.4628  -8.3122  -8.2337  -8.2244  -8.2034
    -8.1767  -8.1681  -8.1360  -8.1214  -8.1093  -8.0820  -8.0771  -7.8651
    -7.8557  -7.8313  -7.7427  -7.6429  -7.6330  -7.4715  -4.2200  -4.1749
    -3.7981  -3.7234  -3.5892  -3.5684  -3.3701  -3.2974  -3.1861  -3.1772
    -3.1356  -3.1270  -3.1238  -3.0460  -2.6789  -2.6709  -2.5677  -2.5071
    -2.4979  -2.4597  -2.3409  -2.3364  -2.2305  -2.2261  -2.0521  -2.0027
    -1.9896  -1.9010  -1.8958  -1.8785  -1.8166  -1.7788  -1.7753  -1.7507
    -1.7054  -1.6368  -1.5599  -1.5347  -1.5114  -1.4330  -1.3944  -1.3114
    -1.2486  -1.2252  -1.2064  -1.2048  -1.1052  -1.0742  -1.0158  -0.9692
    -0.9618  -0.9486  -0.9427  -0.9407  -0.9000  -0.8994  -0.8859  -0.8125
    -0.8083  -0.7983  -0.7661  -0.6761  -0.6651  -0.5869  -0.5523  -0.3342
    -0.3295  -0.2484  -0.2137  -0.1973  -0.1846  -0.1494   0.0444   0.0873
     0.0981   0.1268   0.1435   0.2230   0.2419   0.2456   0.2556   0.2772
     0.3657   0.4543   0.6402   0.6455   0.6836   0.7582   0.8784   0.8970
     0.9053   0.9352   0.9519   0.9945   1.0518   1.1041   1.1106   1.1253
     1.1439   1.1454   1.1526   1.2076   1.2472   1.2799   1.2827   1.2864
     1.2948   1.3044   1.3273   1.3368   1.4459   1.4847   1.5184   1.5350
     1.5579   1.5840   1.6607   1.6681   1.7063   1.7140   1.7521   1.7790
     1.7840   1.7993   1.8049   1.8224   1.8515   1.8560   1.9776   2.0103
     2.0425   2.0781   2.0895   2.1008   2.1044   2.1162   2.2148   2.2249
     2.2964   2.3266   2.3382   2.3729   2.3759   2.3840   2.4403   2.4530
     2.4549   2.5064   2.5146   2.5261   2.5752   2.6334   2.7536   2.8662
     2.9084   3.0459   4.2147   4.2442   4.3182   4.3357   5.8767   6.0079
     6.0155   6.5802   6.6730   7.3824   7.3909   7.4432   7.7853   7.8418
     7.9645   7.9952   8.1035   8.1923   8.4617   8.5317   8.8700   8.9037
     8.9589   8.9641   9.0619   9.0861   9.1012   9.1555   9.1732   9.2157
     9.2483   9.3014   9.3046   9.3693   9.4543   9.4660   9.5002   9.5520
     9.5917   9.6819

          k = 0.3750 0.0000 0.0000 ( 70812 PWs)   bands (ev):

   -38.2363 -38.1799 -35.8697 -35.8048 -22.9509 -22.9411 -22.8948 -22.8855
   -22.8850 -22.7923 -22.6693 -22.4081 -18.7053 -18.6568 -18.5899 -18.5345
   -18.2401 -18.1829 -17.2328 -17.1706 -17.1501 -17.0905 -16.9007 -16.8330
   -15.4167 -15.3791 -15.0848 -15.0670 -14.9476 -14.8753 -14.8393 -14.8058
   -14.7831 -14.7438 -14.7105 -14.6840 -14.6636 -14.6401 -14.4017 -14.3702
   -14.2535 -14.2259 -14.1958 -14.1767 -14.1640 -14.1621 -14.1587 -14.1468
   -14.1321 -14.0533 -13.9732 -13.8845 -12.9208 -12.7424  -8.2360  -8.2294
    -8.1954  -8.1339  -8.1230  -8.0779  -7.9691  -7.9482  -7.9391  -7.8551
    -7.8458  -7.8304  -7.8208  -7.7753  -7.7339  -7.7323  -7.7229  -7.6581
    -7.6466  -7.6399  -7.6136  -7.5286  -7.2747  -7.1641  -2.8715  -2.8517
    -2.7754  -2.6852  -2.4899  -2.4772  -2.3959  -2.2947  -2.2798  -2.2586
    -2.2212  -2.1907  -2.1703  -2.1610  -2.0339  -2.0013  -1.9711  -1.9291
    -1.9198  -1.8910  -1.8886  -1.8521  -1.7003  -1.6700  -1.6271  -1.5665
    -1.2467  -1.2120  -1.2078  -1.1631  -1.1082  -1.0788  -1.0752  -1.0703
    -1.0669  -1.0050  -0.9973  -0.9885  -0.9171  -0.8964  -0.8498  -0.8231
    -0.7603  -0.6954  -0.6890  -0.6224  -0.6063  -0.5827  -0.5598  -0.5319
    -0.5138  -0.4938  -0.4625  -0.4560  -0.4494  -0.4222  -0.4057  -0.3910
    -0.3833  -0.3601  -0.2910  -0.2862  -0.2540  -0.2217  -0.1876  -0.1691
    -0.1596  -0.1350  -0.1288  -0.1166  -0.0967  -0.0686  -0.0325   0.0292
     0.0387   0.1207   0.1273   0.1344   0.1410   0.1638   0.1861   0.2314
     0.2374   0.2488   0.2758   0.3057   0.3188   0.3284   0.3607   0.3734
     0.3819   0.3997   0.4161   0.4308   0.4471   0.4737   0.4890   0.5105
     0.5907   0.6075   0.6725   0.7034   0.7049   0.7351   0.7574   0.7650
     0.7791   0.7887   0.8534   0.9053   0.9092   0.9292   1.0370   1.0684
     1.0812   1.1474   1.1639   1.2104   1.2246   1.2331   1.2427   1.2487
     1.3171   1.3390   1.3441   1.3760   1.3874   1.4044   1.4084   1.4382
     1.4383   1.5061   1.5404   1.6053   1.6784   1.7134   1.7372   1.7521
     1.7852   1.7892   1.8475   1.8626   1.9362   1.9583   1.9881   2.0389
     2.0632   2.0949   2.1550   2.2585   2.2791   2.3218   2.3694   2.4616
     2.4929   2.5466   2.5499   2.5717   2.6803   2.7272   5.2908   5.5096
     5.5172   5.9485   6.0692   6.0757   6.2232   6.2957   6.9614   6.9989
     7.0349   7.0826   7.1148   7.3085   7.7039   7.7169   7.8469   7.8877
     7.9857   7.9933   8.0469   8.1549   8.2456   8.3249   8.3503   8.4333
     8.4990   8.5644   8.7444   8.8427   8.9434   8.9574   9.0182   9.0836
     9.1459   9.1626

          k = 0.3750 0.2618 0.0000 ( 70760 PWs)   bands (ev):

   -38.2336 -38.1772 -35.8680 -35.8031 -22.9281 -22.9182 -22.8738 -22.8665
   -22.8642 -22.7698 -22.6489 -22.3872 -18.6669 -18.6182 -18.5829 -18.5275
   -18.3508 -18.2942 -17.2027 -17.1427 -17.1404 -17.0829 -16.9662 -16.8986
   -15.3133 -15.2763 -15.0326 -15.0179 -14.8914 -14.8184 -14.8129 -14.7815
   -14.7395 -14.7130 -14.6758 -14.6526 -14.6405 -14.6021 -14.3648 -14.3313
   -14.2683 -14.2466 -14.2338 -14.2239 -14.1921 -14.1521 -14.1436 -14.1415
   -14.1398 -14.0803 -13.9788 -13.9013 -12.9030 -12.7669  -8.2361  -8.2268
    -8.1895  -8.1804  -8.1705  -8.1281  -8.1180  -8.0904  -8.0441  -8.0344
    -7.9991  -7.8853  -7.8499  -7.8454  -7.8034  -7.7513  -7.7421  -7.7201
    -7.7109  -7.6849  -7.5607  -7.5434  -7.2647  -7.2035  -2.9733  -2.9402
    -2.8114  -2.7244  -2.6117  -2.5872  -2.4973  -2.4071  -2.3106  -2.2986
    -2.2955  -2.2797  -2.2419  -2.2065  -2.1935  -2.1683  -2.1583  -2.1385
    -2.0497  -2.0060  -1.9252  -1.9035  -1.8068  -1.7390  -1.6115  -1.6014
    -1.5628  -1.5253  -1.5176  -1.5089  -1.5038  -1.4999  -1.3004  -1.2682
    -1.2242  -1.1623  -1.1071  -1.0488  -1.0435  -1.0279  -0.9757  -0.9650
    -0.8702  -0.8452  -0.8391  -0.8041  -0.7959  -0.7855  -0.7169  -0.7102
    -0.6357  -0.6327  -0.5144  -0.4756  -0.4342  -0.3869  -0.3712  -0.3174
    -0.2680  -0.2516  -0.2359  -0.2137  -0.1749  -0.1722  -0.1470  -0.1342
    -0.1141  -0.0995  -0.0662  -0.0600  -0.0541  -0.0040   0.0257   0.0285
     0.0551   0.0663   0.0938   0.1237   0.1479   0.2039   0.2139   0.2540
     0.2613   0.2626   0.2724   0.2788   0.2903   0.3070   0.3257   0.3423
     0.3689   0.4076   0.4101   0.4359   0.4631   0.5496   0.5832   0.6072
     0.6109   0.6821   0.7689   0.7930   0.8083   0.8372   0.8775   0.9135
     0.9206   0.9502   0.9973   1.0118   1.0329   1.0811   1.1071   1.1119
     1.1312   1.1419   1.1478   1.1491   1.1851   1.2022   1.2346   1.2561
     1.3289   1.3675   1.3719   1.3978   1.4067   1.4305   1.4614   1.4723
     1.5180   1.5207   1.5332   1.5525   1.5792   1.6372   1.6444   1.6545
     1.6780   1.7332   1.7392   1.7560   2.1017   2.1912   2.3626   2.4140
     2.4761   2.4978   2.5341   2.6046   2.6426   2.6630   2.6808   2.7318
     2.7853   2.7971   2.8019   2.8253   2.9314   2.9573   5.4727   5.8096
     5.8168   6.1624   6.2728   6.2798   6.4081   6.4753   7.1075   7.1663
     7.2951   7.3154   7.3825   7.6159   7.7666   7.8344   7.9359   7.9461
     8.0235   8.0880   8.1354   8.2586   8.3815   8.4598   8.4869   8.5444
     8.5766   8.6280   8.7358   8.8744   8.9252   8.9393   9.0234   9.0867
     9.1072   9.1351

          k = 0.3750 0.5236 0.0000 ( 70699 PWs)   bands (ev):

   -38.2271 -38.1707 -35.8639 -35.7990 -22.8720 -22.8621 -22.8221 -22.8206
   -22.8125 -22.7145 -22.5988 -22.3357 -18.5912 -18.5673 -18.5659 -18.5352
   -18.5184 -18.5104 -17.1302 -17.1256 -17.1071 -17.0672 -17.0640 -17.0419
   -15.0845 -15.0518 -14.9180 -14.9066 -14.7989 -14.7629 -14.7567 -14.6637
   -14.6391 -14.6320 -14.6176 -14.6008 -14.5322 -14.5132 -14.4154 -14.3788
   -14.3163 -14.2853 -14.2842 -14.2436 -14.2064 -14.1210 -14.1170 -14.1035
   -14.0996 -14.0893 -14.0030 -13.9354 -12.8611 -12.8287  -8.4721  -8.4627
    -8.3345  -8.3252  -8.2664  -8.1839  -8.1751  -8.1674  -8.1286  -8.1207
    -8.1162  -8.1062  -8.0453  -7.9868  -7.9292  -7.9197  -7.8785  -7.7784
    -7.7691  -7.7612  -7.7177  -7.5861  -7.4174  -7.3085  -3.3945  -3.3481
    -3.0927  -3.0603  -3.0496  -2.9667  -2.8529  -2.7870  -2.5209  -2.5120
    -2.4476  -2.4098  -2.4056  -2.3912  -2.3531  -2.3363  -2.3293  -2.2747
    -2.2500  -2.2393  -2.2316  -2.1817  -2.1759  -2.1485  -2.1283  -2.1197
    -1.9206  -1.8761  -1.8184  -1.7880  -1.6837  -1.6520  -1.6438  -1.5979
    -1.4755  -1.4316  -1.3612  -1.3314  -1.3121  -1.2356  -1.1789  -1.1180
    -1.1078  -1.0724  -1.0199  -1.0041  -0.9761  -0.9548  -0.7952  -0.7766
    -0.7635  -0.7174  -0.6789  -0.6406  -0.5917  -0.5720  -0.5639  -0.5486
    -0.5304  -0.4952  -0.4858  -0.4258  -0.4176  -0.4003  -0.3645  -0.3117
    -0.2962  -0.2798  -0.2346  -0.2265  -0.1905  -0.1651   0.0067   0.0108
     0.1168   0.1599   0.1844   0.1975   0.2306   0.2802   0.3188   0.3319
     0.3771   0.4226   0.4556   0.4744   0.4815   0.5299   0.5952   0.6719
     0.6841   0.7579   0.7794   0.8117   0.8369   0.8408   0.8717   0.8807
     0.9107   0.9241   0.9571   0.9718   0.9775   0.9810   0.9991   1.0152
     1.0418   1.0681   1.0936   1.1770   1.1953   1.2152   1.2608   1.2877
     1.3183   1.3255   1.3765   1.3911   1.4104   1.4165   1.4377   1.4388
     1.4472   1.4741   1.4901   1.5129   1.5283   1.5352   1.5503   1.5725
     1.6082   1.6206   1.6448   1.6837   1.6890   1.7150   1.7657   1.8030
     1.8061   1.8143   1.8941   1.9006   2.2724   2.3993   2.4604   2.4806
     2.7508   2.7847   2.8708   2.9341   2.9353   2.9680   2.9899   3.0416
     3.0784   3.1088   3.3776   3.3992   3.5030   3.5361   5.8229   6.5027
     6.5107   6.5541   6.5638   6.7064   6.9554   7.0064   7.0620   7.1244
     7.8771   7.9718   7.9902   8.0565   8.0679   8.0888   8.1369   8.1750
     8.2436   8.2545   8.4416   8.5531   8.6032   8.7211   8.7586   8.8232
     8.8592   8.9650   8.9986   9.0286   9.0558   9.0607   9.0994   9.1608
     9.2060   9.2561

          k = 0.3750 0.7854 0.0000 ( 70746 PWs)   bands (ev):

   -38.2205 -38.1642 -35.8597 -35.7949 -22.8145 -22.8045 -22.7738 -22.7690
   -22.7594 -22.6576 -22.5475 -22.2829 -18.7994 -18.7441 -18.5490 -18.4934
   -18.4626 -18.4130 -17.2413 -17.1738 -17.1111 -17.0508 -17.0425 -16.9804
   -14.9209 -14.9067 -14.8161 -14.8017 -14.7962 -14.7363 -14.6578 -14.6363
   -14.6305 -14.5858 -14.5585 -14.4751 -14.4567 -14.4324 -14.4255 -14.3979
   -14.3590 -14.3584 -14.2125 -14.1857 -14.1849 -14.1310 -14.0646 -14.0532
   -14.0506 -14.0394 -14.0392 -13.9807 -12.8925 -12.8205  -8.6687  -8.6593
    -8.4685  -8.3963  -8.3869  -8.3282  -8.2438  -8.2344  -8.2045  -8.1595
    -8.1532  -8.1412  -8.1297  -8.1195  -8.0775  -8.0635  -8.0413  -7.9297
    -7.9203  -7.8457  -7.7382  -7.7151  -7.6539  -7.4756  -3.8791  -3.8363
    -3.5169  -3.4888  -3.4850  -3.4115  -3.2628  -3.1904  -2.9407  -2.9323
    -2.9154  -2.9069  -2.9028  -2.8381  -2.5835  -2.5745  -2.4809  -2.4134
    -2.3598  -2.3529  -2.2294  -2.2201  -2.2196  -2.1873  -2.1829  -2.0913
    -2.0868  -2.0488  -1.9091  -1.8938  -1.8689  -1.8446  -1.7530  -1.7252
    -1.7113  -1.6903  -1.6418  -1.5621  -1.4310  -1.3891  -1.3492  -1.2319
    -1.2225  -1.1926  -1.1875  -1.1623  -1.0338  -1.0067  -0.9686  -0.9184
    -0.8878  -0.8759  -0.8405  -0.8230  -0.7874  -0.7717  -0.7677  -0.7378
    -0.7349  -0.6911  -0.6521  -0.6251  -0.5791  -0.5754  -0.5116  -0.4141
    -0.4075  -0.3276  -0.3223  -0.3035  -0.2144  -0.1857   0.0333   0.0887
     0.1688   0.2511   0.2719   0.2841   0.3009   0.3757   0.3943   0.4077
     0.4135   0.5078   0.5218   0.5698   0.6968   0.7634   0.7947   0.8200
     0.8733   0.8923   0.9143   0.9287   0.9721   0.9833   0.9907   1.0285
     1.0508   1.1062   1.1566   1.1706   1.2157   1.2234   1.2343   1.2480
     1.2794   1.2934   1.3143   1.3245   1.3504   1.3715   1.3894   1.3961
     1.4766   1.4972   1.5349   1.5445   1.5782   1.5957   1.6094   1.6327
     1.6450   1.6766   1.6854   1.7004   1.7243   1.7371   1.7482   1.7978
     1.8148   1.8311   1.8576   1.9048   1.9224   1.9899   2.0649   2.0820
     2.1375   2.2179   2.2255   2.3037   2.3115   2.3596   2.3971   2.4587
     2.7525   2.7716   2.8040   2.8494   2.8894   2.9398   2.9701   3.0279
     3.1774   3.2121   3.7609   3.7875   3.8825   3.9058   6.0191   6.4275
     6.4366   6.7884   6.8614   6.9896   7.0031   7.1714   7.4863   7.5476
     7.8768   8.0222   8.0520   8.1371   8.4639   8.5251   8.5432   8.5729
     8.6442   8.7202   8.7782   8.7999   9.0104   9.1091   9.2061   9.2112
     9.2496   9.2692   9.3152   9.3495   9.3916   9.4390   9.5291   9.5703
     9.6485   9.6612

          k = 0.3750-1.0472 0.0000 ( 70750 PWs)   bands (ev):

   -38.2178 -38.1615 -35.8580 -35.7931 -22.7902 -22.7802 -22.7540 -22.7465
   -22.7370 -22.6336 -22.5258 -22.2607 -18.8799 -18.8248 -18.5419 -18.4863
   -18.4156 -18.3658 -17.2919 -17.2244 -17.1050 -17.0447 -17.0061 -16.9439
   -14.9476 -14.9242 -14.7997 -14.7796 -14.6956 -14.6812 -14.6565 -14.6506
   -14.5949 -14.5834 -14.5694 -14.4279 -14.4130 -14.4117 -14.3881 -14.3733
   -14.3685 -14.3348 -14.1873 -14.1686 -14.1355 -14.1252 -14.0696 -14.0387
   -14.0316 -14.0280 -14.0250 -14.0209 -12.9189 -12.8041  -8.7045  -8.6950
    -8.5204  -8.4016  -8.3923  -8.3764  -8.3738  -8.3669  -8.2077  -8.1894
    -8.1615  -8.1551  -8.1367  -8.1357  -8.1243  -8.0984  -8.0791  -8.0318
    -8.0224  -7.8337  -7.7944  -7.7399  -7.7250  -7.6004  -4.0752  -4.0343
    -3.6796  -3.6744  -3.6532  -3.6023  -3.4283  -3.3514  -3.1747  -3.1660
    -3.1472  -3.1387  -3.1157  -3.0536  -2.5885  -2.5792  -2.4698  -2.3995
    -2.3755  -2.3595  -2.3512  -2.3397  -2.2210  -2.2139  -2.1318  -2.0372
    -2.0265  -1.9875  -1.9617  -1.9306  -1.8958  -1.8954  -1.8827  -1.8665
    -1.8214  -1.8114  -1.7349  -1.6746  -1.4745  -1.4317  -1.3930  -1.2817
    -1.2683  -1.2471  -1.2397  -1.2209  -1.0567  -1.0265  -1.0078  -0.9962
    -0.9825  -0.9524  -0.8713  -0.8712  -0.8599  -0.8569  -0.8228  -0.8091
    -0.8061  -0.7373  -0.7258  -0.6814  -0.6590  -0.5839  -0.5314  -0.4064
    -0.4019  -0.3554  -0.3470  -0.2971  -0.2156  -0.1867   0.0467   0.1224
     0.1998   0.2983   0.3013   0.3123   0.3163   0.3292   0.3358   0.4075
     0.4220   0.5046   0.5328   0.6101   0.8039   0.8271   0.8660   0.9417
     0.9622   0.9870   0.9887   0.9913   1.0309   1.0395   1.0409   1.1010
     1.1238   1.1372   1.1456   1.1871   1.2268   1.2871   1.2890   1.3010
[...]
    -2.7543  -2.7532  -2.6661  -2.6065  -2.5942  -2.4930  -2.3266  -2.3118
    -2.2765  -2.2685  -2.2608  -2.2237  -2.2112  -2.1949  -2.1882  -2.1749
    -2.0607  -2.0203  -1.9223  -1.9065  -1.8072  -1.7350  -1.6055  -1.6049
    -1.5506  -1.5142  -1.5128  -1.5124  -1.5038  -1.4957  -1.1823  -1.1772
    -1.1580  -1.1137  -1.0752  -1.0666  -1.0482  -1.0358  -1.0240  -0.9833
    -0.9666  -0.9471  -0.9406  -0.8816  -0.8267  -0.7985  -0.7061  -0.6899
    -0.6041  -0.5804  -0.5753  -0.5363  -0.4323  -0.3778  -0.3410  -0.3138
    -0.2853  -0.2613  -0.2420  -0.2366  -0.1862  -0.1820  -0.1338  -0.1256
    -0.1233  -0.0973  -0.0542  -0.0535  -0.0399   0.0015   0.0189   0.0234
     0.0549   0.0740   0.1074   0.1266   0.1422   0.2117   0.2186   0.2504
     0.2648   0.2692   0.2882   0.3027   0.3168   0.3222   0.3430   0.3483
     0.3649   0.3664   0.3874   0.4427   0.4759   0.5602   0.5737   0.6248
     0.6446   0.7003   0.7667   0.7930   0.8084   0.8256   0.8324   0.8505
     0.9294   0.9411   0.9593   0.9710   1.0260   1.0934   1.1419   1.1480
     1.1592   1.1612   1.1734   1.1765   1.1984   1.2516   1.2672   1.2982
     1.3003   1.3065   1.3238   1.3665   1.3779   1.4177   1.4529   1.4581
     1.4629   1.4745   1.5234   1.5251   1.6174   1.6576   1.6593   1.6645
     1.6692   1.6747   1.7372   1.7444   2.1828   2.1959   2.4655   2.4889
     2.4966   2.4992   2.5597   2.6307   2.6504   2.6860   2.7241   2.7362
     2.7715   2.8087   2.8101   2.8177   2.8656   2.8910   5.5343   6.0137
     6.0205   6.0314   6.0384   6.0718   6.5282   6.5903   6.9650   7.0340
     7.5347   7.5981   7.6128   7.6398   7.6539   7.7907   7.7979   7.8840
     7.9221   8.1046   8.1426   8.2255   8.3736   8.4866   8.5392   8.5733
     8.6044   8.7392   8.7483   8.8085   8.8391   8.8906   9.0180   9.0368
     9.0437   9.0925

          k =-0.5000 0.5236 0.0000 ( 70706 PWs)   bands (ev):

   -38.2271 -38.1707 -35.8639 -35.7990 -22.8619 -22.8519 -22.8324 -22.8229
   -22.8201 -22.7111 -22.6024 -22.3364 -18.5911 -18.5668 -18.5627 -18.5352
   -18.5178 -18.5072 -17.1361 -17.1313 -17.1076 -17.0762 -17.0672 -17.0421
   -15.0251 -14.9958 -14.9305 -14.9170 -14.7963 -14.7770 -14.7592 -14.6820
   -14.6425 -14.6383 -14.6311 -14.6043 -14.5267 -14.5218 -14.4174 -14.3831
   -14.3301 -14.2953 -14.2807 -14.2393 -14.2003 -14.1144 -14.1136 -14.1043
   -14.1025 -14.0909 -14.0032 -13.9359 -12.8470 -12.8417  -8.4381  -8.4287
    -8.4090  -8.3996  -8.2327  -8.1991  -8.1833  -8.1742  -8.1664  -8.1157
    -8.1113  -8.1056  -8.0461  -8.0234  -7.8785  -7.8390  -7.8298  -7.8283
    -7.8188  -7.7182  -7.6979  -7.6124  -7.3597  -7.3412  -3.2707  -3.2267
    -3.1836  -3.1473  -2.9362  -2.9159  -2.8508  -2.8494  -2.4824  -2.4743
    -2.4435  -2.4349  -2.3837  -2.3824  -2.3317  -2.3219  -2.3180  -2.3091
    -2.2970  -2.2950  -2.2788  -2.2690  -2.1771  -2.1705  -2.1554  -2.1487
    -1.9092  -1.8822  -1.6582  -1.6448  -1.6312  -1.6111  -1.5996  -1.5725
    -1.5183  -1.5155  -1.4923  -1.4590  -1.4222  -1.3510  -1.1789  -1.1609
    -1.1110  -1.0782  -1.0421  -0.9876  -0.9655  -0.9506  -0.8089  -0.7953
    -0.7237  -0.7135  -0.6915  -0.6572  -0.5676  -0.5622  -0.5545  -0.5425
    -0.5155  -0.4834  -0.4514  -0.4489  -0.4398  -0.4178  -0.3716  -0.3528
    -0.2954  -0.2851  -0.2789  -0.2432  -0.1881  -0.1759   0.0068   0.0081
     0.1609   0.1632   0.2019   0.2332   0.2811   0.2860   0.3236   0.3800
     0.3811   0.4118   0.4544   0.4563   0.5211   0.5851   0.6162   0.6782
     0.6854   0.7468   0.7955   0.8426   0.8430   0.8604   0.8757   0.8796
     0.8830   0.8970   0.9475   0.9572   0.9612   0.9616   0.9685   0.9712
     1.0273   1.0495   1.0810   1.1831   1.2207   1.2273   1.2569   1.3204
     1.3366   1.3408   1.3431   1.3562   1.3916   1.3918   1.4038   1.4234
     1.4502   1.4631   1.4758   1.4927   1.5383   1.5550   1.5685   1.5904
     1.6060   1.6194   1.6424   1.6510   1.6823   1.7285   1.7602   1.8042
     1.8462   1.8497   1.8505   1.8578   2.3738   2.3814   2.4768   2.4877
     2.9238   2.9333   2.9534   2.9870   3.0123   3.0294   3.0955   3.1176
     3.1436   3.1713   3.2385   3.2713   3.3085   3.3442   5.8420   6.5282
     6.5372   6.5558   6.5645   6.6911   7.0120   7.0597   7.0642   7.1150
     7.8763   7.9647   7.9657   8.0507   8.0925   8.1852   8.1931   8.1969
     8.2083   8.2161   8.5391   8.6213   8.6633   8.7335   8.8088   8.8107
     8.8904   8.9240   8.9733   9.0121   9.0172   9.0276   9.0628   9.1388
     9.1642   9.2620

          k =-0.5000 0.7854 0.0000 ( 70746 PWs)   bands (ev):

   -38.2205 -38.1642 -35.8597 -35.7949 -22.8067 -22.7966 -22.7769 -22.7733
   -22.7675 -22.6550 -22.5502 -22.2834 -18.7994 -18.7441 -18.5458 -18.4902
   -18.4620 -18.4125 -17.2413 -17.1737 -17.1202 -17.0601 -17.0446 -16.9826
   -14.8807 -14.8648 -14.8487 -14.8382 -14.7513 -14.6898 -14.6496 -14.6363
   -14.6171 -14.5746 -14.5724 -14.5123 -14.4686 -14.4602 -14.4224 -14.4080
   -14.3826 -14.3693 -14.2082 -14.1877 -14.1751 -14.1370 -14.0606 -14.0545
   -14.0493 -14.0427 -14.0366 -13.9833 -12.8612 -12.8525  -8.5648  -8.5553
    -8.5262  -8.5168  -8.3832  -8.3109  -8.2892  -8.1629  -8.1558  -8.1480
    -8.1418  -8.1379  -8.0830  -8.0717  -8.0685  -8.0677  -8.0587  -8.0584
    -7.9541  -7.8421  -7.8001  -7.7386  -7.5910  -7.5655  -3.7798  -3.7415
    -3.5922  -3.5577  -3.3941  -3.3315  -3.3214  -3.2385  -2.9285  -2.9275
    -2.9201  -2.9190  -2.8980  -2.8423  -2.5031  -2.4938  -2.4253  -2.4148
    -2.3600  -2.3438  -2.2782  -2.2582  -2.2001  -2.1898  -2.1700  -2.1583
    -2.0737  -2.0389  -1.9393  -1.9051  -1.8978  -1.8746  -1.8102  -1.7971
    -1.7563  -1.7519  -1.6276  -1.5845  -1.4975  -1.4505  -1.2734  -1.2435
    -1.2360  -1.2255  -1.1881  -1.1684  -0.9873  -0.9701  -0.9598  -0.9367
    -0.8956  -0.8728  -0.8691  -0.8464  -0.7643  -0.7621  -0.7509  -0.7474
    -0.6959  -0.6396  -0.6353  -0.6125  -0.5891  -0.5555  -0.4743  -0.4613
    -0.4440  -0.4199  -0.3702  -0.3479  -0.2173  -0.1906   0.0462   0.0751
     0.2437   0.2564   0.3348   0.3373   0.3469   0.3554   0.4223   0.4444
     0.4597   0.4918   0.5468   0.6310   0.6495   0.8349   0.8532   0.8548
     0.8783   0.8830   0.9025   0.9292   0.9355   0.9664   0.9681   0.9952
     1.0282   1.0685   1.1511   1.1861   1.1914   1.2051   1.2346   1.2415
     1.2460   1.2703   1.2965   1.3213   1.3331   1.4080   1.4410   1.4487
     1.4701   1.4825   1.4923   1.5003   1.5652   1.6085   1.6245   1.6595
     1.6678   1.6733   1.6834   1.6888   1.7096   1.7126   1.7174   1.7390
     1.7963   1.8156   1.8280   1.8464   1.9254   2.0176   2.0832   2.0839
     2.2560   2.2622   2.2664   2.2744   2.2824   2.2942   2.3957   2.3964
     2.7989   2.8108   2.8234   2.8524   2.9964   3.0307   3.3367   3.3651
     3.3723   3.3995   3.5076   3.5385   3.5494   3.5711   6.0695   6.6741
     6.6824   6.6984   6.7237   6.9023   6.9666   7.1619   7.4191   7.4813
     7.8422   8.0109   8.0410   8.1062   8.5187   8.5231   8.5947   8.5998
     8.6055   8.6767   8.7011   8.7508   9.0816   9.1476   9.1515   9.3108
     9.3538   9.4054   9.4411   9.4555   9.4690   9.5021   9.5320   9.5630
     9.6075   9.6169

          k =-0.5000-1.0472 0.0000 ( 70756 PWs)   bands (ev):

   -38.2178 -38.1615 -35.8580 -35.7931 -22.7833 -22.7732 -22.7537 -22.7535
   -22.7441 -22.6313 -22.5283 -22.2611 -18.8798 -18.8247 -18.5388 -18.4832
   -18.4152 -18.3653 -17.2919 -17.2244 -17.1138 -17.0537 -17.0080 -16.9460
   -14.9125 -14.8851 -14.8333 -14.8203 -14.6907 -14.6577 -14.6242 -14.5947
   -14.5892 -14.5684 -14.5473 -14.4611 -14.4394 -14.4276 -14.4129 -14.3993
   -14.3756 -14.3558 -14.1581 -14.1552 -14.1548 -14.1451 -14.0699 -14.0357
   -14.0349 -14.0250 -14.0250 -14.0241 -12.8694 -12.8564  -8.5681  -8.5586
    -8.5174  -8.5081  -8.4042  -8.3286  -8.3271  -8.2432  -8.2336  -8.2196
    -8.2105  -8.1438  -8.1418  -8.1392  -8.1288  -8.1252  -8.0880  -8.0814
    -8.0369  -7.9036  -7.8331  -7.7713  -7.7353  -7.6768  -3.9798  -3.9433
    -3.7517  -3.7189  -3.5888  -3.5257  -3.4853  -3.4000  -3.1615  -3.1606
    -3.1529  -3.1519  -3.1116  -3.0575  -2.5080  -2.4994  -2.4032  -2.3909
    -2.3412  -2.2881  -2.2727  -2.2391  -2.2391  -2.2267  -2.1551  -2.1423
    -2.1352  -2.1044  -2.0754  -2.0567  -1.9986  -1.9190  -1.9071  -1.8967
    -1.8674  -1.8607  -1.6450  -1.6038  -1.5252  -1.4802  -1.3089  -1.2894
    -1.2768  -1.2738  -1.2468  -1.2312  -1.0696  -1.0338  -0.9870  -0.9624
    -0.9581  -0.9343  -0.8840  -0.8618  -0.8444  -0.8440  -0.8337  -0.8248
    -0.7353  -0.7156  -0.6977  -0.6635  -0.6536  -0.5627  -0.4812  -0.4768
    -0.4642  -0.4421  -0.3854  -0.3628  -0.2210  -0.1929   0.0678   0.1038
     0.2760   0.2821   0.3515   0.3595   0.3921   0.4104   0.4138   0.4356
     0.4409   0.4801   0.5658   0.6683   0.6803   0.8842   0.8935   0.9398
     0.9531   0.9726   0.9896   1.0244   1.0293   1.0576   1.0657   1.1057
     1.1148   1.1158   1.1776   1.2041   1.2229   1.2377   1.2510   1.2776
     1.2941   1.3294   1.3439   1.3572   1.3586   1.3855   1.4035   1.4157
     1.4651   1.4833   1.4946   1.6184   1.6793   1.6917   1.7451   1.7586
     1.7652   1.7933   1.8613   1.8908   1.9054   1.9159   1.9673   1.9791
     1.9973   2.0223   2.0486   2.0874   2.0883   2.0985   2.1002   2.1935
     2.2228   2.2630   2.3494   2.3812   2.4357   2.4437   2.4447   2.4530
     2.5945   2.5956   2.6280   2.6476   2.8909   2.9711   3.3583   3.3866
     3.4218   3.4517   3.5163   3.5477   3.6275   3.6476   6.1301   6.6176
     6.6255   6.6378   6.6712   6.8268   6.8908   7.1955   7.4373   7.4973
     7.8828   8.0731   8.1305   8.1354   8.4092   8.8419   8.8446   9.0276
     9.0544   9.0748   9.1104   9.2291   9.2822   9.2855   9.3000   9.3091
     9.3498   9.4316   9.5258   9.5466   9.6434   9.6814   9.6876   9.6927
     9.7050   9.7128

     the Fermi energy is     2.6162 ev

!    total energy              =   -3711.55429229 Ry
     Harris-Foulkes estimate   =   -3711.55429230 Ry
     estimated scf accuracy    <          7.1E-09 Ry

     The total energy is the sum of the following terms:

     one-electron contribution =  -58709.70581408 Ry
     hartree contribution      =   29659.69344647 Ry
     xc contribution           =   -1263.80310166 Ry
     ewald contribution        =   26602.27990797 Ry
     smearing contrib. (-TS)   =      -0.01873099 Ry

     convergence has been achieved in  34 iterations

     negative rho (up, down):  9.213E-02 0.000E+00

     Forces acting on atoms (cartesian axes, Ry/au):

     atom    1 type  4   force =    -0.00000555    0.00000000   -0.00041515
     atom    2 type  4   force =     0.00000555    0.00000000   -0.00041515
     atom    3 type  3   force =    -0.00000890    0.00000000    0.00000643
     atom    4 type  3   force =     0.00000890    0.00000000    0.00000643
     atom    5 type  4   force =    -0.00000520    0.00000000    0.00007035
     atom    6 type  4   force =     0.00000520    0.00000000    0.00007035
     atom    7 type  1   force =     0.00000000    0.00000000   -0.00035310
     atom    8 type  1   force =     0.00000000    0.00000000   -0.00032204
     atom    9 type  3   force =     0.00012434    0.00000000   -0.00027851
     atom   10 type  3   force =    -0.00012434    0.00000000   -0.00027851
     atom   11 type  4   force =     0.00000000    0.00000000    0.00096061
     atom   12 type  4   force =     0.00002562    0.00000000    0.00113099
     atom   13 type  4   force =    -0.00002562    0.00000000    0.00113099
     atom   14 type  4   force =     0.00000000    0.00000000    0.00125355
     atom   15 type  2   force =     0.00000000    0.00000000   -0.00280807
     atom   16 type  5   force =     0.00000000    0.00000000   -0.00417785
     atom   17 type  4   force =     0.00081576    0.00000000    0.00508744
     atom   18 type  4   force =    -0.00081576    0.00000000    0.00508744
     atom   19 type  4   force =     0.00000000    0.00000000    0.00347026
     atom   20 type  4   force =     0.00000000    0.00000000    0.00444634
     atom   21 type  3   force =     0.00048041    0.00000000   -0.00125234
     atom   22 type  3   force =    -0.00048041    0.00000000   -0.00125234
     atom   23 type  1   force =     0.00000000    0.00000000    0.00733044
     atom   24 type  1   force =     0.00000000    0.00000000    0.01352535
     atom   25 type  4   force =     0.00235339    0.00000000   -0.01545812
     atom   26 type  4   force =    -0.00235339    0.00000000   -0.01545812
     atom   27 type  4   force =    -0.00988694    0.00000000    0.02737780
     atom   28 type  4   force =     0.00988694    0.00000000    0.02737780
     atom   29 type  3   force =     0.01017846    0.00000000   -0.01211316
     atom   30 type  3   force =    -0.01017846    0.00000000   -0.01211316
     atom   31 type  4   force =     0.01296652    0.00000000    0.01755469
     atom   32 type  4   force =    -0.01296652    0.00000000    0.01755469
     atom   33 type  1   force =     0.00000000    0.00000000   -0.01535340
     atom   34 type  1   force =     0.00000000    0.00000000   -0.01918539
     atom   35 type  3   force =    -0.00327851    0.00000000   -0.01981818
     atom   36 type  3   force =     0.00327851    0.00000000   -0.01981818
     atom   37 type  4   force =     0.00000000    0.00000000    0.00399883
     atom   38 type  4   force =     0.00000000    0.00000000    0.00121149
     atom   39 type  4   force =     0.00269565    0.00000000    0.00083755
     atom   40 type  4   force =    -0.00269565    0.00000000    0.00083755
     atom   41 type  5   force =     0.00000000    0.00000000    0.00182459
     atom   42 type  2   force =     0.00000000    0.00000000    0.00021320
     atom   43 type  4   force =     0.00000000    0.00000000    0.00014713
     atom   44 type  4   force =     0.00003444    0.00000000   -0.00108426
     atom   45 type  4   force =    -0.00003444    0.00000000   -0.00108426
     atom   46 type  4   force =     0.00000000    0.00000000   -0.00004110
     atom   47 type  3   force =    -0.00001664    0.00000000    0.00027589
     atom   48 type  3   force =     0.00001664    0.00000000    0.00027589
     atom   49 type  1   force =     0.00000000    0.00000000    0.00016259
     atom   50 type  1   force =     0.00000000    0.00000000    0.00020821
     atom   51 type  4   force =    -0.00004606    0.00000000   -0.00067209
     atom   52 type  4   force =     0.00004606    0.00000000   -0.00067209
     atom   53 type  3   force =    -0.00003863    0.00000000    0.00082653
     atom   54 type  3   force =     0.00003863    0.00000000    0.00082653
     atom   55 type  4   force =     0.00002044    0.00000000   -0.00033170
     atom   56 type  4   force =    -0.00002044    0.00000000   -0.00033170

     Total force =     0.073796     Total SCF correction =     0.000472


     Computing stress (Cartesian axis) and pressure


     negative rho (up, down):  9.213E-02 0.000E+00
          total   stress  (Ry/bohr**3)                   (kbar)     P=       -6.34
  -0.00000210   0.00000000   0.00000000           -0.31        0.00        0.00
   0.00000000  -0.00008032   0.00000000            0.00      -11.82        0.00
   0.00000000   0.00000000  -0.00004684            0.00        0.00       -6.89

 
     init_run     :     24.31s CPU     25.31s WALL (       1 calls)
     electrons    :   1687.77s CPU   1783.09s WALL (       1 calls)
     forces       :     10.28s CPU     10.87s WALL (       1 calls)
     stress       :     93.38s CPU     95.10s WALL (       1 calls)

     Called by init_run:
     wfcinit      :     19.97s CPU     20.30s WALL (       1 calls)
     potinit      :      0.96s CPU      0.99s WALL (       1 calls)
     hinit0       :      1.58s CPU      1.61s WALL (       1 calls)

     Called by electrons:
     c_bands      :   1423.22s CPU   1479.12s WALL (      34 calls)
     sum_band     :    202.56s CPU    224.68s WALL (      34 calls)
     v_of_rho     :      3.85s CPU      3.92s WALL (      35 calls)
     newd         :     29.95s CPU     47.40s WALL (      35 calls)
     mix_rho      :     28.71s CPU     28.99s WALL (      34 calls)

     Called by c_bands:
     init_us_2    :      8.23s CPU      8.31s WALL (    1775 calls)
     cegterg      :   1359.39s CPU   1395.36s WALL (     850 calls)

     Called by sum_band:
     sum_band:bec :      0.96s CPU      0.97s WALL (     850 calls)
     addusdens    :     30.57s CPU     50.62s WALL (      34 calls)

     Called by *egterg:
     h_psi        :    635.31s CPU    648.50s WALL (    4461 calls)
     s_psi        :     97.26s CPU     97.85s WALL (    4461 calls)
     g_psi        :      1.42s CPU      1.44s WALL (    3586 calls)
     cdiaghg      :    337.01s CPU    338.34s WALL (    4436 calls)

     Called by h_psi:
     h_psi:calbec :    105.62s CPU    106.10s WALL (    4461 calls)
     vloc_psi     :    429.25s CPU    435.29s WALL (    4461 calls)
     add_vuspsi   :     97.73s CPU     98.23s WALL (    4461 calls)

     General routines
     calbec       :    171.67s CPU    172.40s WALL (    5436 calls)
     fft          :      3.25s CPU      3.29s WALL (     478 calls)
     ffts         :     15.97s CPU     16.13s WALL (   18726 calls)
     fftw         :    494.18s CPU    500.95s WALL ( 1212944 calls)
     interpolate  :      0.23s CPU      0.24s WALL (      35 calls)
 
     Parallel routines
     fft_scatt_xy :     56.17s CPU     57.01s WALL ( 1232148 calls)
     fft_scatt_yz :    324.72s CPU    329.14s WALL ( 1232148 calls)
 
     PWSCF        :  30m19.43s CPU  32m 1.55s WALL

 
   This run was terminated on:   0:25:10  28May2021            

=------------------------------------------------------------------------------=
   JOB DONE.
=------------------------------------------------------------------------------=
[1622175910.167943] [holy7c18103:123149:0]          mpool.c:43   UCX  WARN  object 0x36a9c00 was not returned to mpool ucp_requests
[1622175910.170920] [holy7c18109:11202:0]          mpool.c:43   UCX  WARN  object 0x39c4240 was not returned to mpool ucp_requests
[1622175910.170941] [holy7c18109:11202:0]          mpool.c:43   UCX  WARN  object 0x39c4400 was not returned to mpool ucp_requests
[1622175910.172988] [holy7c18106:249643:0]          mpool.c:43   UCX  WARN  object 0x4195d80 was not returned to mpool ucp_requests
[1622175910.175073] [holy7c18102:58355:0]          mpool.c:43   UCX  WARN  object 0x3fc7540 was not returned to mpool ucp_requests
[1622175910.178089] [holy7c18110:121304:0]          mpool.c:43   UCX  WARN  object 0x3a8df40 was not returned to mpool ucp_requests
[1622175910.187140] [holy7c18108:159541:0]          mpool.c:43   UCX  WARN  object 0x3395a80 was not returned to mpool ucp_requests
[1622175910.173130] [holy7c18109:11200:0]          mpool.c:43   UCX  WARN  object 0x4434240 was not returned to mpool ucp_requests
[1622175910.174803] [holy7c18106:249644:0]          mpool.c:43   UCX  WARN  object 0x3319200 was not returned to mpool ucp_requests
[1622175910.174821] [holy7c18106:249644:0]          mpool.c:43   UCX  WARN  object 0x3319580 was not returned to mpool ucp_requests
[1622175910.186390] [holy7c18106:249642:0]          mpool.c:43   UCX  WARN  object 0x3ac0400 was not returned to mpool ucp_requests
[1622175910.186414] [holy7c18106:249642:0]          mpool.c:43   UCX  WARN  object 0x3ac0780 was not returned to mpool ucp_requests
[1622175910.181912] [holy7c18110:121303:0]          mpool.c:43   UCX  WARN  object 0x3be7e80 was not returned to mpool ucp_requests
[1622175910.178637] [holy7c18104:266995:0]          mpool.c:43   UCX  WARN  object 0x3ab3b40 was not returned to mpool ucp_requests
[1622175910.178664] [holy7c18104:266995:0]          mpool.c:43   UCX  WARN  object 0x3ab4240 was not returned to mpool ucp_requests
[1622175910.189614] [holy7c18108:159539:0]          mpool.c:43   UCX  WARN  object 0x30c6ac0 was not returned to mpool ucp_requests
[1622175910.189644] [holy7c18108:159539:0]          mpool.c:43   UCX  WARN  object 0x30c6e40 was not returned to mpool ucp_requests
