
     Program PWSCF v.6.5 starts on 25May2021 at 14:24:56 

     This program is part of the open-source Quantum ESPRESSO suite
     for quantum simulation of materials; please cite
         "P. Giannozzi et al., J. Phys.:Condens. Matter 21 395502 (2009);
         "P. Giannozzi et al., J. Phys.:Condens. Matter 29 465901 (2017);
          URL http://www.quantum-espresso.org", 
     in publications or presentations arising from this work. More details at
     http://www.quantum-espresso.org/quote

     Parallel version (MPI), running on    32 processors

     MPI processes distributed on     8 nodes
     R & G space division:  proc/nbgrp/npool/nimage =      32
     Reading input from YCBCO50_212_BaO_cleave_1.25_sep.pwi
Warning: card &IONS ignored
Warning: card     ION_DYNAMICS = 'BFGS' ignored
Warning: card / ignored
Warning: card &CELL ignored
Warning: card     CELL_DYNAMICS = 'BFGS' ignored
Warning: card     PRESS_CONV_THR = 5 ignored
Warning: card / ignored

     Current dimensions of program PWSCF are:
     Max number of different atomic species (ntypx) = 10
     Max number of k-points (npk) =  40000
     Max angular momentum in pseudopotentials (lmaxx) =  3

     Subspace diagonalization in iterative solution of the eigenvalue problem:
     one sub-group per band group will be used
     scalapack distributed-memory algorithm (size of sub-group:  5*  5 procs)

     Message from routine setup:
     using ibrav=0 with symmetry is DISCOURAGED, use correct ibrav instead
 
     Parallelization info
     --------------------
     sticks:   dense  smooth     PW     G-vecs:    dense   smooth      PW
     Min         188      62     17                91380    17574    2621
     Max         189      63     18                91410    17621    2660
     Sum        6019    2003    565              2924709   563163   84677
 


     bravais-lattice index     =            0
     lattice parameter (alat)  =      14.8133  a.u.
     unit-cell volume          =    8964.7417 (a.u.)^3
     number of atoms/cell      =           56
     number of atomic types    =            5
     number of electrons       =       456.00
     number of Kohn-Sham states=          274
     kinetic-energy cutoff     =      60.0000  Ry
     charge density cutoff     =     720.0000  Ry
     convergence threshold     =      1.0E-08
     mixing beta               =       0.5000
     number of iterations used =           10  local-TF  mixing
     Exchange-correlation= SLA PW PBE PBE
                           (   1   4   3   4   0   0   0)

     celldm(1)=  14.813271  celldm(2)=   0.000000  celldm(3)=   0.000000
     celldm(4)=   0.000000  celldm(5)=   0.000000  celldm(6)=   0.000000

     crystal axes: (cart. coord. in units of alat)
               a(1) = (   1.000000   0.000000   0.000000 )  
               a(2) = (   0.000000   0.477453   0.000000 )  
               a(3) = (   0.000000   0.000000   5.776363 )  

     reciprocal axes: (cart. coord. in units 2 pi/alat)
               b(1) = (  1.000000  0.000000  0.000000 )  
               b(2) = (  0.000000  2.094448  0.000000 )  
               b(3) = (  0.000000  0.000000  0.173119 )  


     PseudoPot. # 1 for Ba read from file:
     ./pseudo/Ba.pbe-nsp-van.UPF
     MD5 check sum: 2b9c31dd849566dd297d80989662b7a0
     Pseudo is Ultrasoft + core correction, Zval = 10.0
     Generated by new atomic code, or converted to UPF format
     Using radial grid of  907 points,  6 beta functions with: 
                l(1) =   0
                l(2) =   0
                l(3) =   1
                l(4) =   1
                l(5) =   2
                l(6) =   2
     Q(r) pseudized with  6 coefficients,  rinner =    1.200   1.200   1.200
                                                       1.200   1.200

     PseudoPot. # 2 for Ca read from file:
     ./pseudo/Ca.pbe-nsp-van.UPF
     MD5 check sum: 6471098428ff4fa451746d08035ff179
     Pseudo is Ultrasoft + core correction, Zval = 10.0
     Generated by new atomic code, or converted to UPF format
     Using radial grid of  845 points,  6 beta functions with: 
                l(1) =   0
                l(2) =   0
                l(3) =   1
                l(4) =   1
                l(5) =   2
                l(6) =   2
     Q(r) pseudized with  6 coefficients,  rinner =    1.200   1.200   1.200
                                                       1.200   1.200

     PseudoPot. # 3 for Cu read from file:
     ./pseudo/Cu.pbe-n-van_ak.UPF
     MD5 check sum: 34e3282627ffb533726feb647e090d62
     Pseudo is Ultrasoft + core correction, Zval = 11.0
     Generated by new atomic code, or converted to UPF format
     Using radial grid of  867 points,  6 beta functions with: 
                l(1) =   0
                l(2) =   0
                l(3) =   1
                l(4) =   1
                l(5) =   2
                l(6) =   2
     Q(r) pseudized with  8 coefficients,  rinner =    1.400   1.400   1.400
                                                       1.400   1.400

     PseudoPot. # 4 for O  read from file:
     ./pseudo/O.pbe-van_ak.UPF
     MD5 check sum: 783ce7fe4c79b6a4916957118fed0856
     Pseudo is Ultrasoft, Zval =  6.0
     Generated by new atomic code, or converted to UPF format
     Using radial grid of  737 points,  4 beta functions with: 
                l(1) =   0
                l(2) =   0
                l(3) =   1
                l(4) =   1
     Q(r) pseudized with  8 coefficients,  rinner =    0.800   0.800   0.800


     PseudoPot. # 5 for Y  read from file:
     ./pseudo/Y.pbe-nsp-van.UPF
     MD5 check sum: 4412fed3ab108fed87a1b7d6a69a4a38
     Pseudo is Ultrasoft + core correction, Zval = 11.0
     Generated by new atomic code, or converted to UPF format
     Using radial grid of  885 points,  6 beta functions with: 
                l(1) =   0
                l(2) =   0
                l(3) =   1
                l(4) =   1
                l(5) =   2
                l(6) =   2
     Q(r) pseudized with  6 coefficients,  rinner =    1.200   1.200   1.200
                                                       1.200   1.200

     atomic species   valence    mass     pseudopotential
        Ba            10.00   137.32700     Ba( 1.00)
        Ca            10.00    40.07800     Ca( 1.00)
        Cu            11.00    63.54600     Cu( 1.00)
        O              6.00    15.99900     O ( 1.00)
        Y             11.00    88.90584     Y ( 1.00)

      4 Sym. Ops. (no inversion) found ( 2 have fractional translation)



   Cartesian axes

     site n.     atom                  positions (alat units)
         1           O   tau(   1) = (  -0.0008343   0.2387265  -0.0222443  )
         2           O   tau(   2) = (   0.5008340   0.2387265  -0.0222443  )
         3           Cu  tau(   3) = (   0.5017257   0.0000000   0.0109608  )
         4           Cu  tau(   4) = (  -0.0017260   0.0000000   0.0109608  )
         5           O   tau(   5) = (  -0.0028933   0.0000000   0.2506504  )
         6           O   tau(   6) = (   0.5028929   0.0000000   0.2506504  )
         7           Ba  tau(   7) = (   0.7499995   0.2387265   0.2749435  )
         8           Ba  tau(   8) = (   0.2499998   0.2387265   0.2755214  )
         9           Cu  tau(   9) = (   0.4980963   0.0000000   0.5208446  )
        10           Cu  tau(  10) = (   0.0019033   0.0000000   0.5208446  )
        11           O   tau(  11) = (   0.2499998   0.0000000   0.5341884  )
        12           O   tau(  12) = (   0.5083351   0.2387265   0.5569851  )
        13           O   tau(  13) = (  -0.0083354   0.2387265   0.5569851  )
        14           O   tau(  14) = (   0.7499995   0.0000000   0.5573831  )
        15           Ca  tau(  15) = (   0.2499998   0.2387265   0.7436937  )
        16           Y   tau(  16) = (   0.7499995   0.2387265   0.7469544  )
        17           O   tau(  17) = (  -0.0063798   0.2387265   0.9248530  )
        18           O   tau(  18) = (   0.5063794   0.2387265   0.9248530  )
        19           O   tau(  19) = (   0.7499995   0.0000000   0.9338544  )
        20           O   tau(  20) = (   0.2499998   0.0000000   0.9461329  )
        21           Cu  tau(  21) = (   0.0015717   0.0000000   0.9686860  )
        22           Cu  tau(  22) = (   0.4984280   0.0000000   0.9686860  )
        23           Ba  tau(  23) = (   0.2499998   0.2387265   1.2085224  )
        24           Ba  tau(  24) = (   0.7499995   0.2387265   1.2233294  )
        25           O   tau(  25) = (   0.0063772   0.0000000   1.2547537  )
        26           O   tau(  26) = (   0.4936224   0.0000000   1.2547537  )
        27           O   tau(  27) = (   0.5384045   0.2387265   1.4952521  )
        28           O   tau(  28) = (  -0.0384049   0.2387265   1.4952521  )
        29           Cu  tau(  29) = (   0.5006120   0.0000000   1.4952546  )
        30           Cu  tau(  30) = (  -0.0006123   0.0000000   1.4952546  )
        31           O   tau(  31) = (   0.4936212   0.0000000   1.7357531  )
        32           O   tau(  32) = (   0.0063785   0.0000000   1.7357531  )
        33           Ba  tau(  33) = (   0.7499995   0.2387265   1.7671824  )
        34           Ba  tau(  34) = (   0.2499998   0.2387265   1.7819920  )
        35           Cu  tau(  35) = (   0.4984280   0.0000000   2.1812855  )
        36           Cu  tau(  36) = (   0.0015717   0.0000000   2.1812855  )
        37           O   tau(  37) = (   0.2499998   0.0000000   2.2038437  )
        38           O   tau(  38) = (   0.7499995   0.0000000   2.2161133  )
        39           O   tau(  39) = (   0.5063781   0.2387265   2.2251185  )
        40           O   tau(  40) = (  -0.0063785   0.2387265   2.2251185  )
        41           Y   tau(  41) = (   0.7499995   0.2387265   2.4030120  )
        42           Ca  tau(  42) = (   0.2499998   0.2387265   2.4062816  )
        43           O   tau(  43) = (   0.7499995   0.0000000   2.5925795  )
        44           O   tau(  44) = (  -0.0083354   0.2387265   2.5929813  )
        45           O   tau(  45) = (   0.5083351   0.2387265   2.5929813  )
        46           O   tau(  46) = (   0.2499998   0.0000000   2.6157793  )
        47           Cu  tau(  47) = (   0.0019059   0.0000000   2.6291129  )
        48           Cu  tau(  48) = (   0.4980938   0.0000000   2.6291129  )
        49           Ba  tau(  49) = (   0.2499998   0.2387265   2.8744526  )
        50           Ba  tau(  50) = (   0.7499995   0.2387265   2.8749948  )
        51           O   tau(  51) = (  -0.0028895   0.0000000   2.8993020  )
        52           O   tau(  52) = (   0.5028891   0.0000000   2.8993020  )
        53           Cu  tau(  53) = (   0.5017844   0.0000000   3.1389865  )
        54           Cu  tau(  54) = (  -0.0017847   0.0000000   3.1389865  )
        55           O   tau(  55) = (   0.5008990   0.2387265   3.1721929  )
        56           O   tau(  56) = (  -0.0008994   0.2387265   3.1721929  )

     number of k points=    25  Gaussian smearing, width (Ry)=  0.0100
                       cart. coord. in units 2pi/alat
        k(    1) = (   0.0000000   0.0000000   0.0000000), wk =   0.0312500
        k(    2) = (   0.0000000   0.2618060   0.0000000), wk =   0.0625000
        k(    3) = (   0.0000000   0.5236121   0.0000000), wk =   0.0625000
        k(    4) = (   0.0000000   0.7854181   0.0000000), wk =   0.0625000
        k(    5) = (   0.0000000  -1.0472241   0.0000000), wk =   0.0312500
        k(    6) = (   0.1250000   0.0000000   0.0000000), wk =   0.0625000
        k(    7) = (   0.1250000   0.2618060   0.0000000), wk =   0.1250000
        k(    8) = (   0.1250000   0.5236121   0.0000000), wk =   0.1250000
        k(    9) = (   0.1250000   0.7854181   0.0000000), wk =   0.1250000
        k(   10) = (   0.1250000  -1.0472241   0.0000000), wk =   0.0625000
        k(   11) = (   0.2500000   0.0000000   0.0000000), wk =   0.0625000
        k(   12) = (   0.2500000   0.2618060   0.0000000), wk =   0.1250000
        k(   13) = (   0.2500000   0.5236121   0.0000000), wk =   0.1250000
        k(   14) = (   0.2500000   0.7854181   0.0000000), wk =   0.1250000
        k(   15) = (   0.2500000  -1.0472241   0.0000000), wk =   0.0625000
        k(   16) = (   0.3750000   0.0000000   0.0000000), wk =   0.0625000
        k(   17) = (   0.3750000   0.2618060   0.0000000), wk =   0.1250000
        k(   18) = (   0.3750000   0.5236121   0.0000000), wk =   0.1250000
        k(   19) = (   0.3750000   0.7854181   0.0000000), wk =   0.1250000
        k(   20) = (   0.3750000  -1.0472241   0.0000000), wk =   0.0625000
        k(   21) = (  -0.5000000   0.0000000   0.0000000), wk =   0.0312500
        k(   22) = (  -0.5000000   0.2618060   0.0000000), wk =   0.0625000
        k(   23) = (  -0.5000000   0.5236121   0.0000000), wk =   0.0625000
        k(   24) = (  -0.5000000   0.7854181   0.0000000), wk =   0.0625000
        k(   25) = (  -0.5000000  -1.0472241   0.0000000), wk =   0.0312500

     Dense  grid:  2924709 G-vectors     FFT dimensions: ( 128,  64, 750)

     Smooth grid:   563163 G-vectors     FFT dimensions: (  80,  36, 432)

     Estimated max dynamical RAM per process >     847.57 MB

     Estimated total dynamical RAM >      26.49 GB

     Initial potential from superposition of free atoms

     starting charge  455.69457, renormalised to  456.00000

     negative rho (up, down):  9.331E-02 0.000E+00
     Starting wfcs are  396 randomized atomic wfcs

     total cpu time spent up to now is       26.3 secs

     Self-consistent Calculation

     iteration #  1     ecut=    60.00 Ry     beta= 0.50
     Davidson diagonalization with overlap
     ethr =  1.00E-02,  avg # of iterations =  2.0

     negative rho (up, down):  8.624E-02 0.000E+00

     total cpu time spent up to now is       72.8 secs

     total energy              =   -3708.30819085 Ry
     Harris-Foulkes estimate   =   -3716.50103537 Ry
     estimated scf accuracy    <      31.46734638 Ry

     iteration #  2     ecut=    60.00 Ry     beta= 0.50
     Davidson diagonalization with overlap
     ethr =  6.90E-03,  avg # of iterations =  2.0

     negative rho (up, down):  8.600E-02 0.000E+00

     total cpu time spent up to now is      118.6 secs

     total energy              =   -3711.07722269 Ry
     Harris-Foulkes estimate   =   -3712.39833114 Ry
     estimated scf accuracy    <       7.79460531 Ry

     iteration #  3     ecut=    60.00 Ry     beta= 0.50
     Davidson diagonalization with overlap
     ethr =  1.71E-03,  avg # of iterations =  1.6

     negative rho (up, down):  8.646E-02 0.000E+00

     total cpu time spent up to now is      162.7 secs

     total energy              =   -3711.66727396 Ry
     Harris-Foulkes estimate   =   -3711.97857204 Ry
     estimated scf accuracy    <       7.00211972 Ry

     iteration #  4     ecut=    60.00 Ry     beta= 0.50
     Davidson diagonalization with overlap
     ethr =  1.54E-03,  avg # of iterations =  1.0

     negative rho (up, down):  8.724E-02 0.000E+00

     total cpu time spent up to now is      205.3 secs

     total energy              =   -3711.72069991 Ry
     Harris-Foulkes estimate   =   -3711.82291046 Ry
     estimated scf accuracy    <       1.83004708 Ry

     iteration #  5     ecut=    60.00 Ry     beta= 0.50
     Davidson diagonalization with overlap
     ethr =  4.01E-04,  avg # of iterations =  2.1

     negative rho (up, down):  8.853E-02 0.000E+00

     total cpu time spent up to now is      250.5 secs

     total energy              =   -3711.68454478 Ry
     Harris-Foulkes estimate   =   -3711.79387366 Ry
     estimated scf accuracy    <       3.48948425 Ry

     iteration #  6     ecut=    60.00 Ry     beta= 0.50
     Davidson diagonalization with overlap
     ethr =  4.01E-04,  avg # of iterations =  1.7

     negative rho (up, down):  8.924E-02 0.000E+00

     total cpu time spent up to now is      294.5 secs

     total energy              =   -3711.70836636 Ry
     Harris-Foulkes estimate   =   -3711.72890370 Ry
     estimated scf accuracy    <       1.07669294 Ry

     iteration #  7     ecut=    60.00 Ry     beta= 0.50
     Davidson diagonalization with overlap
     ethr =  2.36E-04,  avg # of iterations =  5.7

     negative rho (up, down):  8.997E-02 0.000E+00

     total cpu time spent up to now is      350.2 secs

     total energy              =   -3711.70476958 Ry
     Harris-Foulkes estimate   =   -3711.72113546 Ry
     estimated scf accuracy    <       0.71878149 Ry

     iteration #  8     ecut=    60.00 Ry     beta= 0.50
     Davidson diagonalization with overlap
     ethr =  1.58E-04,  avg # of iterations =  6.8

     negative rho (up, down):  9.049E-02 0.000E+00

     total cpu time spent up to now is      409.2 secs

     total energy              =   -3711.69972144 Ry
     Harris-Foulkes estimate   =   -3711.71535799 Ry
     estimated scf accuracy    <       0.73854088 Ry

     iteration #  9     ecut=    60.00 Ry     beta= 0.50
     Davidson diagonalization with overlap
     ethr =  1.58E-04,  avg # of iterations =  2.7

     negative rho (up, down):  9.054E-02 0.000E+00

     total cpu time spent up to now is      455.8 secs

     total energy              =   -3711.69442433 Ry
     Harris-Foulkes estimate   =   -3711.70502129 Ry
     estimated scf accuracy    <       0.27451818 Ry

     iteration # 10     ecut=    60.00 Ry     beta= 0.50
     Davidson diagonalization with overlap
     ethr =  6.02E-05,  avg # of iterations =  8.4

     negative rho (up, down):  9.032E-02 0.000E+00

     total cpu time spent up to now is      519.8 secs

     total energy              =   -3711.68756670 Ry
     Harris-Foulkes estimate   =   -3711.69723378 Ry
     estimated scf accuracy    <       0.16166956 Ry

     iteration # 11     ecut=    60.00 Ry     beta= 0.50
     Davidson diagonalization with overlap
     c_bands:  3 eigenvalues not converged
     ethr =  3.55E-05,  avg # of iterations =  7.3

     negative rho (up, down):  8.997E-02 0.000E+00

     total cpu time spent up to now is      580.3 secs

     total energy              =   -3711.68772796 Ry
     Harris-Foulkes estimate   =   -3711.68987919 Ry
     estimated scf accuracy    <       0.05470064 Ry

     iteration # 12     ecut=    60.00 Ry     beta= 0.50
     Davidson diagonalization with overlap
     c_bands:  1 eigenvalues not converged
     ethr =  1.20E-05,  avg # of iterations =  8.2

     negative rho (up, down):  8.976E-02 0.000E+00

     total cpu time spent up to now is      642.9 secs

     total energy              =   -3711.68717413 Ry
     Harris-Foulkes estimate   =   -3711.68842219 Ry
     estimated scf accuracy    <       0.05484002 Ry

     iteration # 13     ecut=    60.00 Ry     beta= 0.50
     Davidson diagonalization with overlap
     ethr =  1.20E-05,  avg # of iterations =  1.7

     negative rho (up, down):  9.026E-02 0.000E+00

     total cpu time spent up to now is      686.5 secs

     total energy              =   -3711.68518945 Ry
     Harris-Foulkes estimate   =   -3711.68741916 Ry
     estimated scf accuracy    <       0.05343800 Ry

     iteration # 14     ecut=    60.00 Ry     beta= 0.50
     Davidson diagonalization with overlap
     ethr =  1.17E-05,  avg # of iterations =  3.0

     negative rho (up, down):  9.426E-02 0.000E+00

     total cpu time spent up to now is      733.9 secs

     total energy              =   -3711.68368883 Ry
     Harris-Foulkes estimate   =   -3711.68544040 Ry
     estimated scf accuracy    <       0.05116715 Ry

     iteration # 15     ecut=    60.00 Ry     beta= 0.50
     Davidson diagonalization with overlap
     c_bands:  2 eigenvalues not converged
     ethr =  1.12E-05,  avg # of iterations =  5.2

     negative rho (up, down):  1.041E-01 0.000E+00

     total cpu time spent up to now is      786.5 secs

     total energy              =   -3711.68163184 Ry
     Harris-Foulkes estimate   =   -3711.68384079 Ry
     estimated scf accuracy    <       0.04078037 Ry

     iteration # 16     ecut=    60.00 Ry     beta= 0.50
     Davidson diagonalization with overlap
     ethr =  8.94E-06,  avg # of iterations =  8.7

     negative rho (up, down):  1.209E-01 0.000E+00

     total cpu time spent up to now is      851.3 secs

     total energy              =   -3711.67938608 Ry
     Harris-Foulkes estimate   =   -3711.68175361 Ry
     estimated scf accuracy    <       0.03058157 Ry

     iteration # 17     ecut=    60.00 Ry     beta= 0.50
     Davidson diagonalization with overlap
     ethr =  6.71E-06,  avg # of iterations = 10.3

     negative rho (up, down):  1.181E-01 0.000E+00

     total cpu time spent up to now is      922.3 secs

     total energy              =   -3711.67886058 Ry
     Harris-Foulkes estimate   =   -3711.67961280 Ry
     estimated scf accuracy    <       0.02395178 Ry

     iteration # 18     ecut=    60.00 Ry     beta= 0.50
     Davidson diagonalization with overlap
     ethr =  5.25E-06,  avg # of iterations =  7.0

     negative rho (up, down):  1.120E-01 0.000E+00

     total cpu time spent up to now is      981.0 secs

     total energy              =   -3711.67849638 Ry
     Harris-Foulkes estimate   =   -3711.67901309 Ry
     estimated scf accuracy    <       0.00943003 Ry

     iteration # 19     ecut=    60.00 Ry     beta= 0.50
     Davidson diagonalization with overlap
     ethr =  2.07E-06,  avg # of iterations = 11.0

     negative rho (up, down):  9.651E-02 0.000E+00

     total cpu time spent up to now is     1053.3 secs

     total energy              =   -3711.67820441 Ry
     Harris-Foulkes estimate   =   -3711.67859517 Ry
     estimated scf accuracy    <       0.00277977 Ry

     iteration # 20     ecut=    60.00 Ry     beta= 0.50
     Davidson diagonalization with overlap
     c_bands:  1 eigenvalues not converged
     c_bands:  1 eigenvalues not converged
     c_bands:  1 eigenvalues not converged
     c_bands:  2 eigenvalues not converged
     c_bands:  1 eigenvalues not converged
     c_bands:  1 eigenvalues not converged
     c_bands:  1 eigenvalues not converged
     c_bands:  1 eigenvalues not converged
     ethr =  6.10E-07,  avg # of iterations = 12.3

     negative rho (up, down):  9.094E-02 0.000E+00

     total cpu time spent up to now is     1128.4 secs

     total energy              =   -3711.67821556 Ry
     Harris-Foulkes estimate   =   -3711.67826767 Ry
     estimated scf accuracy    <       0.00173659 Ry

     iteration # 21     ecut=    60.00 Ry     beta= 0.50
     Davidson diagonalization with overlap
     c_bands:  2 eigenvalues not converged
     c_bands:  1 eigenvalues not converged
     c_bands:  2 eigenvalues not converged
     c_bands:  1 eigenvalues not converged
     c_bands:  1 eigenvalues not converged
     c_bands:  1 eigenvalues not converged
     c_bands:  2 eigenvalues not converged
     c_bands:  1 eigenvalues not converged
     ethr =  3.81E-07,  avg # of iterations = 12.6

     negative rho (up, down):  9.467E-02 0.000E+00

     total cpu time spent up to now is     1204.2 secs

     total energy              =   -3711.67819388 Ry
     Harris-Foulkes estimate   =   -3711.67826691 Ry
     estimated scf accuracy    <       0.00089160 Ry

     iteration # 22     ecut=    60.00 Ry     beta= 0.50
     Davidson diagonalization with overlap
     ethr =  1.96E-07,  avg # of iterations =  9.4

     negative rho (up, down):  9.398E-02 0.000E+00

     total cpu time spent up to now is     1270.5 secs

     total energy              =   -3711.67825544 Ry
     Harris-Foulkes estimate   =   -3711.67821670 Ry
     estimated scf accuracy    <       0.00019919 Ry

     iteration # 23     ecut=    60.00 Ry     beta= 0.50
     Davidson diagonalization with overlap
     ethr =  4.37E-08,  avg # of iterations =  5.0

     negative rho (up, down):  9.222E-02 0.000E+00

     total cpu time spent up to now is     1322.9 secs

     total energy              =   -3711.67823314 Ry
     Harris-Foulkes estimate   =   -3711.67826277 Ry
     estimated scf accuracy    <       0.00014906 Ry

     iteration # 24     ecut=    60.00 Ry     beta= 0.50
     Davidson diagonalization with overlap
     c_bands:  1 eigenvalues not converged
     c_bands:  1 eigenvalues not converged
     ethr =  3.27E-08,  avg # of iterations =  7.2

     negative rho (up, down):  9.217E-02 0.000E+00

     total cpu time spent up to now is     1381.5 secs

     total energy              =   -3711.67823274 Ry
     Harris-Foulkes estimate   =   -3711.67823682 Ry
     estimated scf accuracy    <       0.00004610 Ry

     iteration # 25     ecut=    60.00 Ry     beta= 0.50
     Davidson diagonalization with overlap
     c_bands:  1 eigenvalues not converged
     ethr =  1.01E-08,  avg # of iterations =  2.0

     negative rho (up, down):  9.200E-02 0.000E+00

     total cpu time spent up to now is     1426.0 secs

     total energy              =   -3711.67822991 Ry
     Harris-Foulkes estimate   =   -3711.67823422 Ry
     estimated scf accuracy    <       0.00003156 Ry

     iteration # 26     ecut=    60.00 Ry     beta= 0.50
     Davidson diagonalization with overlap
     ethr =  6.92E-09,  avg # of iterations =  1.9

     negative rho (up, down):  9.183E-02 0.000E+00

     total cpu time spent up to now is     1470.1 secs

     total energy              =   -3711.67823192 Ry
     Harris-Foulkes estimate   =   -3711.67823142 Ry
     estimated scf accuracy    <       0.00000319 Ry

     iteration # 27     ecut=    60.00 Ry     beta= 0.50
     Davidson diagonalization with overlap
     ethr =  6.99E-10,  avg # of iterations =  3.1

     negative rho (up, down):  9.204E-02 0.000E+00

     total cpu time spent up to now is     1519.8 secs

     total energy              =   -3711.67823156 Ry
     Harris-Foulkes estimate   =   -3711.67823227 Ry
     estimated scf accuracy    <       0.00000744 Ry

     iteration # 28     ecut=    60.00 Ry     beta= 0.50
     Davidson diagonalization with overlap
     ethr =  6.99E-10,  avg # of iterations =  1.2

     negative rho (up, down):  9.202E-02 0.000E+00

     total cpu time spent up to now is     1561.7 secs

     total energy              =   -3711.67823175 Ry
     Harris-Foulkes estimate   =   -3711.67823175 Ry
     estimated scf accuracy    <       0.00000371 Ry

     iteration # 29     ecut=    60.00 Ry     beta= 0.50
     Davidson diagonalization with overlap
     ethr =  6.99E-10,  avg # of iterations =  1.0

     negative rho (up, down):  9.199E-02 0.000E+00

     total cpu time spent up to now is     1603.3 secs

     total energy              =   -3711.67823183 Ry
     Harris-Foulkes estimate   =   -3711.67823182 Ry
     estimated scf accuracy    <       0.00000128 Ry

     iteration # 30     ecut=    60.00 Ry     beta= 0.50
     Davidson diagonalization with overlap
     ethr =  2.81E-10,  avg # of iterations =  1.0

     negative rho (up, down):  9.199E-02 0.000E+00

     total cpu time spent up to now is     1645.0 secs

     total energy              =   -3711.67823185 Ry
     Harris-Foulkes estimate   =   -3711.67823185 Ry
     estimated scf accuracy    <       0.00000072 Ry

     iteration # 31     ecut=    60.00 Ry     beta= 0.50
     Davidson diagonalization with overlap
     ethr =  1.58E-10,  avg # of iterations =  1.0

     negative rho (up, down):  9.200E-02 0.000E+00

     total cpu time spent up to now is     1686.3 secs

     total energy              =   -3711.67823185 Ry
     Harris-Foulkes estimate   =   -3711.67823186 Ry
     estimated scf accuracy    <       0.00000031 Ry

     iteration # 32     ecut=    60.00 Ry     beta= 0.50
     Davidson diagonalization with overlap
     ethr =  6.80E-11,  avg # of iterations =  1.5

     negative rho (up, down):  9.203E-02 0.000E+00

     total cpu time spent up to now is     1728.7 secs

     total energy              =   -3711.67823180 Ry
     Harris-Foulkes estimate   =   -3711.67823185 Ry
     estimated scf accuracy    <       0.00000014 Ry

     iteration # 33     ecut=    60.00 Ry     beta= 0.50
     Davidson diagonalization with overlap
     ethr =  3.08E-11,  avg # of iterations =  1.7

     negative rho (up, down):  9.203E-02 0.000E+00

     total cpu time spent up to now is     1771.7 secs

     total energy              =   -3711.67823180 Ry
     Harris-Foulkes estimate   =   -3711.67823181 Ry
     estimated scf accuracy    <       0.00000005 Ry

     iteration # 34     ecut=    60.00 Ry     beta= 0.50
     Davidson diagonalization with overlap
     ethr =  1.03E-11,  avg # of iterations =  2.3

     negative rho (up, down):  9.203E-02 0.000E+00

     total cpu time spent up to now is     1816.9 secs

     total energy              =   -3711.67823181 Ry
     Harris-Foulkes estimate   =   -3711.67823180 Ry
     estimated scf accuracy    <       0.00000002 Ry

     iteration # 35     ecut=    60.00 Ry     beta= 0.50
     Davidson diagonalization with overlap
     ethr =  4.33E-12,  avg # of iterations =  1.7

     negative rho (up, down):  9.203E-02 0.000E+00

     total cpu time spent up to now is     1860.3 secs

     total energy              =   -3711.67823181 Ry
     Harris-Foulkes estimate   =   -3711.67823181 Ry
     estimated scf accuracy    <       0.00000002 Ry

     iteration # 36     ecut=    60.00 Ry     beta= 0.50
     Davidson diagonalization with overlap
     ethr =  4.33E-12,  avg # of iterations =  1.0

     negative rho (up, down):  9.200E-02 0.000E+00

     total cpu time spent up to now is     1900.9 secs

     End of self-consistent calculation

          k = 0.0000 0.0000 0.0000 ( 70419 PWs)   bands (ev):

   -38.0930 -37.8607 -35.7205 -35.4554 -23.7138 -23.4054 -22.8785 -22.8608
   -22.7502 -22.7329 -22.6790 -22.5290 -18.5682 -18.4639 -18.3075 -18.2477
   -18.0961 -17.8723 -17.0685 -16.9331 -16.7744 -16.7501 -16.6864 -16.4964
   -15.4787 -15.2856 -15.0875 -15.0327 -15.0050 -14.9329 -14.7260 -14.6238
   -14.6018 -14.5467 -14.5329 -14.5162 -14.3947 -14.3821 -14.2750 -14.1670
   -14.0888 -14.0864 -14.0648 -14.0524 -14.0481 -14.0437 -14.0287 -14.0224
   -13.9559 -13.7829 -13.7152 -13.6817 -13.6143 -13.5015  -9.0434  -8.6813
    -8.5173  -8.4588  -8.2372  -8.1752  -8.1166  -8.0950  -8.0089  -7.9895
    -7.9530  -7.9280  -7.9119  -7.8627  -7.7898  -7.7725  -7.6934  -7.6773
    -7.6735  -7.5535  -7.5518  -7.5346  -7.4883  -7.3316  -3.0472  -3.0145
    -2.8808  -2.5663  -2.2348  -2.2256  -2.1477  -2.1430  -2.1066  -2.0357
    -2.0176  -2.0048  -1.9420  -1.9031  -1.8673  -1.8314  -1.7459  -1.7288
    -1.6963  -1.6512  -1.6443  -1.6325  -1.5957  -1.5953  -1.5162  -1.3941
    -1.3723  -1.2580  -1.2471  -1.1689  -1.1050  -1.0866  -1.0015  -0.9901
    -0.9837  -0.9831  -0.9826  -0.9811  -0.9435  -0.8932  -0.8783  -0.8237
    -0.8082  -0.7904  -0.7558  -0.7517  -0.7242  -0.7055  -0.6552  -0.5940
    -0.5537  -0.4531  -0.3970  -0.3382  -0.3163  -0.3128  -0.2494  -0.2211
    -0.1972  -0.1928  -0.1926  -0.1889  -0.1475  -0.1141  -0.0868  -0.0584
    -0.0157  -0.0065  -0.0042  -0.0039   0.0017   0.0337   0.0568   0.1151
     0.1155   0.1225   0.1402   0.1507   0.1672   0.2011   0.2105   0.2121
     0.2494   0.2513   0.2532   0.3184   0.3475   0.3541   0.3678   0.4521
     0.5078   0.5122   0.5226   0.5268   0.5284   0.5367   0.5439   0.5459
     0.6364   0.6637   0.6671   0.7643   0.8430   0.9278   0.9574   0.9804
     0.9944   1.0299   1.0322   1.0716   1.0754   1.1166   1.1382   1.1774
     1.2031   1.2147   1.2246   1.2738   1.2924   1.3154   1.3160   1.3568
     1.3877   1.4031   1.4126   1.4138   1.4158   1.4955   1.5757   1.5941
     1.6164   1.7070   1.7109   1.7486   1.7815   1.7839   1.8081   1.8183
     1.8606   1.8785   1.9185   1.9258   1.9266   2.0226   2.0532   2.0587
     2.1134   2.1653   2.2394   2.2484   2.2963   2.2969   2.3436   2.4254
     2.5704   2.5732   2.5870   2.6134   2.8543   2.8603   5.0410   5.2214
     5.2749   5.7862   5.8770   6.1102   6.5944   6.6358   6.6647   6.9483
     6.9504   7.2695   7.2822   7.3626   7.3636   7.4808   7.6585   7.9174
     7.9551   8.0727   8.1186   8.1343   8.2777   8.3219   8.3305   8.4251
     8.4906   8.5212   8.5901   8.6287   8.6590   8.9694   9.0098   9.0586
     9.1355   9.1841

          k = 0.0000 0.2618 0.0000 ( 70389 PWs)   bands (ev):

   -38.0903 -37.8580 -35.7188 -35.4537 -23.6947 -23.3876 -22.8540 -22.8362
   -22.7311 -22.7138 -22.6554 -22.5102 -18.5296 -18.4567 -18.2686 -18.2405
   -18.2070 -17.9833 -17.0390 -16.9288 -16.8161 -16.7446 -16.6819 -16.5624
   -15.3725 -15.1881 -15.0204 -14.9747 -14.9483 -14.8853 -14.6874 -14.6218
   -14.5664 -14.5379 -14.5078 -14.4596 -14.3448 -14.3292 -14.2530 -14.1627
   -14.1160 -14.0971 -14.0573 -14.0471 -14.0372 -14.0292 -14.0155 -13.9959
   -13.9942 -13.7847 -13.7544 -13.7345 -13.6849 -13.5173  -9.0292  -8.6700
    -8.5344  -8.5312  -8.3414  -8.3056  -8.1099  -8.0888  -8.0216  -8.0030
    -7.9642  -7.8843  -7.8685  -7.8524  -7.8319  -7.8253  -7.8144  -7.8088
    -7.7590  -7.7422  -7.6568  -7.5951  -7.5818  -7.5452  -3.1477  -3.0973
    -2.9427  -2.6159  -2.3537  -2.3229  -2.2633  -2.2472  -2.2357  -2.1238
    -2.1111  -2.0776  -2.0491  -2.0288  -1.9822  -1.9785  -1.9716  -1.9521
    -1.9136  -1.8153  -1.7597  -1.6980  -1.6757  -1.6210  -1.5740  -1.5210
    -1.4311  -1.4281  -1.4139  -1.4121  -1.3977  -1.3959  -1.3490  -1.3385
    -1.3349  -1.3193  -1.1347  -1.0553  -0.9903  -0.8673  -0.8439  -0.7998
    -0.7700  -0.7440  -0.7184  -0.6896  -0.6640  -0.6417  -0.5754  -0.5539
    -0.5479  -0.4795  -0.4193  -0.4083  -0.4025  -0.3594  -0.3548  -0.3386
    -0.3298  -0.3027  -0.2652  -0.2053  -0.1753  -0.1568  -0.1505  -0.1329
    -0.0762  -0.0749  -0.0207  -0.0008   0.0009   0.0679   0.0905   0.1185
     0.1485   0.1584   0.1676   0.1792   0.2207   0.2461   0.2748   0.2757
     0.3188   0.3198   0.3627   0.3792   0.3800   0.3834   0.4046   0.4244
     0.4478   0.4568   0.5582   0.5596   0.5848   0.6476   0.6553   0.6563
     0.6770   0.7750   0.7975   0.8377   0.8650   0.9215   0.9662   0.9757
     1.0180   1.0236   1.1147   1.1318   1.1412   1.1702   1.1735   1.2142
     1.2181   1.2458   1.2564   1.3073   1.3504   1.3800   1.3895   1.3992
     1.4142   1.4486   1.4564   1.4594   1.4797   1.5243   1.5268   1.5453
     1.5729   1.6951   1.7126   1.7154   1.7270   1.7312   1.8229   1.8285
     1.8309   1.8780   1.8970   1.9138   1.9394   1.9707   2.0375   2.1114
     2.1407   2.2016   2.3219   2.3925   2.7972   2.8124   2.8146   2.8696
     2.8862   2.9301   2.9717   3.0152   3.1783   3.2569   5.3285   5.6033
     5.6187   6.0759   6.1316   6.2544   6.7872   6.9399   6.9401   6.9622
     7.1043   7.1116   7.1532   7.5798   7.6369   7.6471   7.7002   7.7561
     7.8688   7.9100   8.1577   8.2402   8.2786   8.3731   8.4457   8.5941
     8.6207   8.6899   8.7543   8.8325   8.8734   8.9786   9.0062   9.1226
     9.2023   9.2472

          k = 0.0000 0.5236 0.0000 ( 70325 PWs)   bands (ev):

   -38.0838 -37.8515 -35.7147 -35.4495 -23.6477 -23.3438 -22.7934 -22.7755
   -22.6843 -22.6670 -22.5974 -22.4641 -18.4472 -18.4392 -18.4298 -18.2244
   -18.2229 -18.1676 -16.9690 -16.9558 -16.9183 -16.7101 -16.6711 -16.6655
   -15.1320 -14.9794 -14.8484 -14.8105 -14.7969 -14.7588 -14.6804 -14.5946
   -14.5941 -14.5059 -14.4838 -14.2860 -14.2663 -14.2533 -14.2346 -14.2197
   -14.1560 -14.0882 -14.0726 -14.0209 -14.0179 -13.9895 -13.9839 -13.9305
   -13.9162 -13.8666 -13.8432 -13.8066 -13.7830 -13.5459  -8.9910  -8.9251
    -8.7257  -8.6161  -8.5058  -8.3058  -8.2974  -8.2798  -8.1378  -8.1219
    -8.0837  -8.0731  -8.0521  -8.0024  -7.9843  -7.9235  -7.8965  -7.8936
    -7.8795  -7.8168  -7.7674  -7.7510  -7.6801  -7.5129  -3.5404  -3.4429
    -3.1879  -2.8517  -2.8416  -2.7987  -2.7385  -2.6342  -2.6257  -2.4664
    -2.4401  -2.3715  -2.3173  -2.2828  -2.2789  -2.2413  -2.2409  -2.1211
    -2.0986  -2.0970  -2.0885  -2.0852  -2.0254  -2.0141  -1.9806  -1.8721
    -1.7955  -1.7069  -1.7009  -1.6726  -1.6085  -1.5281  -1.5197  -1.4798
    -1.4329  -1.2880  -1.2420  -1.1599  -0.9959  -0.9710  -0.9433  -0.9125
    -0.9001  -0.8590  -0.8485  -0.8455  -0.8335  -0.7266  -0.6957  -0.6655
    -0.6506  -0.6275  -0.5966  -0.5723  -0.5499  -0.5280  -0.5219  -0.5214
    -0.4615  -0.4413  -0.4287  -0.4254  -0.3994  -0.3524  -0.3504  -0.3491
    -0.3187  -0.2814  -0.2536  -0.2410  -0.1856   0.0464   0.1211   0.1283
     0.1765   0.1915   0.2067   0.2096   0.2192   0.2615   0.2797   0.3123
     0.3556   0.4029   0.5347   0.5532   0.5648   0.5955   0.6203   0.6533
     0.7381   0.7701   0.7776   0.8239   0.8271   0.8361   0.9204   0.9709
     1.0255   1.0320   1.0657   1.0861   1.1290   1.1902   1.2108   1.2328
     1.2419   1.2420   1.2449   1.2482   1.2541   1.2617   1.2648   1.2933
     1.3546   1.3773   1.3955   1.4077   1.4310   1.4453   1.4668   1.4775
     1.5189   1.5669   1.5672   1.5833   1.6352   1.6372   1.6516   1.7273
     1.7320   1.7959   1.8153   1.8211   1.8213   1.8577   1.8982   1.9060
     1.9123   1.9301   2.0199   2.0355   2.0670   2.0708   2.0726   2.1059
     2.1150   2.2334   2.4373   2.4897   3.0708   3.0735   3.1086   3.1162
     3.5453   3.5981   3.8203   3.8495   3.9405   4.0936   5.5805   6.3265
     6.5029   6.5056   6.6231   6.6311   6.7850   6.7891   6.9519   7.0922
     7.2503   7.4479   7.5471   7.6719   7.8048   7.8297   8.1202   8.2159
     8.4197   8.4355   8.4770   8.6232   8.6248   8.6840   8.7237   8.7389
     8.7393   8.8701   8.8775   8.9545   9.0217   9.0707   9.2559   9.2781
     9.2924   9.4437

          k = 0.0000 0.7854 0.0000 ( 70318 PWs)   bands (ev):

   -38.0773 -37.8449 -35.7106 -35.4454 -23.5998 -23.2990 -22.7311 -22.7131
   -22.6363 -22.6191 -22.5378 -22.4170 -18.6560 -18.4333 -18.4218 -18.3240
   -18.2054 -18.0612 -17.0908 -16.9080 -16.8826 -16.8375 -16.6605 -16.5856
   -14.9149 -14.8543 -14.7845 -14.6605 -14.6298 -14.6082 -14.6011 -14.5768
   -14.5714 -14.5074 -14.4196 -14.3714 -14.3560 -14.2080 -14.1908 -14.1746
   -14.1623 -14.0707 -14.0577 -13.9753 -13.9701 -13.9668 -13.9382 -13.9376
   -13.9225 -13.8937 -13.8451 -13.8002 -13.7503 -13.5486  -9.3261  -8.9883
    -8.9398  -8.6924  -8.6748  -8.6266  -8.5434  -8.4574  -8.4329  -8.4168
    -8.2593  -8.1233  -8.0769  -8.0564  -8.0084  -7.9887  -7.9732  -7.9657
    -7.9486  -7.7959  -7.7525  -7.6462  -7.6297  -7.4020  -4.0250  -3.9152
    -3.5917  -3.2973  -3.2580  -3.2381  -3.2093  -3.1711  -2.9935  -2.8584
    -2.8574  -2.7923  -2.7916  -2.7435  -2.6120  -2.5956  -2.4436  -2.3510
    -2.2395  -2.2302  -2.2055  -2.1973  -2.1386  -2.1337  -2.0428  -2.0246
    -1.9457  -1.8846  -1.7552  -1.7436  -1.6794  -1.6618  -1.6316  -1.5758
    -1.4785  -1.2116  -1.2030  -1.1953  -1.1684  -1.1503  -1.1282  -1.0718
    -1.0322  -1.0308  -1.0096  -0.9971  -0.9963  -0.9633  -0.9267  -0.8666
    -0.8119  -0.8081  -0.7818  -0.7439  -0.7405  -0.7157  -0.7100  -0.7025
    -0.6189  -0.6022  -0.5993  -0.5904  -0.5585  -0.5558  -0.5112  -0.4166
    -0.4128  -0.3816  -0.2302  -0.2081  -0.2066   0.0050   0.0380   0.0629
     0.1490   0.1899   0.1974   0.2167   0.2332   0.2936   0.3034   0.3467
     0.3671   0.5240   0.6121   0.6773   0.6789   0.7277   0.7903   0.7964
     0.8488   0.8867   0.9958   0.9985   1.0295   1.0331   1.0653   1.0903
     1.1047   1.1470   1.2486   1.2527   1.3035   1.3190   1.3343   1.3433
     1.3556   1.3746   1.3994   1.4116   1.4766   1.4942   1.5238   1.5315
     1.5490   1.5916   1.6494   1.6535   1.6636   1.7061   1.7333   1.7405
     1.7472   1.7570   1.7796   1.8190   1.8212   1.8228   1.8467   1.8536
     1.8799   1.9354   1.9640   2.0192   2.0234   2.0398   2.0479   2.0536
     2.0834   2.1575   2.1640   2.1832   2.2410   2.2506   2.2517   2.3900
     2.4136   2.4283   2.4743   2.4749   2.9167   2.9210   3.0214   3.0284
     3.8807   3.9232   4.4664   4.4960   4.5304   4.6854   5.3595   6.0914
     6.0996   6.5166   6.7410   6.7503   6.9038   7.4290   7.4435   7.5520
     7.6542   7.8230   7.9700   8.0863   8.1926   8.4039   8.4567   8.5867
     8.6323   8.6760   8.7365   8.7848   8.8285   8.9199   8.9199   9.0417
     9.0749   9.1651   9.1881   9.2117   9.2786   9.4065   9.4636   9.4781
     9.6078   9.6355

          k = 0.0000-1.0472 0.0000 ( 70362 PWs)   bands (ev):

   -38.0746 -37.8422 -35.7089 -35.4437 -23.5797 -23.2802 -22.7047 -22.6867
   -22.6161 -22.5989 -22.5126 -22.3971 -18.7366 -18.5139 -18.4146 -18.2767
   -18.1981 -18.0137 -17.1412 -16.9037 -16.8876 -16.8469 -16.6561 -16.5495
   -14.9213 -14.8752 -14.7219 -14.6431 -14.5724 -14.5577 -14.4928 -14.4868
   -14.4770 -14.4370 -14.4336 -14.4295 -14.4103 -14.2595 -14.2283 -14.1799
   -14.1470 -14.1257 -14.0017 -13.9641 -13.9448 -13.9436 -13.9384 -13.9216
   -13.9198 -13.8904 -13.8072 -13.7694 -13.7559 -13.5288  -9.4841  -9.1006
    -8.9114  -8.8457  -8.8281  -8.6590  -8.6105  -8.5516  -8.5355  -8.5303
    -8.3030  -8.1468  -8.0829  -8.0615  -8.0027  -7.9933  -7.9824  -7.9820
    -7.9762  -7.7967  -7.7695  -7.5936  -7.5771  -7.3536  -4.2271  -4.1173
    -3.7783  -3.5042  -3.4459  -3.3978  -3.3781  -3.3696  -3.1399  -3.0935
    -3.0901  -3.0226  -3.0217  -2.8906  -2.6408  -2.6248  -2.4769  -2.4656
    -2.3549  -2.2561  -2.2278  -2.2234  -2.1258  -2.1209  -2.0552  -2.0510
    -2.0239  -1.9523  -1.8681  -1.8580  -1.7614  -1.6646  -1.5758  -1.4773
    -1.3246  -1.2985  -1.2872  -1.2506  -1.2330  -1.2222  -1.2127  -1.1886
    -1.1058  -1.0753  -1.0528  -1.0516  -1.0491  -1.0197  -1.0008  -0.9660
    -0.9461  -0.8960  -0.8316  -0.8315  -0.8307  -0.8152  -0.8131  -0.7227
    -0.6897  -0.6884  -0.6835  -0.6813  -0.6411  -0.5617  -0.4909  -0.3980
    -0.3834  -0.3792  -0.2283  -0.1730  -0.1719  -0.0705  -0.0595  -0.0084
     0.1412   0.1567   0.2131   0.2230   0.2495   0.2847   0.2921   0.3440
     0.4070   0.5567   0.5877   0.6257   0.6628   0.7366   0.8807   0.8961
     0.8967   0.8995   0.9206   1.0512   1.0908   1.1285   1.1928   1.2239
     1.2240   1.2414   1.2948   1.3000   1.3517   1.3742   1.3933   1.4023
     1.4035   1.4192   1.4532   1.4677   1.4799   1.4967   1.5656   1.5674
     1.5890   1.7025   1.7127   1.7376   1.7905   1.8125   1.8136   1.8327
     1.8415   1.8706   1.9200   1.9390   1.9436   1.9608   1.9855   1.9873
     2.0119   2.0499   2.0789   2.1844   2.1850   2.1856   2.2031   2.2211
     2.2235   2.2355   2.2368   2.2428   2.2444   2.3167   2.3955   2.4537
     2.4538   2.5735   2.6375   2.6383   2.6818   2.6898   2.8522   2.8587
     3.9184   3.9844   4.6723   4.7097   4.7413   4.8836   5.2790   5.8521
     5.8603   6.4033   6.6298   6.7227   7.2400   7.5326   7.5956   7.8175
     7.8319   7.8427   8.2130   8.2485   8.3905   8.3943   8.5301   8.6204
     8.8126   8.8233   8.9086   8.9287   8.9998   9.0176   9.1426   9.1556
     9.1805   9.2304   9.2544   9.2799   9.2843   9.3720   9.3828   9.5260
     9.5741   9.7459

          k = 0.1250 0.0000 0.0000 ( 70409 PWs)   bands (ev):

   -38.0930 -37.8607 -35.7205 -35.4554 -23.7128 -23.4067 -22.8741 -22.8563
   -22.7550 -22.7377 -22.6756 -22.5326 -18.5675 -18.4607 -18.3067 -18.2446
   -18.0961 -17.8723 -17.0715 -16.9451 -16.7775 -16.7501 -16.6987 -16.4964
   -15.4512 -15.2593 -15.0775 -15.0201 -14.9911 -14.9362 -14.7184 -14.6361
   -14.6049 -14.5938 -14.5442 -14.5242 -14.4032 -14.3488 -14.2820 -14.1617
   -14.0997 -14.0732 -14.0615 -14.0558 -14.0473 -14.0380 -14.0334 -14.0196
   -13.9607 -13.7824 -13.7143 -13.6953 -13.6217 -13.5011  -9.0464  -8.6926
    -8.5006  -8.4548  -8.2385  -8.1797  -8.1189  -8.0974  -8.0131  -7.9939
    -7.9571  -7.9142  -7.8980  -7.8706  -7.7815  -7.7642  -7.7000  -7.6838
    -7.6586  -7.5612  -7.5459  -7.5440  -7.4905  -7.3401  -3.0124  -2.9794
    -2.8479  -2.5309  -2.2309  -2.2207  -2.1664  -2.1598  -2.1030  -2.0518
    -2.0224  -2.0019  -1.9555  -1.9008  -1.8790  -1.8726  -1.7367  -1.7363
    -1.7322  -1.6513  -1.6414  -1.6386  -1.5960  -1.5759  -1.5011  -1.4368
    -1.4259  -1.2773  -1.2363  -1.1140  -1.0940  -1.0432  -1.0139  -0.9846
    -0.9823  -0.9807  -0.9806  -0.9795  -0.9213  -0.9000  -0.8808  -0.8445
    -0.7901  -0.7569  -0.7357  -0.7319  -0.7279  -0.7149  -0.6299  -0.5615
    -0.5507  -0.4535  -0.3800  -0.3674  -0.3578  -0.3191  -0.2584  -0.2466
    -0.2393  -0.2159  -0.2113  -0.2028  -0.1499  -0.1227  -0.1076  -0.0670
    -0.0196  -0.0094  -0.0083  -0.0025   0.0031   0.0147   0.0216   0.0907
     0.0972   0.1628   0.1671   0.1918   0.1965   0.2065   0.2130   0.2139
     0.2492   0.2505   0.2748   0.3022   0.3604   0.3777   0.3859   0.4517
     0.4600   0.4953   0.5174   0.5189   0.5223   0.5306   0.5581   0.5750
     0.6648   0.6656   0.7142   0.7434   0.8613   0.8766   0.9303   0.9578
     0.9747   1.0279   1.0586   1.0592   1.0919   1.0947   1.1169   1.1465
     1.1689   1.1923   1.2242   1.2475   1.2631   1.3148   1.3537   1.3602
     1.3887   1.3999   1.4163   1.4279   1.4482   1.4895   1.5650   1.6078
     1.7021   1.7080   1.7088   1.7251   1.7519   1.7864   1.8029   1.8292
     1.8606   1.8768   1.9065   1.9112   1.9306   2.0400   2.0458   2.0665
     2.0999   2.1985   2.2217   2.2372   2.2869   2.3089   2.3420   2.4261
     2.5777   2.5794   2.5907   2.6244   2.8515   2.8549   5.1007   5.2709
     5.3170   5.8419   5.9311   6.1230   6.6202   6.6844   6.7108   6.9037
     6.9046   6.9356   7.0041   7.4750   7.6004   7.7268   7.7351   7.8711
     7.9542   8.0619   8.1258   8.1355   8.2430   8.3315   8.3409   8.4154
     8.4940   8.5317   8.6336   8.6424   8.7052   8.8942   9.0126   9.0444
     9.1530   9.1772

          k = 0.1250 0.2618 0.0000 ( 70383 PWs)   bands (ev):

   -38.0903 -37.8580 -35.7188 -35.4537 -23.6936 -23.3888 -22.8497 -22.8319
   -22.7357 -22.7184 -22.6522 -22.5137 -18.5289 -18.4535 -18.2679 -18.2373
   -18.2069 -17.9833 -17.0418 -16.9402 -16.8160 -16.7476 -16.6936 -16.5623
   -15.3458 -15.1632 -15.0111 -14.9646 -14.9366 -14.8881 -14.6807 -14.6276
   -14.5684 -14.5453 -14.5197 -14.5120 -14.3373 -14.3058 -14.2565 -14.1580
   -14.1183 -14.1036 -14.0533 -14.0479 -14.0378 -14.0304 -14.0098 -13.9997
   -13.9959 -13.7870 -13.7519 -13.7435 -13.6884 -13.5162  -9.0305  -8.6799
    -8.5684  -8.5330  -8.3169  -8.2819  -8.1118  -8.0909  -8.0275  -8.0091
    -7.9678  -7.9403  -7.9238  -7.8676  -7.8583  -7.8508  -7.7695  -7.7525
    -7.7125  -7.6958  -7.6945  -7.6474  -7.5243  -7.5010  -3.1117  -3.0608
    -2.9073  -2.5788  -2.3624  -2.3315  -2.2687  -2.2385  -2.2278  -2.1321
    -2.1162  -2.0772  -2.0505  -2.0311  -1.9877  -1.9818  -1.9783  -1.9499
    -1.9255  -1.8502  -1.7869  -1.7598  -1.6689  -1.6421  -1.5682  -1.5055
    -1.4299  -1.4239  -1.4127  -1.4010  -1.3986  -1.3905  -1.3811  -1.3333
    -1.3125  -1.2913  -1.1401  -1.0509  -0.9661  -0.8688  -0.8532  -0.7964
    -0.7604  -0.7539  -0.7350  -0.6692  -0.6546  -0.6341  -0.6119  -0.6004
    -0.5474  -0.4833  -0.4347  -0.4264  -0.4006  -0.3753  -0.3619  -0.3435
    -0.3422  -0.3201  -0.3000  -0.2096  -0.1713  -0.1606  -0.1459  -0.1191
    -0.0809  -0.0528  -0.0261  -0.0018  -0.0016   0.0665   0.0728   0.0976
     0.1506   0.1643   0.1676   0.1765   0.2298   0.2327   0.2876   0.2882
     0.3001   0.3365   0.3708   0.3782   0.3816   0.3996   0.4187   0.4315
     0.4539   0.4745   0.4849   0.5539   0.5815   0.6344   0.6392   0.6402
     0.6864   0.7832   0.8484   0.8590   0.8868   0.9363   0.9445   0.9948
     1.0330   1.0439   1.0827   1.1009   1.1155   1.1810   1.1877   1.2181
     1.2225   1.2355   1.2602   1.2770   1.3328   1.3463   1.3859   1.3959
     1.3986   1.4094   1.4176   1.4674   1.4773   1.5184   1.5695   1.5720
     1.6130   1.6961   1.7048   1.7129   1.7280   1.7418   1.7792   1.7903
     1.8064   1.8128   1.8564   1.9340   1.9671   2.0789   2.1068   2.1234
     2.1391   2.2257   2.3728   2.4860   2.7927   2.8101   2.8206   2.8720
     2.8884   2.9277   2.9694   3.0121   3.1698   3.2542   5.3689   5.6404
     5.6535   6.1190   6.1613   6.2839   6.8019   6.9326   6.9383   6.9554
     6.9958   7.0158   7.1828   7.6092   7.6391   7.6680   7.7939   7.8037
     7.8827   7.9231   8.1836   8.2466   8.2943   8.3847   8.4549   8.5381
     8.6008   8.6774   8.7851   8.8486   8.8747   8.9367   9.0368   9.1014
     9.1473   9.1865

          k = 0.1250 0.5236 0.0000 ( 70338 PWs)   bands (ev):

   -38.0838 -37.8515 -35.7147 -35.4495 -23.6468 -23.3448 -22.7897 -22.7718
   -22.6882 -22.6710 -22.5946 -22.4671 -18.4472 -18.4361 -18.4292 -18.2244
   -18.2198 -18.1670 -16.9706 -16.9568 -16.9284 -16.7103 -16.6814 -16.6680
   -15.1075 -14.9589 -14.8407 -14.8076 -14.7921 -14.7601 -14.6785 -14.5926
   -14.5887 -14.5059 -14.4810 -14.3450 -14.2666 -14.2615 -14.2239 -14.1908
   -14.1569 -14.0869 -14.0814 -14.0194 -14.0184 -13.9892 -13.9853 -13.9511
   -13.9160 -13.8665 -13.8461 -13.8074 -13.7758 -13.5433  -8.9918  -8.9451
    -8.7055  -8.6167  -8.5340  -8.3312  -8.3139  -8.2786  -8.1046  -8.0923
    -8.0746  -8.0607  -8.0414  -8.0089  -7.9909  -7.9649  -7.9479  -7.9381
    -7.8323  -7.8165  -7.7438  -7.7153  -7.6988  -7.4744  -3.5049  -3.4070
    -3.1509  -2.8510  -2.8188  -2.8014  -2.7370  -2.6359  -2.6286  -2.4613
    -2.4359  -2.3733  -2.3148  -2.2838  -2.2796  -2.2406  -2.2402  -2.1177
    -2.0994  -2.0975  -2.0875  -2.0841  -2.0283  -2.0134  -1.9488  -1.8425
    -1.8336  -1.7495  -1.6901  -1.6853  -1.6595  -1.5244  -1.5175  -1.4772
    -1.4144  -1.3558  -1.2490  -1.1683  -1.0128  -0.9770  -0.9513  -0.9210
    -0.9055  -0.8622  -0.8531  -0.8492  -0.8232  -0.7313  -0.7201  -0.6955
    -0.6881  -0.6259  -0.6169  -0.6106  -0.5869  -0.5506  -0.5154  -0.5150
    -0.4759  -0.4436  -0.4341  -0.4206  -0.4138  -0.3981  -0.3625  -0.3454
    -0.2884  -0.2743  -0.2342  -0.2154  -0.1904   0.0747   0.1079   0.1498
     0.1568   0.1707   0.1758   0.2000   0.2256   0.2662   0.3104   0.3290
     0.3724   0.4245   0.5169   0.5259   0.5490   0.5885   0.6108   0.6642
     0.7183   0.7563   0.7706   0.8420   0.8572   0.8685   0.9184   0.9822
     1.0107   1.0217   1.0766   1.0874   1.1536   1.1600   1.1914   1.1944
     1.1980   1.2338   1.2508   1.2630   1.2888   1.3000   1.3162   1.3249
     1.3554   1.3605   1.3985   1.4177   1.4234   1.4395   1.4620   1.4872
     1.5060   1.5461   1.5686   1.5894   1.5976   1.6387   1.6414   1.7134
     1.7341   1.7606   1.7988   1.8223   1.8268   1.8315   1.8722   1.8789
     1.9479   1.9920   2.0162   2.0616   2.0619   2.0806   2.0990   2.1791
     2.2260   2.2665   2.5270   2.6150   3.0720   3.0746   3.1097   3.1181
     3.5467   3.5966   3.7882   3.8181   3.9121   4.0669   5.6156   6.3537
     6.5185   6.5212   6.6310   6.6382   6.7804   6.8111   6.9704   7.1141
     7.2785   7.4411   7.5169   7.6676   7.8527   7.8761   8.1549   8.1990
     8.3925   8.4100   8.4168   8.5543   8.6075   8.6992   8.7137   8.7260
     8.7797   8.8547   8.8874   8.9558   9.0305   9.0750   9.2040   9.2519
     9.3294   9.4329

          k = 0.1250 0.7854 0.0000 ( 70312 PWs)   bands (ev):

   -38.0773 -37.8449 -35.7106 -35.4454 -23.5991 -23.2998 -22.7279 -22.7099
   -22.6396 -22.6225 -22.5355 -22.4194 -18.6560 -18.4333 -18.4188 -18.3234
   -18.2024 -18.0607 -17.0908 -16.9173 -16.8848 -16.8374 -16.6700 -16.5878
   -14.8989 -14.8430 -14.7679 -14.6602 -14.6160 -14.6103 -14.5992 -14.5794
   -14.5657 -14.5075 -14.4161 -14.3680 -14.3563 -14.2076 -14.2011 -14.1858
   -14.1790 -14.0636 -14.0494 -13.9791 -13.9691 -13.9685 -13.9393 -13.9385
   -13.9217 -13.8968 -13.8649 -13.8077 -13.7471 -13.5488  -9.3119  -8.9590
    -8.9378  -8.6827  -8.6652  -8.6588  -8.5494  -8.4449  -8.3908  -8.3746
    -8.2612  -8.0998  -8.0760  -8.0558  -8.0129  -8.0090  -7.9950  -7.9902
    -7.9723  -7.8148  -7.7752  -7.6612  -7.6447  -7.4189  -3.9881  -3.8794
    -3.5570  -3.2975  -3.2496  -3.2292  -3.2173  -3.1729  -3.0026  -2.8560
    -2.8549  -2.7948  -2.7941  -2.7501  -2.5983  -2.5816  -2.4319  -2.3220
    -2.2241  -2.2116  -2.2071  -2.1887  -2.1375  -2.1319  -2.0477  -2.0231
    -1.9262  -1.8759  -1.7657  -1.7360  -1.6743  -1.6598  -1.6285  -1.6050
    -1.5633  -1.2835  -1.2345  -1.2097  -1.1655  -1.1553  -1.1257  -1.0794
    -1.0472  -1.0442  -1.0250  -1.0096  -0.9970  -0.9936  -0.9644  -0.9267
    -0.8192  -0.8166  -0.7879  -0.7465  -0.7376  -0.7227  -0.7194  -0.7146
    -0.6877  -0.6215  -0.6033  -0.5789  -0.5514  -0.5248  -0.5103  -0.4118
    -0.3796  -0.3764  -0.2224  -0.2177  -0.2102   0.0052   0.0929   0.1224
     0.1578   0.1873   0.2005   0.2164   0.2610   0.2809   0.3186   0.3574
     0.3780   0.5576   0.5687   0.6038   0.6244   0.7647   0.7730   0.8315
     0.8878   0.9276   0.9932   1.0005   1.0099   1.0172   1.0927   1.1010
     1.1283   1.1361   1.2482   1.2617   1.2734   1.3208   1.3276   1.3342
     1.3434   1.3566   1.4012   1.4165   1.4722   1.4736   1.5073   1.5169
     1.5742   1.5944   1.6262   1.6356   1.6687   1.7111   1.7391   1.7490
     1.7541   1.7690   1.8104   1.8192   1.8303   1.8341   1.8471   1.8540
     1.8714   1.9186   1.9813   2.0053   2.0323   2.0370   2.0722   2.0888
     2.1118   2.1373   2.1938   2.2213   2.2598   2.2610   2.2903   2.3875
     2.4655   2.4659   2.4818   2.5453   2.9189   2.9229   3.0265   3.0352
     3.8841   3.9267   4.4022   4.4330   4.4728   4.6289   5.4033   6.1466
     6.1544   6.5404   6.7503   6.7704   6.8763   7.3962   7.4100   7.5421
     7.6550   7.8169   7.9592   8.0523   8.1291   8.3443   8.4344   8.5890
     8.5988   8.6517   8.7408   8.8069   8.8786   8.9146   9.0249   9.0624
     9.0984   9.1560   9.1805   9.2441   9.3261   9.3811   9.4666   9.5292
     9.5643   9.6093

          k = 0.1250-1.0472 0.0000 ( 70402 PWs)   bands (ev):

   -38.0746 -37.8422 -35.7089 -35.4437 -23.5791 -23.2808 -22.7017 -22.6837
   -22.6192 -22.6020 -22.5105 -22.3993 -18.7365 -18.5138 -18.4116 -18.2762
   -18.1952 -18.0132 -17.1412 -16.9127 -16.8877 -16.8489 -16.6653 -16.5516
   -14.9101 -14.8636 -14.6982 -14.6411 -14.5520 -14.5448 -14.5148 -14.5110
   -14.4771 -14.4330 -14.4300 -14.4209 -14.4029 -14.2524 -14.2246 -14.1911
   -14.1432 -14.1379 -14.0186 -13.9674 -13.9428 -13.9379 -13.9358 -13.9223
   -13.9208 -13.8979 -13.8210 -13.7667 -13.7643 -13.5346  -9.4533  -9.0742
    -8.9111  -8.8155  -8.7978  -8.6904  -8.5815  -8.5312  -8.5211  -8.5050
    -8.2944  -8.1626  -8.0791  -8.0579  -8.0283  -8.0112  -8.0052  -7.9849
    -7.9816  -7.8290  -7.7696  -7.6374  -7.6209  -7.3936  -4.1892  -4.0808
    -3.7441  -3.5024  -3.4145  -3.4130  -3.3832  -3.3791  -3.1509  -3.0911
    -3.0882  -3.0253  -3.0244  -2.8988  -2.6240  -2.6076  -2.4507  -2.4506
    -2.3280  -2.2368  -2.2301  -2.2253  -2.1268  -2.1216  -2.0570  -2.0253
    -2.0226  -1.9453  -1.8421  -1.8238  -1.7515  -1.6627  -1.5859  -1.5124
    -1.4304  -1.3651  -1.3307  -1.2842  -1.2549  -1.2493  -1.1933  -1.1770
    -1.1494  -1.1299  -1.0714  -1.0692  -1.0333  -1.0213  -1.0175  -0.9812
    -0.9545  -0.9169  -0.8492  -0.8312  -0.8225  -0.8213  -0.8127  -0.8014
    -0.7076  -0.6936  -0.6854  -0.6649  -0.6429  -0.5386  -0.4677  -0.4047
    -0.3669  -0.3474  -0.2089  -0.1867  -0.1860  -0.0491   0.0199   0.0613
     0.1558   0.1866   0.2201   0.2231   0.2510   0.3057   0.3189   0.3225
     0.3987   0.5686   0.6011   0.6202   0.6396   0.6409   0.8445   0.9245
     0.9327   0.9489   0.9634   1.0407   1.0769   1.0916   1.1940   1.2027
     1.2095   1.2529   1.3021   1.3137   1.3194   1.3494   1.4002   1.4111
     1.4199   1.4225   1.4280   1.4625   1.4823   1.5319   1.5332   1.5791
     1.5801   1.6957   1.7254   1.7450   1.7826   1.8326   1.8352   1.8417
     1.8430   1.8606   1.9326   1.9553   1.9694   1.9774   1.9797   2.0216
     2.0582   2.0608   2.0656   2.1722   2.1860   2.2007   2.2032   2.2119
     2.2238   2.2324   2.2482   2.2498   2.3370   2.3821   2.3895   2.4603
     2.4605   2.5383   2.6303   2.6310   2.6866   2.6938   2.8631   2.8722
     3.9184   4.0003   4.5935   4.6309   4.6675   4.8129   5.3181   5.9202
     5.9280   6.4359   6.6424   6.6979   7.2666   7.5177   7.6109   7.7270
     7.7390   7.7564   8.2193   8.2205   8.2354   8.3486   8.4721   8.5382
     8.8682   8.9488   8.9530   8.9761   9.0672   9.0905   9.1344   9.1552
     9.2390   9.2800   9.3066   9.3100   9.3440   9.3666   9.4403   9.5362
     9.5844   9.7666

          k = 0.2500 0.0000 0.0000 ( 70367 PWs)   bands (ev):

   -38.0930 -37.8607 -35.7205 -35.4554 -23.7101 -23.4098 -22.8614 -22.8435
   -22.7684 -22.7512 -22.6666 -22.5423 -18.5658 -18.4528 -18.3049 -18.2369
   -18.0961 -17.8723 -17.0786 -16.9735 -16.7851 -16.7501 -16.7278 -16.4964
   -15.3773 -15.1899 -15.0524 -14.9879 -14.9554 -14.9464 -14.7175 -14.6934
   -14.6378 -14.6275 -14.5742 -14.5438 -14.4125 -14.3025 -14.2999 -14.1473
   -14.1031 -14.0661 -14.0637 -14.0564 -14.0502 -14.0446 -14.0220 -14.0037
   -13.9707 -13.7813 -13.7356 -13.7124 -13.6385 -13.4999  -9.0535  -8.7143
    -8.4653  -8.4449  -8.2428  -8.1911  -8.1237  -8.1023  -8.0205  -8.0015
    -7.9667  -7.8862  -7.8809  -7.8650  -7.7579  -7.7405  -7.7191  -7.7027
    -7.6245  -7.5874  -7.5703  -7.5244  -7.4975  -7.3638  -2.9116  -2.8782
    -2.7540  -2.4293  -2.2493  -2.2306  -2.2030  -2.1953  -2.1138  -2.0938
    -2.0341  -1.9947  -1.9931  -1.9617  -1.9323  -1.8942  -1.7736  -1.7548
    -1.7307  -1.6632  -1.6410  -1.6335  -1.5984  -1.5662  -1.5323  -1.5065
    -1.4361  -1.3266  -1.1766  -1.0694  -1.0316  -1.0026  -0.9823  -0.9810
    -0.9779  -0.9775  -0.9738  -0.9519  -0.9140  -0.8986  -0.8695  -0.8338
    -0.7780  -0.7584  -0.7340  -0.6766  -0.6735  -0.6688  -0.5867  -0.5603
    -0.5420  -0.4578  -0.4485  -0.3959  -0.3592  -0.3460  -0.3321  -0.2823
    -0.2758  -0.2701  -0.2683  -0.2494  -0.1870  -0.1640  -0.0877  -0.0811
    -0.0472  -0.0288  -0.0188  -0.0157  -0.0123   0.0085   0.0279   0.0589
     0.0768   0.1804   0.1805   0.2147   0.2163   0.2376   0.2381   0.2385
     0.2668   0.2793   0.2912   0.3055   0.3594   0.3781   0.4151   0.4487
     0.4607   0.4726   0.5045   0.5048   0.5192   0.5597   0.6040   0.6255
     0.6586   0.6787   0.7320   0.7850   0.8124   0.8611   0.9149   0.9431
     0.9609   0.9703   1.0199   1.0224   1.0352   1.0562   1.0787   1.1423
     1.1612   1.1862   1.2282   1.2484   1.2637   1.2779   1.2879   1.3705
     1.3875   1.4110   1.4275   1.4697   1.4833   1.5327   1.5438   1.5920
     1.6214   1.6892   1.7340   1.7562   1.7819   1.7839   1.8188   1.8270
     1.8504   1.8698   1.8858   1.9193   1.9811   2.0046   2.0112   2.0202
     2.1153   2.1752   2.2128   2.2618   2.3358   2.3381   2.3618   2.4278
     2.5807   2.6035   2.6101   2.6447   2.8323   2.8389   5.2617   5.4085
     5.4376   5.9968   6.0632   6.1614   6.5183   6.5211   6.6567   6.8422
     6.8705   6.9578   7.0745   7.4091   7.4325   7.7733   7.8414   7.9784
     7.9875   8.0859   8.1383   8.1906   8.2788   8.3342   8.3909   8.4506
     8.4882   8.5520   8.5887   8.6785   8.7996   8.8751   8.9737   9.1128
     9.1839   9.2348

          k = 0.2500 0.2618 0.0000 ( 70358 PWs)   bands (ev):

   -38.0903 -37.8580 -35.7188 -35.4537 -23.6912 -23.3916 -22.8377 -22.8197
   -22.7484 -22.7312 -22.6437 -22.5228 -18.5272 -18.4457 -18.2661 -18.2297
   -18.2069 -17.9833 -17.0486 -16.9672 -16.8158 -16.7549 -16.7213 -16.5621
   -15.2736 -15.0973 -14.9882 -14.9380 -14.9069 -14.8968 -14.6686 -14.6547
   -14.6045 -14.5897 -14.5605 -14.5270 -14.3508 -14.2655 -14.2599 -14.1469
   -14.1230 -14.1121 -14.0497 -14.0488 -14.0420 -14.0351 -14.0152 -14.0056
   -13.9760 -13.7938 -13.7713 -13.7467 -13.6946 -13.5133  -9.0341  -8.7065
    -8.6111  -8.5500  -8.2700  -8.2366  -8.1182  -8.0976  -8.0475  -8.0297
    -7.9939  -7.9768  -7.9766  -7.9129  -7.8960  -7.8776  -7.7356  -7.6964
    -7.6960  -7.6792  -7.6532  -7.6365  -7.4622  -7.4397  -3.0077  -2.9557
    -2.8068  -2.4728  -2.3979  -2.3649  -2.2895  -2.2170  -2.2077  -2.1571
    -2.1308  -2.0790  -2.0556  -2.0358  -2.0115  -1.9955  -1.9868  -1.9555
    -1.9533  -1.9337  -1.8856  -1.8383  -1.6755  -1.6631  -1.6079  -1.5143
    -1.4719  -1.4229  -1.4182  -1.4026  -1.4011  -1.3570  -1.3234  -1.2941
    -1.2440  -1.2150  -1.1553  -1.0326  -0.9081  -0.8766  -0.8577  -0.8022
    -0.7972  -0.7619  -0.7532  -0.7056  -0.7022  -0.6251  -0.6130  -0.5971
    -0.5696  -0.5510  -0.5444  -0.4887  -0.4348  -0.4135  -0.3782  -0.3504
    -0.3435  -0.3069  -0.2875  -0.2516  -0.1970  -0.1468  -0.1285  -0.0994
    -0.0885  -0.0532  -0.0306   0.0035   0.0088   0.0199   0.0716   0.0994
     0.1374   0.1456   0.1651   0.1666   0.2197   0.2420   0.3165   0.3209
     0.3219   0.3303   0.3497   0.3787   0.3828   0.3921   0.4168   0.4439
     0.4684   0.4877   0.5250   0.5469   0.5807   0.5934   0.6186   0.6497
     0.7041   0.7705   0.8819   0.9014   0.9216   0.9558   0.9652   1.0117
     1.0241   1.0486   1.0771   1.0981   1.1329   1.1371   1.1744   1.2034
     1.2086   1.2238   1.2358   1.2613   1.2732   1.2877   1.3258   1.3487
     1.4139   1.4327   1.4360   1.4789   1.4861   1.5021   1.6134   1.6172
     1.6566   1.6606   1.6632   1.6866   1.6901   1.7253   1.7359   1.7404
     1.7796   1.7923   1.8239   1.9780   2.0006   2.0415   2.1293   2.1543
     2.3120   2.3504   2.5132   2.6942   2.7781   2.8012   2.8357   2.8802
     2.8952   2.9207   2.9587   2.9981   3.1377   3.2381   5.4795   5.7475
     5.7551   6.1822   6.2725   6.3878   6.6551   6.6590   6.8462   6.9529
     7.1501   7.1680   7.2644   7.4792   7.5016   7.7189   7.7581   7.8859
     8.0564   8.0735   8.2302   8.2535   8.3702   8.4063   8.4249   8.4998
     8.6059   8.6197   8.7258   8.7926   8.8828   8.8985   8.9658   9.0248
     9.1731   9.1857

          k = 0.2500 0.5236 0.0000 ( 70338 PWs)   bands (ev):

   -38.0838 -37.8515 -35.7147 -35.4495 -23.6448 -23.3471 -22.7792 -22.7611
   -22.6992 -22.6821 -22.5873 -22.4749 -18.4471 -18.4285 -18.4278 -18.2243
   -18.2124 -18.1655 -16.9753 -16.9590 -16.9516 -16.7124 -16.7047 -16.6739
   -15.0411 -14.9060 -14.8223 -14.8010 -14.7815 -14.7641 -14.6738 -14.5865
   -14.5746 -14.5062 -14.4787 -14.4408 -14.2750 -14.2501 -14.2263 -14.1701
   -14.1611 -14.1083 -14.0735 -14.0218 -14.0153 -13.9973 -13.9893 -13.9885
   -13.9108 -13.8672 -13.8537 -13.8093 -13.7646 -13.5374  -8.9935  -8.9670
    -8.7452  -8.6160  -8.5068  -8.3666  -8.3496  -8.2486  -8.1269  -8.1135
    -8.0965  -8.0763  -8.0556  -8.0138  -7.9959  -7.9472  -7.9327  -7.9159
    -7.8612  -7.8165  -7.7190  -7.6682  -7.6515  -7.4363  -3.4043  -3.3063
    -3.0489  -2.8849  -2.8356  -2.7341  -2.7082  -2.6407  -2.6389  -2.4443
    -2.4221  -2.3799  -2.3045  -2.2883  -2.2828  -2.2387  -2.2365  -2.1077
    -2.1067  -2.0980  -2.0842  -2.0800  -2.0462  -2.0110  -1.9245  -1.8782
    -1.8586  -1.8339  -1.7495  -1.6614  -1.6178  -1.5496  -1.5131  -1.4859
    -1.4688  -1.3549  -1.2813  -1.2012  -1.0645  -1.0058  -0.9968  -0.9493
    -0.9448  -0.9038  -0.8640  -0.8492  -0.8452  -0.8255  -0.8170  -0.7907
    -0.7320  -0.6790  -0.6538  -0.6021  -0.5836  -0.5438  -0.5263  -0.4981
    -0.4977  -0.4642  -0.4317  -0.4254  -0.4117  -0.4081  -0.3846  -0.3245
    -0.2785  -0.2623  -0.2026  -0.1900  -0.1665  -0.0183   0.0634   0.1071
     0.1146   0.1739   0.2017   0.2206   0.2348   0.3312   0.3401   0.3765
     0.3894   0.4430   0.4670   0.5099   0.5353   0.5684   0.6643   0.6742
     0.7542   0.7588   0.7631   0.8692   0.8778   0.8951   0.9276   0.9813
     1.0058   1.0620   1.0638   1.0865   1.1047   1.1126   1.1342   1.1369
     1.2100   1.2305   1.2479   1.2621   1.2937   1.3322   1.3386   1.3589
     1.3932   1.4058   1.4223   1.4428   1.4496   1.4648   1.4733   1.4759
     1.5196   1.5295   1.5553   1.5596   1.5828   1.6099   1.6318   1.6730
     1.6966   1.7321   1.7421   1.8105   1.8452   1.8491   1.8497   1.9088
     1.9260   1.9936   2.0366   2.0375   2.0545   2.0665   2.1415   2.1872
     2.5294   2.5656   2.7622   2.9055   3.0746   3.0775   3.1157   3.1315
     3.5501   3.5913   3.6884   3.7189   3.8217   3.9813   5.7080   6.4301
     6.5591   6.5623   6.6491   6.6559   6.7676   6.8403   7.0252   7.1671
     7.3514   7.4250   7.4495   7.6641   7.9871   8.0068   8.1287   8.2452
     8.2962   8.3584   8.3643   8.4160   8.5652   8.6765   8.6970   8.7394
     8.7771   8.8660   8.9255   8.9787   8.9935   9.0948   9.1665   9.2205
     9.2958   9.3353

          k = 0.2500 0.7854 0.0000 ( 70344 PWs)   bands (ev):

   -38.0773 -37.8449 -35.7106 -35.4454 -23.5975 -23.3016 -22.7190 -22.7009
   -22.6489 -22.6318 -22.5294 -22.4258 -18.6559 -18.4332 -18.4114 -18.3222
   -18.1952 -18.0593 -17.0908 -16.9397 -16.8899 -16.8374 -16.6929 -16.5934
   -14.8587 -14.8124 -14.7182 -14.6707 -14.6367 -14.5954 -14.5797 -14.5621
   -14.5531 -14.5009 -14.4079 -14.3581 -14.3574 -14.2705 -14.2182 -14.2053
   -14.1632 -14.0588 -14.0318 -13.9960 -13.9667 -13.9652 -13.9425 -13.9413
   -13.9263 -13.9139 -13.8981 -13.8277 -13.7403 -13.5506  -9.2650  -8.9427
    -8.8835  -8.7396  -8.6428  -8.6255  -8.5544  -8.4024  -8.2965  -8.2816
    -8.2652  -8.1399  -8.1228  -8.0604  -8.0400  -8.0193  -8.0136  -7.9965
    -7.9691  -7.9118  -7.7844  -7.7173  -7.7008  -7.4752  -3.8855  -3.7804
    -3.4633  -3.3182  -3.2685  -3.2625  -3.1793  -3.1337  -3.0315  -2.8493
    -2.8477  -2.8017  -2.8012  -2.7707  -2.5541  -2.5365  -2.3934  -2.2387
    -2.2144  -2.2136  -2.1707  -2.1330  -2.1316  -2.1070  -2.0641  -2.0192
    -1.8817  -1.8749  -1.8039  -1.8018  -1.7325  -1.6397  -1.6309  -1.6213
    -1.6035  -1.4505  -1.3766  -1.2901  -1.2536  -1.2087  -1.1728  -1.1679
    -1.1045  -1.0839  -1.0759  -1.0694  -1.0327  -0.9707  -0.9623  -0.9392
    -0.9181  -0.7747  -0.7642  -0.7572  -0.7548  -0.7345  -0.7197  -0.6986
    -0.6634  -0.6501  -0.6084  -0.5664  -0.5555  -0.4963  -0.4613  -0.4083
    -0.3745  -0.3541  -0.2536  -0.2500  -0.1749  -0.0696   0.0824   0.0977
     0.1683   0.2316   0.2552   0.2907   0.3142   0.3308   0.3381   0.3832
     0.4324   0.4736   0.5734   0.5920   0.6899   0.6968   0.8843   0.8980
     0.9185   0.9444   0.9717   0.9970   1.0112   1.0513   1.0761   1.1589
     1.1613   1.2052   1.2089   1.2333   1.2448   1.2848   1.3098   1.3283
     1.3419   1.3752   1.3821   1.4337   1.4600   1.4768   1.4936   1.5189
     1.5493   1.5610   1.5857   1.6151   1.6770   1.6902   1.7202   1.7406
     1.7498   1.7570   1.7823   1.8066   1.8111   1.8304   1.8323   1.8818
     1.8847   1.8904   1.9561   1.9617   1.9874   1.9996   2.0479   2.0887
     2.1159   2.1610   2.2846   2.2857   2.3003   2.3266   2.4427   2.4427
     2.5161   2.5573   2.7390   2.8457   2.9258   2.9288   3.0621   3.0910
     3.8911   3.9348   4.2125   4.2460   4.3021   4.4596   5.5302   6.3028
     6.3094   6.5892   6.6649   6.8436   6.8988   7.2859   7.2962   7.4868
     7.6649   7.7811   7.8941   7.9599   8.0550   8.2094   8.4729   8.5381
     8.5995   8.6330   8.7537   8.8181   8.9374   8.9428   9.0866   9.1404
     9.1760   9.2102   9.2448   9.2880   9.3536   9.4306   9.4619   9.4989
     9.5451   9.6290

          k = 0.2500-1.0472 0.0000 ( 70332 PWs)   bands (ev):

   -38.0746 -37.8422 -35.7089 -35.4437 -23.5776 -23.2825 -22.6936 -22.6754
   -22.6276 -22.6106 -22.5050 -22.4051 -18.7364 -18.5137 -18.4043 -18.2750
   -18.1880 -18.0120 -17.1412 -16.9343 -16.8877 -16.8537 -16.6874 -16.5568
   -14.8777 -14.8301 -14.6458 -14.6337 -14.5665 -14.5534 -14.5097 -14.4992
   -14.4772 -14.4316 -14.4196 -14.3999 -14.3944 -14.2329 -14.2224 -14.2175
   -14.1929 -14.1122 -14.0588 -13.9715 -13.9405 -13.9364 -13.9244 -13.9233
   -13.9228 -13.9165 -13.8579 -13.7951 -13.7514 -13.5497  -9.3660  -8.9999
    -8.9102  -8.7793  -8.7287  -8.7111  -8.5324  -8.4984  -8.4324  -8.4162
    -8.3397  -8.1318  -8.1265  -8.1094  -8.0686  -8.0479  -8.0134  -7.9937
    -7.9798  -7.9196  -7.7711  -7.7575  -7.7412  -7.5026  -4.0840  -3.9803
    -3.6519  -3.5037  -3.4552  -3.4285  -3.3859  -3.3238  -3.1855  -3.0842
    -3.0817  -3.0328  -3.0321  -2.9244  -2.5708  -2.5534  -2.4021  -2.3731
    -2.2499  -2.2374  -2.2323  -2.1728  -2.1273  -2.1202  -2.0717  -2.0197
    -1.9572  -1.9273  -1.7809  -1.7629  -1.7070  -1.6682  -1.6645  -1.6262
    -1.5850  -1.5819  -1.4935  -1.4308  -1.3137  -1.2812  -1.2484  -1.2071
    -1.1941  -1.1895  -1.1404  -1.1278  -1.1071  -1.1019  -0.9920  -0.9746
    -0.9261  -0.8437  -0.8402  -0.8345  -0.8264  -0.8038  -0.7825  -0.7776
    -0.7340  -0.6999  -0.6867  -0.6479  -0.6463  -0.4749  -0.4656  -0.4079
    -0.3514  -0.3462  -0.2302  -0.2287  -0.1744  -0.0831   0.0803   0.1010
     0.1937   0.2228   0.2640   0.3019   0.3294   0.3417   0.3435   0.3790
     0.4032   0.4456   0.5943   0.6319   0.7255   0.7542   0.7817   0.9852
     1.0033   1.0155   1.0369   1.0452   1.0826   1.0859   1.1153   1.1987
     1.2192   1.2492   1.2693   1.2805   1.3149   1.3529   1.3896   1.3988
     1.4041   1.4145   1.4280   1.4822   1.4840   1.4869   1.5597   1.5633
     1.5660   1.6448   1.6915   1.7013   1.7490   1.7694   1.7884   1.8214
     1.8312   1.8573   1.8957   1.9047   1.9192   1.9420   1.9578   2.0268
     2.0707   2.1296   2.1507   2.1636   2.1873   2.1943   2.1991   2.2004
     2.2145   2.2525   2.3565   2.4271   2.4491   2.4546   2.4798   2.4803
     2.6098   2.6100   2.6104   2.6919   2.7064   2.7164   2.9415   2.9830
     3.9275   4.0288   4.3652   4.4029   4.4554   4.6052   5.4357   6.1127
     6.1193   6.5115   6.5435   6.7568   7.3361   7.4502   7.4895   7.4935
     7.5938   7.6524   7.9461   8.0720   8.2309   8.2531   8.4819   8.5580
     8.8294   8.9913   8.9915   9.0587   9.1751   9.2022   9.2360   9.2859
     9.2985   9.3592   9.3843   9.4459   9.4788   9.5761   9.5874   9.5975
     9.6163   9.7955

          k = 0.3750 0.0000 0.0000 ( 70394 PWs)   bands (ev):

   -38.0930 -37.8607 -35.7205 -35.4554 -23.7074 -23.4129 -22.8433 -22.8251
   -22.7873 -22.7704 -22.6559 -22.5536 -18.5640 -18.4448 -18.3031 -18.2290
   -18.0960 -17.8723 -17.0857 -17.0011 -16.7927 -16.7560 -16.7501 -16.4964
   -15.2822 -15.1033 -15.0209 -14.9693 -14.9640 -14.9199 -14.7824 -14.7088
   -14.6703 -14.6449 -14.6163 -14.5671 -14.3973 -14.3273 -14.2740 -14.1314
   -14.0974 -14.0695 -14.0629 -14.0599 -14.0556 -14.0520 -14.0254 -13.9848
   -13.9461 -13.8001 -13.7767 -13.7109 -13.6546 -13.4983  -9.0604  -8.7314
    -8.4339  -8.4328  -8.2490  -8.2034  -8.1278  -8.1065  -8.0261  -8.0073
    -7.9760  -7.8981  -7.8410  -7.8251  -7.7478  -7.7312  -7.7230  -7.7053
    -7.6249  -7.6081  -7.5887  -7.5097  -7.4932  -7.3972  -2.7564  -2.7235
    -2.6157  -2.3807  -2.3598  -2.2737  -2.2492  -2.1754  -2.1698  -2.0838
    -2.0662  -2.0460  -2.0323  -1.9869  -1.9691  -1.8859  -1.8399  -1.7744
    -1.7730  -1.6810  -1.6365  -1.6239  -1.6211  -1.6034  -1.5579  -1.4858
    -1.3780  -1.3636  -1.0964  -1.0402  -1.0298  -0.9778  -0.9759  -0.9742
    -0.9723  -0.9544  -0.9461  -0.9161  -0.8856  -0.8848  -0.8563  -0.8127
    -0.7776  -0.7616  -0.7284  -0.6621  -0.5974  -0.5948  -0.5900  -0.5866
    -0.4978  -0.4766  -0.4628  -0.4587  -0.4550  -0.3978  -0.3731  -0.3571
    -0.3547  -0.2839  -0.2576  -0.2244  -0.1993  -0.1855  -0.1670  -0.0801
    -0.0636  -0.0442  -0.0408  -0.0315  -0.0309   0.0146   0.0451   0.0618
     0.1045   0.1279   0.1562   0.2008   0.2211   0.2229   0.2350   0.2367
     0.3243   0.3262   0.3404   0.3439   0.3499   0.4042   0.4219   0.4461
     0.4662   0.4766   0.4770   0.5459   0.5472   0.5587   0.6407   0.6805
     0.6894   0.7180   0.7407   0.8023   0.8102   0.8603   0.8623   0.8778
     0.9116   0.9214   0.9663   0.9882   1.0157   1.0323   1.0627   1.1017
     1.1069   1.1730   1.1871   1.2680   1.2873   1.3322   1.3430   1.3495
     1.3711   1.4427   1.4610   1.4683   1.4871   1.5254   1.5341   1.5796
     1.5989   1.6217   1.6629   1.7237   1.7500   1.7890   1.8261   1.8369
     1.8921   1.8923   1.9025   1.9378   1.9576   1.9603   1.9652   2.0042
     2.1189   2.1758   2.2262   2.2577   2.3342   2.3639   2.4440   2.5034
     2.5645   2.6446   2.6497   2.6590   2.7879   2.8041   5.4729   5.6129
     5.6241   6.0120   6.1721   6.1752   6.2684   6.3559   6.7326   6.8705
     7.0850   7.1253   7.1806   7.1955   7.2346   7.6429   7.7945   7.8258
     7.8459   8.1239   8.1412   8.2943   8.3281   8.3368   8.4377   8.4514
     8.5454   8.5978   8.6773   8.7741   8.9608   8.9932   9.0442   9.0764
     9.1863   9.2496

          k = 0.3750 0.2618 0.0000 ( 70388 PWs)   bands (ev):

   -38.0903 -37.8580 -35.7188 -35.4537 -23.6887 -23.3945 -22.8205 -22.8022
   -22.7663 -22.7494 -22.6336 -22.5335 -18.5255 -18.4378 -18.2644 -18.2219
   -18.2069 -17.9833 -17.0554 -16.9936 -16.8157 -16.7621 -16.7483 -16.5619
   -15.1792 -15.0151 -14.9605 -14.9193 -14.9119 -14.8772 -14.7190 -14.6864
   -14.6302 -14.6138 -14.5847 -14.5443 -14.3440 -14.2844 -14.2342 -14.1381
   -14.1275 -14.1101 -14.0532 -14.0513 -14.0466 -14.0441 -14.0226 -14.0088
   -13.9340 -13.8224 -13.7948 -13.7427 -13.6991 -13.5102  -9.0379  -8.7344
    -8.6400  -8.5609  -8.2324  -8.2002  -8.1281  -8.1081  -8.0727  -8.0555
    -8.0206  -8.0028  -7.9857  -7.9364  -7.9194  -7.9014  -7.7512  -7.7295
    -7.6441  -7.6271  -7.6128  -7.5961  -7.4195  -7.3954  -2.8489  -2.7966
    -2.6597  -2.4934  -2.4530  -2.3508  -2.3179  -2.2008  -2.1829  -2.1796
    -2.1492  -2.0908  -2.0720  -2.0494  -2.0422  -2.0335  -2.0238  -2.0089
    -1.9783  -1.9602  -1.9438  -1.8771  -1.7652  -1.7000  -1.6583  -1.5217
    -1.4408  -1.4178  -1.4126  -1.4063  -1.4057  -1.3279  -1.2943  -1.2153
    -1.1636  -1.1293  -1.0812  -0.9934  -0.9260  -0.8887  -0.8724  -0.8385
    -0.8272  -0.8078  -0.7737  -0.7538  -0.7363  -0.6964  -0.6623  -0.6130
    -0.5938  -0.5829  -0.5554  -0.5187  -0.4779  -0.4567  -0.4242  -0.4060
    -0.3421  -0.2765  -0.2711  -0.2340  -0.1925  -0.1328  -0.1203  -0.1170
    -0.1031  -0.0907  -0.0564  -0.0173   0.0058   0.0387   0.0642   0.1167
     0.1258   0.1319   0.1587   0.1855   0.1948   0.2627   0.2762   0.3277
     0.3465   0.3635   0.3660   0.3828   0.3944   0.4094   0.4299   0.4668
     0.4929   0.5108   0.5174   0.5272   0.5786   0.5985   0.6223   0.7036
     0.7090   0.7535   0.9044   0.9111   0.9341   0.9650   0.9977   1.0010
     1.0038   1.0234   1.0387   1.0942   1.1093   1.1180   1.1697   1.1830
     1.1967   1.2179   1.2366   1.2544   1.2645   1.2873   1.3081   1.3238
     1.4484   1.4675   1.4845   1.4895   1.5117   1.5172   1.5624   1.5847
     1.6062   1.6212   1.6243   1.6359   1.6733   1.6826   1.7435   1.7569
     1.7754   1.7898   1.8737   1.8818   1.9975   2.0712   2.1317   2.1386
     2.4890   2.5265   2.6967   2.7478   2.7753   2.8583   2.8801   2.9022
     2.9103   2.9178   2.9351   2.9679   3.0706   3.1923   5.6212   5.9133
     5.9163   6.1712   6.3765   6.3797   6.4784   6.5632   6.9090   6.9330
     7.2576   7.2849   7.3502   7.4169   7.4349   7.5712   7.8923   7.9224
     8.0428   8.0445   8.2659   8.2749   8.3263   8.3902   8.4550   8.5093
     8.5811   8.6043   8.6471   8.7348   8.8474   8.9558   9.0137   9.1251
     9.1747   9.2083

          k = 0.3750 0.5236 0.0000 ( 70321 PWs)   bands (ev):

   -38.0838 -37.8515 -35.7147 -35.4496 -23.6427 -23.3495 -22.7643 -22.7460
   -22.7146 -22.6978 -22.5788 -22.4839 -18.4469 -18.4264 -18.4209 -18.2242
   -18.2048 -18.1640 -16.9808 -16.9767 -16.9583 -16.7315 -16.7107 -16.6796
   -14.9537 -14.8436 -14.8084 -14.7949 -14.7755 -14.7716 -14.6679 -14.5754
   -14.5675 -14.5226 -14.5072 -14.4897 -14.2815 -14.2353 -14.2087 -14.1948
   -14.1489 -14.1465 -14.0594 -14.0556 -14.0109 -14.0091 -13.9945 -13.9906
   -13.9013 -13.8725 -13.8606 -13.8110 -13.7574 -13.5321  -8.9881  -8.9650
    -8.8394  -8.6145  -8.4249  -8.3647  -8.3478  -8.2501  -8.2272  -8.2104
    -8.1199  -8.0756  -8.0547  -8.0084  -7.9915  -7.9905  -7.9265  -7.8219
    -7.8164  -7.8050  -7.6711  -7.6543  -7.6114  -7.4397  -3.2593  -3.1630
    -2.9654  -2.9037  -2.8975  -2.7369  -2.6631  -2.6447  -2.5714  -2.4117
    -2.4084  -2.3845  -2.3053  -2.2939  -2.2748  -2.2318  -2.2273  -2.1439
    -2.1364  -2.1090  -2.0783  -2.0773  -2.0516  -2.0217  -2.0058  -1.9990
    -1.9507  -1.7384  -1.6993  -1.6266  -1.6044  -1.5580  -1.5041  -1.4627
    -1.4523  -1.3403  -1.3175  -1.2289  -1.2118  -1.1860  -1.1213  -1.0208
    -0.9805  -0.9653  -0.8906  -0.8770  -0.8574  -0.8343  -0.8288  -0.7892
    -0.7758  -0.7510  -0.6754  -0.6100  -0.5962  -0.5255  -0.5113  -0.4826
    -0.4758  -0.4689  -0.4379  -0.4342  -0.4192  -0.4087  -0.3896  -0.2997
    -0.2567  -0.2416  -0.1737  -0.1638  -0.1600  -0.1501   0.0027   0.0276
     0.1115   0.1555   0.1672   0.1901   0.3070   0.3712   0.3840   0.4195
     0.4400   0.4781   0.4920   0.5268   0.5455   0.6002   0.6350   0.6469
     0.7605   0.8302   0.8340   0.8751   0.9076   0.9186   0.9359   0.9719
     1.0107   1.0348   1.0659   1.0690   1.0744   1.0795   1.0973   1.1054
     1.1634   1.2104   1.2333   1.2492   1.2973   1.3366   1.3566   1.3728
     1.3940   1.4250   1.4377   1.4453   1.4525   1.4901   1.5291   1.5349
     1.5373   1.5417   1.5589   1.5624   1.5826   1.5979   1.6373   1.6562
     1.6666   1.6773   1.7223   1.7938   1.8056   1.8551   1.8946   1.8989
     1.9263   1.9638   2.0004   2.0033   2.0582   2.0772   2.1132   2.2458
     2.8794   2.9065   3.0322   3.0767   3.0793   3.1019   3.1674   3.2915
     3.5020   3.5427   3.5545   3.5907   3.6632   3.8257   5.8155   6.5357
     6.6075   6.6116   6.6629   6.6690   6.7314   6.8306   7.1085   7.2135
     7.3655   7.4178   7.4820   7.6366   8.0675   8.1408   8.1693   8.1826
     8.2410   8.3358   8.3503   8.4639   8.5051   8.5928   8.6865   8.7135
     8.8044   8.8322   8.9429   8.9791   9.0538   9.1062   9.1435   9.1739
     9.2076   9.2820

          k = 0.3750 0.7854 0.0000 ( 70364 PWs)   bands (ev):

   -38.0773 -37.8449 -35.7106 -35.4454 -23.5959 -23.3035 -22.7068 -22.6883
   -22.6614 -22.6447 -22.5225 -22.4331 -18.6558 -18.4331 -18.4039 -18.3209
   -18.1878 -18.0580 -17.0907 -16.9618 -16.8951 -16.8374 -16.7155 -16.5988
   -14.8084 -14.7694 -14.7036 -14.6737 -14.6450 -14.5928 -14.5781 -14.5355
   -14.5010 -14.4826 -14.4069 -14.3789 -14.3429 -14.3299 -14.2639 -14.1998
   -14.1357 -14.0737 -14.0189 -14.0012 -13.9720 -13.9615 -13.9595 -13.9475
   -13.9469 -13.9398 -13.8903 -13.8531 -13.7335 -13.5537  -9.1820  -8.9567
    -8.9056  -8.7258  -8.5614  -8.5516  -8.5442  -8.3836  -8.3128  -8.2890
    -8.2720  -8.1364  -8.1198  -8.0516  -8.0477  -8.0306  -8.0216  -8.0036
    -7.9714  -7.8876  -7.8223  -7.8057  -7.7851  -7.5706  -3.7441  -3.6460
    -3.3947  -3.3434  -3.3343  -3.2658  -3.1835  -3.0831  -3.0249  -2.8407
    -2.8370  -2.8121  -2.8118  -2.8059  -2.4748  -2.4559  -2.3195  -2.2541
    -2.2429  -2.1226  -2.1159  -2.1086  -2.0966  -2.0618  -2.0098  -1.9817
    -1.9802  -1.9566  -1.9137  -1.8117  -1.7451  -1.6726  -1.6379  -1.5987
    -1.5873  -1.5547  -1.5352  -1.5070  -1.4233  -1.3140  -1.2651  -1.1911
    -1.1700  -1.1291  -1.0908  -1.0841  -1.0650  -1.0397  -0.9114  -0.9033
    -0.8444  -0.8032  -0.7527  -0.7434  -0.7236  -0.7068  -0.6976  -0.6705
    -0.6683  -0.6367  -0.5902  -0.5791  -0.5635  -0.4910  -0.4113  -0.3978
    -0.3786  -0.3589  -0.3008  -0.2830  -0.2180  -0.0989  -0.0157   0.0876
     0.1537   0.1890   0.2167   0.3004   0.3663   0.3950   0.4569   0.4986
     0.5299   0.5603   0.5943   0.6250   0.6569   0.7885   0.8126   0.8529
     0.9712   0.9896   1.0065   1.0098   1.0520   1.0713   1.1111   1.1483
     1.1527   1.1787   1.1872   1.2713   1.2789   1.3039   1.3195   1.3458
     1.3909   1.4099   1.4322   1.4482   1.4534   1.4576   1.4732   1.4811
     1.4907   1.5048   1.5693   1.6337   1.6447   1.6543   1.6836   1.6888
     1.7160   1.7330   1.7643   1.7684   1.7818   1.8034   1.8308   1.8388
     1.8438   1.8756   1.9041   1.9589   1.9742   1.9787   2.0294   2.1013
     2.1113   2.1280   2.2198   2.3211   2.3224   2.3327   2.4078   2.4079
     2.8641   2.8700   2.9316   2.9351   3.0466   3.1214   3.2779   3.3970
     3.8626   3.9295   3.9390   3.9523   4.0324   4.1823   5.7179   6.4275
     6.5341   6.5363   6.6794   6.9409   6.9986   7.0938   7.1008   7.3644
     7.6241   7.7338   7.8148   7.9041   8.0167   8.1543   8.4949   8.5020
     8.6391   8.6650   8.7255   8.8629   8.8836   8.9165   9.0951   9.1480
     9.2412   9.3292   9.3634   9.4297   9.4519   9.4842   9.5236   9.6308
     9.6469   9.6652

          k = 0.3750-1.0472 0.0000 ( 70342 PWs)   bands (ev):

   -38.0746 -37.8422 -35.7089 -35.4437 -23.5762 -23.2842 -22.6825 -22.6640
   -22.6390 -22.6223 -22.4987 -22.4117 -18.7363 -18.5136 -18.3969 -18.2738
   -18.1807 -18.0108 -17.1413 -16.9557 -16.8877 -16.8585 -16.7092 -16.5619
   -14.8293 -14.7776 -14.6840 -14.6366 -14.5674 -14.5493 -14.4766 -14.4655
[...]
    -1.4273  -1.4147  -1.4100  -1.4091  -1.4086  -1.3148  -1.2713  -1.2305
    -1.0669  -1.0309  -1.0300  -0.9596  -0.9355  -0.9223  -0.9198  -0.8754
    -0.8536  -0.8446  -0.8336  -0.8009  -0.7775  -0.6501  -0.6399  -0.6259
    -0.6087  -0.5835  -0.5610  -0.5592  -0.4925  -0.4868  -0.4554  -0.3983
    -0.3410  -0.2856  -0.2400  -0.2134  -0.1668  -0.1659  -0.1400  -0.1313
    -0.1108  -0.0783  -0.0629  -0.0512  -0.0079   0.0553   0.0746   0.1144
     0.1219   0.1251   0.1571   0.1889   0.1959   0.2755   0.2960   0.3078
     0.3484   0.3777   0.3788   0.4009   0.4169   0.4264   0.4557   0.4572
     0.4596   0.5001   0.5149   0.5172   0.5910   0.6054   0.6486   0.7096
     0.7294   0.7608   0.8860   0.9085   0.9429   0.9528   0.9823   0.9940
     1.0057   1.0382   1.0389   1.0661   1.0720   1.1241   1.1262   1.1769
     1.1881   1.1987   1.2600   1.2692   1.2915   1.3067   1.3171   1.4021
     1.4118   1.4617   1.4986   1.5093   1.5152   1.5293   1.5592   1.5619
     1.5704   1.5762   1.5949   1.6341   1.6436   1.7057   1.7547   1.7653
     1.7721   1.7838   1.8003   1.9147   2.0013   2.0794   2.1190   2.1340
     2.5883   2.6236   2.7006   2.7431   2.8144   2.8829   2.8834   2.9050
     2.9121   2.9382   2.9416   2.9991   3.0203   3.1355   5.6988   6.1127
     6.1177   6.1348   6.1376   6.1469   6.6572   6.6881   6.8039   7.0122
     7.1223   7.1971   7.3527   7.4943   7.7005   7.7237   7.7510   7.7746
     7.9598   8.0920   8.1358   8.2668   8.3156   8.3966   8.4419   8.4782
     8.5821   8.6427   8.7266   8.8448   8.8950   8.9388   8.9492   9.1202
     9.1604   9.1726

          k =-0.5000 0.5236 0.0000 ( 70326 PWs)   bands (ev):

   -38.0838 -37.8515 -35.7147 -35.4496 -23.6419 -23.3505 -22.7542 -22.7353
   -22.7249 -22.7087 -22.5747 -22.4881 -18.4469 -18.4258 -18.4176 -18.2242
   -18.2017 -18.1634 -16.9869 -16.9825 -16.9586 -16.7413 -16.7112 -16.6818
   -14.8973 -14.8185 -14.8077 -14.7832 -14.7820 -14.7811 -14.6632 -14.5925
   -14.5660 -14.5313 -14.5099 -14.5030 -14.2832 -14.2130 -14.2081 -14.1968
   -14.1790 -14.1414 -14.0856 -14.0482 -14.0095 -14.0080 -13.9968 -13.9919
   -13.8928 -13.8805 -13.8622 -13.8117 -13.7550 -13.5300  -8.9845  -8.9308
    -8.9114  -8.6140  -8.3773  -8.3308  -8.3136  -8.3017  -8.2851  -8.2655
    -8.0895  -8.0749  -8.0542  -8.0534  -8.0077  -7.9900  -7.9324  -7.8165
    -7.7318  -7.7209  -7.7152  -7.7039  -7.5487  -7.4648  -3.1345  -3.0563
    -3.0344  -2.9896  -2.7981  -2.7721  -2.6819  -2.6468  -2.4739  -2.4425
    -2.3748  -2.3581  -2.3346  -2.3142  -2.2278  -2.2060  -2.2051  -2.2046
    -2.1900  -2.1896  -2.0734  -2.0700  -2.0518  -2.0466  -2.0027  -1.9757
    -1.9674  -1.8777  -1.6244  -1.5303  -1.5109  -1.5103  -1.4682  -1.4639
    -1.4313  -1.3909  -1.3825  -1.3307  -1.3209  -1.2576  -1.1138  -1.0433
    -1.0217  -1.0094  -0.9289  -0.8796  -0.8521  -0.8421  -0.8255  -0.7782
    -0.7759  -0.7376  -0.6921  -0.6563  -0.5807  -0.5284  -0.4993  -0.4806
    -0.4582  -0.4530  -0.4494  -0.4457  -0.4356  -0.4087  -0.3372  -0.3145
    -0.2651  -0.2262  -0.1826  -0.1779  -0.1241  -0.1138  -0.1055  -0.0396
     0.1272   0.1361   0.1639   0.1847   0.3492   0.4027   0.4238   0.4366
     0.4399   0.4637   0.5034   0.5534   0.5758   0.6015   0.6095   0.6446
     0.7819   0.8312   0.8663   0.9080   0.9112   0.9362   0.9604   0.9786
     0.9903   1.0169   1.0407   1.0573   1.0625   1.0649   1.0657   1.0996
     1.1484   1.2061   1.2240   1.2474   1.2947   1.3166   1.3611   1.3923
     1.4092   1.4318   1.4454   1.4536   1.4723   1.4727   1.4945   1.5279
     1.5491   1.5511   1.5616   1.5713   1.5930   1.6180   1.6386   1.6718
     1.6746   1.7273   1.7312   1.7477   1.7517   1.8089   1.9096   1.9342
     1.9536   1.9552   1.9602   1.9927   2.0422   2.0586   2.1284   2.2669
     3.0451   3.0497   3.0752   3.0789   3.2224   3.2604   3.2740   3.3211
     3.3714   3.4575   3.5427   3.5634   3.5943   3.6284   5.8669   6.6012
     6.6345   6.6399   6.6610   6.6673   6.7124   6.7949   7.1675   7.2180
     7.3436   7.4404   7.5425   7.5846   8.0292   8.1338   8.1789   8.2897
     8.3014   8.3122   8.3215   8.4512   8.5467   8.5497   8.6937   8.7114
     8.7920   8.8594   8.9201   8.9968   9.0140   9.0880   9.1033   9.1283
     9.2445   9.2931

          k =-0.5000 0.7854 0.0000 ( 70374 PWs)   bands (ev):

   -38.0773 -37.8449 -35.7106 -35.4454 -23.5952 -23.3043 -22.6989 -22.6800
   -22.6695 -22.6532 -22.5192 -22.4365 -18.6558 -18.4331 -18.4008 -18.3204
   -18.1847 -18.0575 -17.0907 -16.9709 -16.8972 -16.8373 -16.7248 -16.6011
   -14.7670 -14.7402 -14.7249 -14.7164 -14.5988 -14.5915 -14.5792 -14.5190
   -14.4715 -14.4649 -14.4292 -14.4160 -14.3342 -14.3179 -14.3017 -14.1958
   -14.1069 -14.0992 -14.0237 -14.0025 -13.9766 -13.9636 -13.9581 -13.9541
   -13.9506 -13.9488 -13.8754 -13.8749 -13.7304 -13.5555  -9.0911  -9.0372
    -8.9271  -8.6726  -8.5411  -8.4574  -8.4397  -8.4381  -8.4189  -8.4025
    -8.2385  -8.1473  -8.0547  -8.0401  -8.0340  -8.0223  -7.9703  -7.9609
    -7.9603  -7.9442  -7.9436  -7.8116  -7.7682  -7.6537  -3.6461  -3.5538
    -3.4666  -3.3991  -3.2765  -3.2574  -3.1787  -3.1322  -2.9612  -2.8469
    -2.8249  -2.8239  -2.8235  -2.8209  -2.3950  -2.3782  -2.3147  -2.2934
    -2.2235  -2.1955  -2.0948  -2.0834  -2.0683  -2.0583  -1.9985  -1.9940
    -1.9327  -1.9202  -1.8622  -1.8202  -1.8187  -1.7668  -1.7427  -1.7284
    -1.5968  -1.5862  -1.4759  -1.4555  -1.4311  -1.3746  -1.3709  -1.2942
    -1.1620  -1.1516  -1.0954  -1.0782  -1.0626  -1.0457  -0.8898  -0.8574
    -0.8174  -0.7778  -0.7599  -0.7439  -0.7416  -0.7181  -0.6951  -0.6771
    -0.6522  -0.6463  -0.5760  -0.5745  -0.5352  -0.4718  -0.4183  -0.3964
    -0.3809  -0.3672  -0.3308  -0.2841  -0.2073  -0.1614  -0.0279   0.0097
     0.1671   0.2009   0.2465   0.2479   0.4458   0.4650   0.4787   0.4884
     0.5678   0.5799   0.6241   0.6478   0.7202   0.7222   0.8166   0.8609
     0.9794   0.9920   1.0241   1.0480   1.0487   1.0792   1.0880   1.0885
     1.1294   1.1940   1.2680   1.2733   1.3123   1.3129   1.3449   1.3746
     1.3901   1.3965   1.4149   1.4266   1.4383   1.4666   1.4854   1.5152
     1.5467   1.5598   1.5679   1.5690   1.5885   1.6403   1.6470   1.6507
     1.6697   1.6907   1.7502   1.7568   1.7651   1.7921   1.8024   1.8434
     1.8557   1.8584   1.9046   1.9526   1.9640   1.9842   2.0251   2.0902
     2.1123   2.1147   2.1834   2.3288   2.3603   2.3607   2.3705   2.3708
     2.9121   2.9147   2.9369   2.9401   3.4646   3.5101   3.5189   3.5722
     3.6536   3.6670   3.8129   3.8131   3.9190   3.9526   5.8505   6.2813
     6.6790   6.7805   6.7907   6.8194   6.8689   7.0529   7.0944   7.2526
     7.5645   7.7190   7.8124   7.8775   8.0017   8.1476   8.4859   8.5044
     8.6987   8.7059   8.7289   8.7881   8.7966   8.9733   9.0757   9.1423
     9.2275   9.4443   9.4871   9.5184   9.5643   9.5755   9.6349   9.6491
     9.6732   9.7188

          k =-0.5000-1.0472 0.0000 ( 70316 PWs)   bands (ev):

   -38.0746 -37.8422 -35.7089 -35.4437 -23.5755 -23.2849 -22.6756 -22.6566
   -22.6460 -22.6298 -22.4958 -22.4147 -18.7363 -18.5136 -18.3938 -18.2734
   -18.1776 -18.0103 -17.1413 -16.9645 -16.8878 -16.8605 -16.7182 -16.5640
   -14.7904 -14.7240 -14.7199 -14.7009 -14.5664 -14.4997 -14.4712 -14.4445
   -14.4297 -14.4082 -14.3996 -14.3930 -14.3816 -14.3055 -14.2901 -14.2112
   -14.1793 -14.1368 -14.0423 -14.0161 -13.9408 -13.9316 -13.9315 -13.9307
   -13.9299 -13.9279 -13.8714 -13.8687 -13.7286 -13.5755  -9.1248  -9.0230
    -8.9088  -8.8334  -8.5285  -8.5264  -8.4608  -8.4424  -8.4102  -8.3940
    -8.2651  -8.1633  -8.1357  -8.1183  -8.1123  -8.0966  -8.0336  -8.0313
    -8.0129  -8.0128  -7.9788  -7.9262  -7.7726  -7.7596  -3.8473  -3.7588
    -3.6286  -3.5633  -3.4835  -3.4597  -3.3779  -3.2944  -3.1550  -3.0615
    -3.0577  -3.0570  -3.0560  -3.0009  -2.4008  -2.3857  -2.2907  -2.2708
    -2.2189  -2.1581  -2.1561  -2.0566  -2.0539  -2.0523  -2.0451  -2.0233
    -1.9626  -1.9546  -1.9545  -1.9178  -1.8952  -1.8565  -1.8260  -1.8106
    -1.6548  -1.6473  -1.5672  -1.5289  -1.5073  -1.4317  -1.4071  -1.3324
    -1.2357  -1.2155  -1.1624  -1.1550  -1.1374  -1.1312  -0.9082  -0.8536
    -0.8396  -0.8354  -0.8077  -0.7768  -0.7764  -0.7646  -0.7584  -0.7354
    -0.7328  -0.7230  -0.6484  -0.6445  -0.5715  -0.4867  -0.4216  -0.4009
    -0.3986  -0.3827  -0.3503  -0.2852  -0.2208  -0.1700  -0.0023   0.0202
     0.1830   0.2280   0.2891   0.2906   0.4743   0.4857   0.4882   0.5253
     0.5463   0.6752   0.7015   0.7059   0.7080   0.7627   0.9562   0.9604
     1.0209   1.0475   1.1105   1.1196   1.1328   1.1411   1.1593   1.2041
     1.2132   1.2160   1.2230   1.3025   1.3096   1.3353   1.3447   1.3569
     1.3635   1.4388   1.4426   1.4454   1.4795   1.5151   1.5168   1.5621
     1.5754   1.5937   1.6044   1.6186   1.6311   1.6963   1.7029   1.7084
     1.7608   1.7771   1.8253   1.8527   1.8953   1.9068   1.9148   1.9590
     2.0052   2.0125   2.0851   2.0871   2.1566   2.1905   2.1918   2.1948
     2.2045   2.2804   2.3006   2.3332   2.5392   2.5397   2.5487   2.5487
     2.7097   2.7121   2.7242   2.7275   3.4787   3.5331   3.5642   3.6379
     3.6620   3.7425   3.8226   3.8750   3.9811   4.0666   5.7710   6.1327
     6.6551   6.7230   6.7307   6.7653   6.8542   6.9764   7.2395   7.4548
     7.5153   7.6026   7.7245   7.8458   8.1162   8.2268   8.5740   8.6984
     8.7484   8.7526   9.0753   9.2066   9.2496   9.3893   9.3922   9.4192
     9.4564   9.4712   9.4923   9.5920   9.7765   9.7893   9.8110   9.8129
     9.8396   9.8666

     the Fermi energy is     2.7203 ev

!    total energy              =   -3711.67823184 Ry
     Harris-Foulkes estimate   =   -3711.67823181 Ry
     estimated scf accuracy    <          3.8E-09 Ry

     The total energy is the sum of the following terms:

     one-electron contribution =  -60096.49031469 Ry
     hartree contribution      =   30354.00031697 Ry
     xc contribution           =   -1263.79710056 Ry
     ewald contribution        =   27294.62161100 Ry
     smearing contrib. (-TS)   =      -0.01274456 Ry

     convergence has been achieved in  36 iterations

     negative rho (up, down):  9.200E-02 0.000E+00

     Forces acting on atoms (cartesian axes, Ry/au):

     atom    1 type  4   force =    -0.00000772    0.00000000   -0.00009242
     atom    2 type  4   force =     0.00000772    0.00000000   -0.00009242
     atom    3 type  3   force =    -0.00001288    0.00000000   -0.00007302
     atom    4 type  3   force =     0.00001288    0.00000000   -0.00007302
     atom    5 type  4   force =    -0.00000084    0.00000000   -0.00004234
     atom    6 type  4   force =     0.00000084    0.00000000   -0.00004234
     atom    7 type  1   force =     0.00000000    0.00000000   -0.00013259
     atom    8 type  1   force =     0.00000000    0.00000000   -0.00012173
     atom    9 type  3   force =     0.00004628    0.00000000    0.00003873
     atom   10 type  3   force =    -0.00004628    0.00000000    0.00003873
     atom   11 type  4   force =     0.00000000    0.00000000    0.00013389
     atom   12 type  4   force =     0.00000643    0.00000000    0.00010647
     atom   13 type  4   force =    -0.00000643    0.00000000    0.00010647
     atom   14 type  4   force =     0.00000000    0.00000000    0.00021205
     atom   15 type  2   force =     0.00000000    0.00000000   -0.00063793
     atom   16 type  5   force =     0.00000000    0.00000000   -0.00100875
     atom   17 type  4   force =     0.00011122    0.00000000    0.00099289
     atom   18 type  4   force =    -0.00011122    0.00000000    0.00099289
     atom   19 type  4   force =     0.00000000    0.00000000    0.00118999
     atom   20 type  4   force =     0.00000000    0.00000000    0.00151534
     atom   21 type  3   force =    -0.00010458    0.00000000   -0.00125972
     atom   22 type  3   force =     0.00010458    0.00000000   -0.00125972
     atom   23 type  1   force =     0.00000000    0.00000000   -0.00412495
     atom   24 type  1   force =     0.00000000    0.00000000   -0.00473076
     atom   25 type  4   force =    -0.00067549    0.00000000    0.00485415
     atom   26 type  4   force =     0.00067549    0.00000000    0.00485415
     atom   27 type  4   force =     0.00069709    0.00000000    0.01022991
     atom   28 type  4   force =    -0.00069709    0.00000000    0.01022991
     atom   29 type  3   force =     0.00121748    0.00000000   -0.00733026
     atom   30 type  3   force =    -0.00121748    0.00000000   -0.00733026
     atom   31 type  4   force =    -0.00718913    0.00000000    0.01130451
     atom   32 type  4   force =     0.00718913    0.00000000    0.01130451
     atom   33 type  1   force =     0.00000000    0.00000000   -0.00299919
     atom   34 type  1   force =     0.00000000    0.00000000    0.01223709
     atom   35 type  3   force =    -0.00699694    0.00000000    0.00192230
     atom   36 type  3   force =     0.00699694    0.00000000    0.00192230
     atom   37 type  4   force =     0.00000000    0.00000000   -0.00383482
     atom   38 type  4   force =     0.00000000    0.00000000    0.00500736
     atom   39 type  4   force =     0.00162898    0.00000000   -0.00007110
     atom   40 type  4   force =    -0.00162898    0.00000000   -0.00007110
     atom   41 type  5   force =     0.00000000    0.00000000   -0.03153595
     atom   42 type  2   force =     0.00000000    0.00000000   -0.02544041
     atom   43 type  4   force =     0.00000000    0.00000000    0.00411079
     atom   44 type  4   force =     0.00028012    0.00000000    0.00215840
     atom   45 type  4   force =    -0.00028012    0.00000000    0.00215840
     atom   46 type  4   force =     0.00000000    0.00000000    0.00317593
     atom   47 type  3   force =     0.00050395    0.00000000    0.00082865
     atom   48 type  3   force =    -0.00050395    0.00000000    0.00082865
     atom   49 type  1   force =     0.00000000    0.00000000   -0.00071301
     atom   50 type  1   force =     0.00000000    0.00000000   -0.00083041
     atom   51 type  4   force =     0.00006040    0.00000000    0.00066818
     atom   52 type  4   force =    -0.00006040    0.00000000    0.00066818
     atom   53 type  3   force =    -0.00003502    0.00000000   -0.00025692
     atom   54 type  3   force =     0.00003502    0.00000000   -0.00025692
     atom   55 type  4   force =    -0.00000022    0.00000000    0.00028565
     atom   56 type  4   force =     0.00000022    0.00000000    0.00028565

     Total force =     0.052623     Total SCF correction =     0.000174


     Computing stress (Cartesian axis) and pressure


     negative rho (up, down):  9.200E-02 0.000E+00
          total   stress  (Ry/bohr**3)                   (kbar)     P=       -7.08
  -0.00006353   0.00000000   0.00000000           -9.35        0.00        0.00
   0.00000000  -0.00003785   0.00000000            0.00       -5.57        0.00
   0.00000000   0.00000000  -0.00004303            0.00        0.00       -6.33

 
     init_run     :     24.19s CPU     25.33s WALL (       1 calls)
     electrons    :   1792.94s CPU   1874.59s WALL (       1 calls)
     forces       :     10.05s CPU     10.69s WALL (       1 calls)
     stress       :    100.51s CPU    102.29s WALL (       1 calls)

     Called by init_run:
     wfcinit      :     19.91s CPU     20.42s WALL (       1 calls)
     potinit      :      1.00s CPU      1.02s WALL (       1 calls)
     hinit0       :      1.64s CPU      1.67s WALL (       1 calls)

     Called by electrons:
     c_bands      :   1508.05s CPU   1547.31s WALL (      36 calls)
     sum_band     :    214.43s CPU    238.61s WALL (      36 calls)
     v_of_rho     :      4.60s CPU      4.67s WALL (      37 calls)
     newd         :     30.70s CPU     49.01s WALL (      37 calls)
     mix_rho      :     35.52s CPU     35.80s WALL (      36 calls)

     Called by c_bands:
     init_us_2    :      8.51s CPU      8.59s WALL (    1875 calls)
     cegterg      :   1438.52s CPU   1476.71s WALL (     900 calls)

     Called by sum_band:
     sum_band:bec :      1.02s CPU      1.03s WALL (     900 calls)
     addusdens    :     32.46s CPU     54.24s WALL (      36 calls)

     Called by *egterg:
     h_psi        :    670.80s CPU    685.32s WALL (    4985 calls)
     s_psi        :    102.02s CPU    102.65s WALL (    4985 calls)
     g_psi        :      1.49s CPU      1.51s WALL (    4060 calls)
     cdiaghg      :    371.10s CPU    372.48s WALL (    4960 calls)

     Called by h_psi:
     h_psi:calbec :    110.52s CPU    111.01s WALL (    4985 calls)
     vloc_psi     :    454.30s CPU    461.28s WALL (    4985 calls)
     add_vuspsi   :    103.11s CPU    103.60s WALL (    4985 calls)

     General routines
     calbec       :    188.13s CPU    188.91s WALL (    6010 calls)
     fft          :      4.10s CPU      4.14s WALL (     504 calls)
     ffts         :     20.53s CPU     20.69s WALL (   21562 calls)
     fftw         :    524.45s CPU    532.26s WALL ( 1280238 calls)
     interpolate  :      0.36s CPU      0.37s WALL (      37 calls)
 
     Parallel routines
     fft_scatt_xy :     60.43s CPU     61.37s WALL ( 1302304 calls)
     fft_scatt_yz :    348.44s CPU    353.62s WALL ( 1302304 calls)
 
     PWSCF        :  32m 8.70s CPU  33m33.95s WALL

 
   This run was terminated on:  14:58:30  25May2021            

=------------------------------------------------------------------------------=
   JOB DONE.
=------------------------------------------------------------------------------=
[1621969110.717872] [holy7c04508:181137:0]          mpool.c:43   UCX  WARN  object 0x4172c40 was not returned to mpool ucp_requests
[1621969110.717891] [holy7c04508:181137:0]          mpool.c:43   UCX  WARN  object 0x4172fc0 was not returned to mpool ucp_requests
[1621969110.723890] [holy7c04504:12974:0]          mpool.c:43   UCX  WARN  object 0x35d4780 was not returned to mpool ucp_requests
[1621969110.720745] [holy7c04502:155254:0]          mpool.c:43   UCX  WARN  object 0x4210f40 was not returned to mpool ucp_requests
[1621969110.728640] [holy7c04505:179477:0]          mpool.c:43   UCX  WARN  object 0x4221100 was not returned to mpool ucp_requests
[1621969110.733292] [holy7c04506:193037:0]          mpool.c:43   UCX  WARN  object 0x3fed080 was not returned to mpool ucp_requests
[1621969110.724230] [holy7c04504:12975:0]          mpool.c:43   UCX  WARN  object 0x456ce40 was not returned to mpool ucp_requests
[1621969110.724246] [holy7c04504:12975:0]          mpool.c:43   UCX  WARN  object 0x456d000 was not returned to mpool ucp_requests
[1621969110.740684] [holy7c04505:179476:0]          mpool.c:43   UCX  WARN  object 0x39b47c0 was not returned to mpool ucp_requests
[1621969110.740702] [holy7c04505:179476:0]          mpool.c:43   UCX  WARN  object 0x39b4980 was not returned to mpool ucp_requests
[1621969110.740561] [holy7c04505:179478:0]          mpool.c:43   UCX  WARN  object 0x36e8180 was not returned to mpool ucp_requests
[1621969110.740581] [holy7c04505:179478:0]          mpool.c:43   UCX  WARN  object 0x36e8880 was not returned to mpool ucp_requests
[1621969110.739149] [holy7c04506:193034:0]          mpool.c:43   UCX  WARN  object 0x46d7c40 was not returned to mpool ucp_requests
[1621969110.739173] [holy7c04506:193034:0]          mpool.c:43   UCX  WARN  object 0x46d8500 was not returned to mpool ucp_requests
[1621969110.741420] [holy7c04506:193032:0]          mpool.c:43   UCX  WARN  object 0x4098180 was not returned to mpool ucp_requests
[1621969110.741519] [holy7c04506:193036:0]          mpool.c:43   UCX  WARN  object 0x3658f80 was not returned to mpool ucp_requests
[1621969110.730930] [holy7c04507:177459:0]          mpool.c:43   UCX  WARN  object 0x31e89c0 was not returned to mpool ucp_requests
[1621969110.730721] [holy7c04507:177457:0]          mpool.c:43   UCX  WARN  object 0x42ceac0 was not returned to mpool ucp_requests
[1621969110.730738] [holy7c04507:177457:0]          mpool.c:43   UCX  WARN  object 0x42cf000 was not returned to mpool ucp_requests
