
     Program PWSCF v.6.5 starts on 27May2021 at 23:18:26 

     This program is part of the open-source Quantum ESPRESSO suite
     for quantum simulation of materials; please cite
         "P. Giannozzi et al., J. Phys.:Condens. Matter 21 395502 (2009);
         "P. Giannozzi et al., J. Phys.:Condens. Matter 29 465901 (2017);
          URL http://www.quantum-espresso.org", 
     in publications or presentations arising from this work. More details at
     http://www.quantum-espresso.org/quote

     Parallel version (MPI), running on    32 processors

     MPI processes distributed on    13 nodes
     R & G space division:  proc/nbgrp/npool/nimage =      32
     Reading input from YCBCO50_212_BaO_cleave_5.0_sep.pwi
Warning: card &IONS ignored
Warning: card     ION_DYNAMICS = 'BFGS' ignored
Warning: card / ignored
Warning: card &CELL ignored
Warning: card     CELL_DYNAMICS = 'BFGS' ignored
Warning: card     PRESS_CONV_THR = 5 ignored
Warning: card / ignored

     Current dimensions of program PWSCF are:
     Max number of different atomic species (ntypx) = 10
     Max number of k-points (npk) =  40000
     Max angular momentum in pseudopotentials (lmaxx) =  3

     Subspace diagonalization in iterative solution of the eigenvalue problem:
     one sub-group per band group will be used
     scalapack distributed-memory algorithm (size of sub-group:  5*  5 procs)

     Message from routine setup:
     using ibrav=0 with symmetry is DISCOURAGED, use correct ibrav instead
 
     Parallelization info
     --------------------
     sticks:   dense  smooth     PW     G-vecs:    dense   smooth      PW
     Min         188      62     17                98946    19030    2839
     Max         189      63     18                98978    19081    2884
     Sum        6019    2003    565              3166881   609811   91731
 


     bravais-lattice index     =            0
     lattice parameter (alat)  =      14.8133  a.u.
     unit-cell volume          =    9707.1835 (a.u.)^3
     number of atoms/cell      =           56
     number of atomic types    =            5
     number of electrons       =       456.00
     number of Kohn-Sham states=          274
     kinetic-energy cutoff     =      60.0000  Ry
     charge density cutoff     =     720.0000  Ry
     convergence threshold     =      1.0E-08
     mixing beta               =       0.5000
     number of iterations used =           10  local-TF  mixing
     Exchange-correlation= SLA PW PBE PBE
                           (   1   4   3   4   0   0   0)

     celldm(1)=  14.813271  celldm(2)=   0.000000  celldm(3)=   0.000000
     celldm(4)=   0.000000  celldm(5)=   0.000000  celldm(6)=   0.000000

     crystal axes: (cart. coord. in units of alat)
               a(1) = (   1.000000   0.000000   0.000000 )  
               a(2) = (   0.000000   0.477453   0.000000 )  
               a(3) = (   0.000000   0.000000   6.254750 )  

     reciprocal axes: (cart. coord. in units 2 pi/alat)
               b(1) = (  1.000000  0.000000  0.000000 )  
               b(2) = (  0.000000  2.094448  0.000000 )  
               b(3) = (  0.000000  0.000000  0.159878 )  


     PseudoPot. # 1 for Ba read from file:
     ./pseudo/Ba.pbe-nsp-van.UPF
     MD5 check sum: 2b9c31dd849566dd297d80989662b7a0
     Pseudo is Ultrasoft + core correction, Zval = 10.0
     Generated by new atomic code, or converted to UPF format
     Using radial grid of  907 points,  6 beta functions with: 
                l(1) =   0
                l(2) =   0
                l(3) =   1
                l(4) =   1
                l(5) =   2
                l(6) =   2
     Q(r) pseudized with  6 coefficients,  rinner =    1.200   1.200   1.200
                                                       1.200   1.200

     PseudoPot. # 2 for Ca read from file:
     ./pseudo/Ca.pbe-nsp-van.UPF
     MD5 check sum: 6471098428ff4fa451746d08035ff179
     Pseudo is Ultrasoft + core correction, Zval = 10.0
     Generated by new atomic code, or converted to UPF format
     Using radial grid of  845 points,  6 beta functions with: 
                l(1) =   0
                l(2) =   0
                l(3) =   1
                l(4) =   1
                l(5) =   2
                l(6) =   2
     Q(r) pseudized with  6 coefficients,  rinner =    1.200   1.200   1.200
                                                       1.200   1.200

     PseudoPot. # 3 for Cu read from file:
     ./pseudo/Cu.pbe-n-van_ak.UPF
     MD5 check sum: 34e3282627ffb533726feb647e090d62
     Pseudo is Ultrasoft + core correction, Zval = 11.0
     Generated by new atomic code, or converted to UPF format
     Using radial grid of  867 points,  6 beta functions with: 
                l(1) =   0
                l(2) =   0
                l(3) =   1
                l(4) =   1
                l(5) =   2
                l(6) =   2
     Q(r) pseudized with  8 coefficients,  rinner =    1.400   1.400   1.400
                                                       1.400   1.400

     PseudoPot. # 4 for O  read from file:
     ./pseudo/O.pbe-van_ak.UPF
     MD5 check sum: 783ce7fe4c79b6a4916957118fed0856
     Pseudo is Ultrasoft, Zval =  6.0
     Generated by new atomic code, or converted to UPF format
     Using radial grid of  737 points,  4 beta functions with: 
                l(1) =   0
                l(2) =   0
                l(3) =   1
                l(4) =   1
     Q(r) pseudized with  8 coefficients,  rinner =    0.800   0.800   0.800


     PseudoPot. # 5 for Y  read from file:
     ./pseudo/Y.pbe-nsp-van.UPF
     MD5 check sum: 4412fed3ab108fed87a1b7d6a69a4a38
     Pseudo is Ultrasoft + core correction, Zval = 11.0
     Generated by new atomic code, or converted to UPF format
     Using radial grid of  885 points,  6 beta functions with: 
                l(1) =   0
                l(2) =   0
                l(3) =   1
                l(4) =   1
                l(5) =   2
                l(6) =   2
     Q(r) pseudized with  6 coefficients,  rinner =    1.200   1.200   1.200
                                                       1.200   1.200

     atomic species   valence    mass     pseudopotential
        Ba            10.00   137.32700     Ba( 1.00)
        Ca            10.00    40.07800     Ca( 1.00)
        Cu            11.00    63.54600     Cu( 1.00)
        O              6.00    15.99900     O ( 1.00)
        Y             11.00    88.90584     Y ( 1.00)

      4 Sym. Ops. (no inversion) found ( 2 have fractional translation)



   Cartesian axes

     site n.     atom                  positions (alat units)
         1           O   tau(   1) = (  -0.0008343   0.2387265  -0.0222443  )
         2           O   tau(   2) = (   0.5008340   0.2387265  -0.0222443  )
         3           Cu  tau(   3) = (   0.5017257   0.0000000   0.0109608  )
         4           Cu  tau(   4) = (  -0.0017260   0.0000000   0.0109608  )
         5           O   tau(   5) = (  -0.0028933   0.0000000   0.2506504  )
         6           O   tau(   6) = (   0.5028929   0.0000000   0.2506504  )
         7           Ba  tau(   7) = (   0.7499995   0.2387265   0.2749435  )
         8           Ba  tau(   8) = (   0.2499998   0.2387265   0.2755214  )
         9           Cu  tau(   9) = (   0.4980963   0.0000000   0.5208446  )
        10           Cu  tau(  10) = (   0.0019033   0.0000000   0.5208446  )
        11           O   tau(  11) = (   0.2499998   0.0000000   0.5341884  )
        12           O   tau(  12) = (   0.5083351   0.2387265   0.5569851  )
        13           O   tau(  13) = (  -0.0083354   0.2387265   0.5569851  )
        14           O   tau(  14) = (   0.7499995   0.0000000   0.5573831  )
        15           Ca  tau(  15) = (   0.2499998   0.2387265   0.7436937  )
        16           Y   tau(  16) = (   0.7499995   0.2387265   0.7469544  )
        17           O   tau(  17) = (  -0.0063798   0.2387265   0.9248530  )
        18           O   tau(  18) = (   0.5063794   0.2387265   0.9248530  )
        19           O   tau(  19) = (   0.7499995   0.0000000   0.9338544  )
        20           O   tau(  20) = (   0.2499998   0.0000000   0.9461329  )
        21           Cu  tau(  21) = (   0.0015717   0.0000000   0.9686860  )
        22           Cu  tau(  22) = (   0.4984280   0.0000000   0.9686860  )
        23           Ba  tau(  23) = (   0.2499998   0.2387265   1.2085224  )
        24           Ba  tau(  24) = (   0.7499995   0.2387265   1.2233294  )
        25           O   tau(  25) = (   0.0063772   0.0000000   1.2547537  )
        26           O   tau(  26) = (   0.4936224   0.0000000   1.2547537  )
        27           O   tau(  27) = (   0.5384045   0.2387265   1.4952521  )
        28           O   tau(  28) = (  -0.0384049   0.2387265   1.4952521  )
        29           Cu  tau(  29) = (   0.5006120   0.0000000   1.4952546  )
        30           Cu  tau(  30) = (  -0.0006123   0.0000000   1.4952546  )
        31           O   tau(  31) = (   0.4936212   0.0000000   1.7357531  )
        32           O   tau(  32) = (   0.0063785   0.0000000   1.7357531  )
        33           Ba  tau(  33) = (   0.7499995   0.2387265   1.7671824  )
        34           Ba  tau(  34) = (   0.2499998   0.2387265   1.7819920  )
        35           Cu  tau(  35) = (   0.4984280   0.0000000   2.6596723  )
        36           Cu  tau(  36) = (   0.0015717   0.0000000   2.6596723  )
        37           O   tau(  37) = (   0.2499998   0.0000000   2.6822304  )
        38           O   tau(  38) = (   0.7499995   0.0000000   2.6945001  )
        39           O   tau(  39) = (   0.5063781   0.2387265   2.7035053  )
        40           O   tau(  40) = (  -0.0063785   0.2387265   2.7035053  )
        41           Y   tau(  41) = (   0.7499995   0.2387265   2.8813988  )
        42           Ca  tau(  42) = (   0.2499998   0.2387265   2.8846684  )
        43           O   tau(  43) = (   0.7499995   0.0000000   3.0709663  )
        44           O   tau(  44) = (  -0.0083354   0.2387265   3.0713681  )
        45           O   tau(  45) = (   0.5083351   0.2387265   3.0713681  )
        46           O   tau(  46) = (   0.2499998   0.0000000   3.0941661  )
        47           Cu  tau(  47) = (   0.0019059   0.0000000   3.1074997  )
        48           Cu  tau(  48) = (   0.4980938   0.0000000   3.1074997  )
        49           Ba  tau(  49) = (   0.2499998   0.2387265   3.3528394  )
        50           Ba  tau(  50) = (   0.7499995   0.2387265   3.3533816  )
        51           O   tau(  51) = (  -0.0028895   0.0000000   3.3776887  )
        52           O   tau(  52) = (   0.5028891   0.0000000   3.3776887  )
        53           Cu  tau(  53) = (   0.5017844   0.0000000   3.6173733  )
        54           Cu  tau(  54) = (  -0.0017847   0.0000000   3.6173733  )
        55           O   tau(  55) = (   0.5008990   0.2387265   3.6505797  )
        56           O   tau(  56) = (  -0.0008994   0.2387265   3.6505797  )

     number of k points=    25  Gaussian smearing, width (Ry)=  0.0100
                       cart. coord. in units 2pi/alat
        k(    1) = (   0.0000000   0.0000000   0.0000000), wk =   0.0312500
        k(    2) = (   0.0000000   0.2618060   0.0000000), wk =   0.0625000
        k(    3) = (   0.0000000   0.5236121   0.0000000), wk =   0.0625000
        k(    4) = (   0.0000000   0.7854181   0.0000000), wk =   0.0625000
        k(    5) = (   0.0000000  -1.0472241   0.0000000), wk =   0.0312500
        k(    6) = (   0.1250000   0.0000000   0.0000000), wk =   0.0625000
        k(    7) = (   0.1250000   0.2618060   0.0000000), wk =   0.1250000
        k(    8) = (   0.1250000   0.5236121   0.0000000), wk =   0.1250000
        k(    9) = (   0.1250000   0.7854181   0.0000000), wk =   0.1250000
        k(   10) = (   0.1250000  -1.0472241   0.0000000), wk =   0.0625000
        k(   11) = (   0.2500000   0.0000000   0.0000000), wk =   0.0625000
        k(   12) = (   0.2500000   0.2618060   0.0000000), wk =   0.1250000
        k(   13) = (   0.2500000   0.5236121   0.0000000), wk =   0.1250000
        k(   14) = (   0.2500000   0.7854181   0.0000000), wk =   0.1250000
        k(   15) = (   0.2500000  -1.0472241   0.0000000), wk =   0.0625000
        k(   16) = (   0.3750000   0.0000000   0.0000000), wk =   0.0625000
        k(   17) = (   0.3750000   0.2618060   0.0000000), wk =   0.1250000
        k(   18) = (   0.3750000   0.5236121   0.0000000), wk =   0.1250000
        k(   19) = (   0.3750000   0.7854181   0.0000000), wk =   0.1250000
        k(   20) = (   0.3750000  -1.0472241   0.0000000), wk =   0.0625000
        k(   21) = (  -0.5000000   0.0000000   0.0000000), wk =   0.0312500
        k(   22) = (  -0.5000000   0.2618060   0.0000000), wk =   0.0625000
        k(   23) = (  -0.5000000   0.5236121   0.0000000), wk =   0.0625000
        k(   24) = (  -0.5000000   0.7854181   0.0000000), wk =   0.0625000
        k(   25) = (  -0.5000000  -1.0472241   0.0000000), wk =   0.0312500

     Dense  grid:  3166881 G-vectors     FFT dimensions: ( 128,  64, 800)

     Smooth grid:   609811 G-vectors     FFT dimensions: (  80,  36, 480)

     Estimated max dynamical RAM per process >     914.93 MB

     Estimated total dynamical RAM >      28.59 GB

     Initial potential from superposition of free atoms

     starting charge  455.69457, renormalised to  456.00000

     negative rho (up, down):  9.324E-02 0.000E+00
     Starting wfcs are  396 randomized atomic wfcs

     total cpu time spent up to now is       29.2 secs

     Self-consistent Calculation

     iteration #  1     ecut=    60.00 Ry     beta= 0.50
     Davidson diagonalization with overlap
     ethr =  1.00E-02,  avg # of iterations =  2.0

     negative rho (up, down):  8.638E-02 0.000E+00

     total cpu time spent up to now is       79.9 secs

     total energy              =   -3708.21212590 Ry
     Harris-Foulkes estimate   =   -3716.62558208 Ry
     estimated scf accuracy    <      36.64830300 Ry

     iteration #  2     ecut=    60.00 Ry     beta= 0.50
     Davidson diagonalization with overlap
     ethr =  8.04E-03,  avg # of iterations =  2.0

     negative rho (up, down):  8.622E-02 0.000E+00

     total cpu time spent up to now is      129.8 secs

     total energy              =   -3711.12047207 Ry
     Harris-Foulkes estimate   =   -3712.55179689 Ry
     estimated scf accuracy    <      10.90175346 Ry

     iteration #  3     ecut=    60.00 Ry     beta= 0.50
     Davidson diagonalization with overlap
     ethr =  2.39E-03,  avg # of iterations =  1.0

     negative rho (up, down):  8.665E-02 0.000E+00

     total cpu time spent up to now is      175.9 secs

     total energy              =   -3711.72018164 Ry
     Harris-Foulkes estimate   =   -3712.03827333 Ry
     estimated scf accuracy    <       8.87043648 Ry

     iteration #  4     ecut=    60.00 Ry     beta= 0.50
     Davidson diagonalization with overlap
     ethr =  1.95E-03,  avg # of iterations =  1.0

     negative rho (up, down):  8.712E-02 0.000E+00

     total cpu time spent up to now is      222.3 secs

     total energy              =   -3711.79101456 Ry
     Harris-Foulkes estimate   =   -3711.87911119 Ry
     estimated scf accuracy    <       5.90583869 Ry

     iteration #  5     ecut=    60.00 Ry     beta= 0.50
     Davidson diagonalization with overlap
     ethr =  1.30E-03,  avg # of iterations =  1.0

     negative rho (up, down):  8.859E-02 0.000E+00

     total cpu time spent up to now is      268.2 secs

     total energy              =   -3711.66104318 Ry
     Harris-Foulkes estimate   =   -3711.86165839 Ry
     estimated scf accuracy    <       4.50458961 Ry

     iteration #  6     ecut=    60.00 Ry     beta= 0.50
     Davidson diagonalization with overlap
     ethr =  9.88E-04,  avg # of iterations =  1.0

     negative rho (up, down):  8.966E-02 0.000E+00

     total cpu time spent up to now is      314.4 secs

     total energy              =   -3711.65490426 Ry
     Harris-Foulkes estimate   =   -3711.72990664 Ry
     estimated scf accuracy    <       2.19302667 Ry

     iteration #  7     ecut=    60.00 Ry     beta= 0.50
     Davidson diagonalization with overlap
     ethr =  4.81E-04,  avg # of iterations =  3.8

     negative rho (up, down):  9.048E-02 0.000E+00

     total cpu time spent up to now is      368.2 secs

     total energy              =   -3711.64398004 Ry
     Harris-Foulkes estimate   =   -3711.68227170 Ry
     estimated scf accuracy    <       0.82132779 Ry

     iteration #  8     ecut=    60.00 Ry     beta= 0.50
     Davidson diagonalization with overlap
     ethr =  1.80E-04,  avg # of iterations =  7.7

     negative rho (up, down):  9.123E-02 0.000E+00

     total cpu time spent up to now is      437.1 secs

     total energy              =   -3711.62050173 Ry
     Harris-Foulkes estimate   =   -3711.65786923 Ry
     estimated scf accuracy    <       1.01009384 Ry

     iteration #  9     ecut=    60.00 Ry     beta= 0.50
     Davidson diagonalization with overlap
     ethr =  1.80E-04,  avg # of iterations =  2.2

     negative rho (up, down):  9.138E-02 0.000E+00

     total cpu time spent up to now is      485.7 secs

     total energy              =   -3711.59113288 Ry
     Harris-Foulkes estimate   =   -3711.63344633 Ry
     estimated scf accuracy    <       1.14603537 Ry

     iteration # 10     ecut=    60.00 Ry     beta= 0.50
     Davidson diagonalization with overlap
     ethr =  1.80E-04,  avg # of iterations =  5.6

     negative rho (up, down):  9.117E-02 0.000E+00

     total cpu time spent up to now is      544.7 secs

     total energy              =   -3711.58939063 Ry
     Harris-Foulkes estimate   =   -3711.60387536 Ry
     estimated scf accuracy    <       0.39362422 Ry

     iteration # 11     ecut=    60.00 Ry     beta= 0.50
     Davidson diagonalization with overlap
     c_bands:  1 eigenvalues not converged
     ethr =  8.63E-05,  avg # of iterations =  6.6

     negative rho (up, down):  9.065E-02 0.000E+00

     total cpu time spent up to now is      607.0 secs

     total energy              =   -3711.58485709 Ry
     Harris-Foulkes estimate   =   -3711.59308376 Ry
     estimated scf accuracy    <       0.22237411 Ry

     iteration # 12     ecut=    60.00 Ry     beta= 0.50
     Davidson diagonalization with overlap
     ethr =  4.88E-05,  avg # of iterations =  8.7

     negative rho (up, down):  9.199E-02 0.000E+00

     total cpu time spent up to now is      676.0 secs

     total energy              =   -3711.58170636 Ry
     Harris-Foulkes estimate   =   -3711.58753159 Ry
     estimated scf accuracy    <       0.09072576 Ry

     iteration # 13     ecut=    60.00 Ry     beta= 0.50
     Davidson diagonalization with overlap
     ethr =  1.99E-05,  avg # of iterations =  9.6

     negative rho (up, down):  9.165E-02 0.000E+00

     total cpu time spent up to now is      750.1 secs

     total energy              =   -3711.58258571 Ry
     Harris-Foulkes estimate   =   -3711.58421949 Ry
     estimated scf accuracy    <       0.04136411 Ry

     iteration # 14     ecut=    60.00 Ry     beta= 0.50
     Davidson diagonalization with overlap
     ethr =  9.07E-06,  avg # of iterations =  5.6

     negative rho (up, down):  1.004E-01 0.000E+00

     total cpu time spent up to now is      809.4 secs

     total energy              =   -3711.58215570 Ry
     Harris-Foulkes estimate   =   -3711.58312594 Ry
     estimated scf accuracy    <       0.01655413 Ry

     iteration # 15     ecut=    60.00 Ry     beta= 0.50
     Davidson diagonalization with overlap
     c_bands:  1 eigenvalues not converged
     c_bands:  1 eigenvalues not converged
     c_bands:  1 eigenvalues not converged
     ethr =  3.63E-06,  avg # of iterations = 11.7

     negative rho (up, down):  9.106E-02 0.000E+00

     total cpu time spent up to now is      891.7 secs

     total energy              =   -3711.58141042 Ry
     Harris-Foulkes estimate   =   -3711.58250349 Ry
     estimated scf accuracy    <       0.01528491 Ry

     iteration # 16     ecut=    60.00 Ry     beta= 0.50
     Davidson diagonalization with overlap
     ethr =  3.35E-06,  avg # of iterations =  5.9

     negative rho (up, down):  8.995E-02 0.000E+00

     total cpu time spent up to now is      953.4 secs

     total energy              =   -3711.58006030 Ry
     Harris-Foulkes estimate   =   -3711.58156439 Ry
     estimated scf accuracy    <       0.01236346 Ry

     iteration # 17     ecut=    60.00 Ry     beta= 0.50
     Davidson diagonalization with overlap
     ethr =  2.71E-06,  avg # of iterations =  6.6

     negative rho (up, down):  8.999E-02 0.000E+00

     total cpu time spent up to now is     1016.0 secs

     total energy              =   -3711.58040360 Ry
     Harris-Foulkes estimate   =   -3711.58028145 Ry
     estimated scf accuracy    <       0.03011231 Ry

     iteration # 18     ecut=    60.00 Ry     beta= 0.50
     Davidson diagonalization with overlap
     ethr =  2.71E-06,  avg # of iterations =  5.0

     negative rho (up, down):  8.999E-02 0.000E+00

     total cpu time spent up to now is     1074.3 secs

     total energy              =   -3711.58035300 Ry
     Harris-Foulkes estimate   =   -3711.58052705 Ry
     estimated scf accuracy    <       0.01432530 Ry

     iteration # 19     ecut=    60.00 Ry     beta= 0.50
     Davidson diagonalization with overlap
     ethr =  2.71E-06,  avg # of iterations =  1.0

     negative rho (up, down):  9.016E-02 0.000E+00

     total cpu time spent up to now is     1119.9 secs

     total energy              =   -3711.57950819 Ry
     Harris-Foulkes estimate   =   -3711.58037186 Ry
     estimated scf accuracy    <       0.01348189 Ry

     iteration # 20     ecut=    60.00 Ry     beta= 0.50
     Davidson diagonalization with overlap
     ethr =  2.71E-06,  avg # of iterations =  5.7

     negative rho (up, down):  9.015E-02 0.000E+00

     total cpu time spent up to now is     1179.8 secs

     total energy              =   -3711.57737495 Ry
     Harris-Foulkes estimate   =   -3711.57959030 Ry
     estimated scf accuracy    <       0.00931670 Ry

     iteration # 21     ecut=    60.00 Ry     beta= 0.50
     Davidson diagonalization with overlap
     c_bands:  1 eigenvalues not converged
     c_bands:  1 eigenvalues not converged
     ethr =  2.04E-06,  avg # of iterations = 10.8

     negative rho (up, down):  9.025E-02 0.000E+00

     total cpu time spent up to now is     1257.3 secs

     total energy              =   -3711.57676888 Ry
     Harris-Foulkes estimate   =   -3711.57755061 Ry
     estimated scf accuracy    <       0.00802019 Ry

     iteration # 22     ecut=    60.00 Ry     beta= 0.50
     Davidson diagonalization with overlap
     c_bands:  1 eigenvalues not converged
     ethr =  1.76E-06,  avg # of iterations =  9.2

     negative rho (up, down):  9.006E-02 0.000E+00

     total cpu time spent up to now is     1328.6 secs

     total energy              =   -3711.57673124 Ry
     Harris-Foulkes estimate   =   -3711.57689443 Ry
     estimated scf accuracy    <       0.00433719 Ry

     iteration # 23     ecut=    60.00 Ry     beta= 0.50
     Davidson diagonalization with overlap
     ethr =  9.51E-07,  avg # of iterations =  5.8

     negative rho (up, down):  9.102E-02 0.000E+00

     total cpu time spent up to now is     1390.3 secs

     total energy              =   -3711.57690831 Ry
     Harris-Foulkes estimate   =   -3711.57681147 Ry
     estimated scf accuracy    <       0.00212380 Ry

     iteration # 24     ecut=    60.00 Ry     beta= 0.50
     Davidson diagonalization with overlap
     ethr =  4.66E-07,  avg # of iterations =  3.5

     negative rho (up, down):  9.090E-02 0.000E+00

     total cpu time spent up to now is     1444.2 secs

     total energy              =   -3711.57694085 Ry
     Harris-Foulkes estimate   =   -3711.57694420 Ry
     estimated scf accuracy    <       0.00114725 Ry

     iteration # 25     ecut=    60.00 Ry     beta= 0.50
     Davidson diagonalization with overlap
     ethr =  2.52E-07,  avg # of iterations =  2.4

     negative rho (up, down):  9.098E-02 0.000E+00

     total cpu time spent up to now is     1494.6 secs

     total energy              =   -3711.57696850 Ry
     Harris-Foulkes estimate   =   -3711.57694985 Ry
     estimated scf accuracy    <       0.00084198 Ry

     iteration # 26     ecut=    60.00 Ry     beta= 0.50
     Davidson diagonalization with overlap
     ethr =  1.85E-07,  avg # of iterations =  4.3

     negative rho (up, down):  9.105E-02 0.000E+00

     total cpu time spent up to now is     1550.5 secs

     total energy              =   -3711.57696755 Ry
     Harris-Foulkes estimate   =   -3711.57697885 Ry
     estimated scf accuracy    <       0.00036384 Ry

     iteration # 27     ecut=    60.00 Ry     beta= 0.50
     Davidson diagonalization with overlap
     ethr =  7.98E-08,  avg # of iterations =  1.0

     negative rho (up, down):  9.146E-02 0.000E+00

     total cpu time spent up to now is     1596.7 secs

     total energy              =   -3711.57697010 Ry
     Harris-Foulkes estimate   =   -3711.57697454 Ry
     estimated scf accuracy    <       0.00009594 Ry

     iteration # 28     ecut=    60.00 Ry     beta= 0.50
     Davidson diagonalization with overlap
     ethr =  2.10E-08,  avg # of iterations =  1.2

     negative rho (up, down):  9.149E-02 0.000E+00

     total cpu time spent up to now is     1642.9 secs

     total energy              =   -3711.57697247 Ry
     Harris-Foulkes estimate   =   -3711.57697394 Ry
     estimated scf accuracy    <       0.00008272 Ry

     iteration # 29     ecut=    60.00 Ry     beta= 0.50
     Davidson diagonalization with overlap
     ethr =  1.81E-08,  avg # of iterations =  1.2

     negative rho (up, down):  9.182E-02 0.000E+00

     total cpu time spent up to now is     1689.3 secs

     total energy              =   -3711.57697239 Ry
     Harris-Foulkes estimate   =   -3711.57697362 Ry
     estimated scf accuracy    <       0.00002082 Ry

     iteration # 30     ecut=    60.00 Ry     beta= 0.50
     Davidson diagonalization with overlap
     ethr =  4.57E-09,  avg # of iterations =  1.0

     negative rho (up, down):  9.187E-02 0.000E+00

     total cpu time spent up to now is     1735.6 secs

     total energy              =   -3711.57697169 Ry
     Harris-Foulkes estimate   =   -3711.57697273 Ry
     estimated scf accuracy    <       0.00001174 Ry

     iteration # 31     ecut=    60.00 Ry     beta= 0.50
     Davidson diagonalization with overlap
     ethr =  2.57E-09,  avg # of iterations =  1.0

     negative rho (up, down):  9.212E-02 0.000E+00

     total cpu time spent up to now is     1783.0 secs

     total energy              =   -3711.57697107 Ry
     Harris-Foulkes estimate   =   -3711.57697200 Ry
     estimated scf accuracy    <       0.00000988 Ry

     iteration # 32     ecut=    60.00 Ry     beta= 0.50
     Davidson diagonalization with overlap
     ethr =  2.17E-09,  avg # of iterations =  1.0

     negative rho (up, down):  9.217E-02 0.000E+00

     total cpu time spent up to now is     1828.5 secs

     total energy              =   -3711.57697122 Ry
     Harris-Foulkes estimate   =   -3711.57697130 Ry
     estimated scf accuracy    <       0.00000132 Ry

     iteration # 33     ecut=    60.00 Ry     beta= 0.50
     Davidson diagonalization with overlap
     ethr =  2.88E-10,  avg # of iterations =  1.4

     negative rho (up, down):  9.219E-02 0.000E+00

     total cpu time spent up to now is     1875.2 secs

     total energy              =   -3711.57697121 Ry
     Harris-Foulkes estimate   =   -3711.57697125 Ry
     estimated scf accuracy    <       0.00000038 Ry

     iteration # 34     ecut=    60.00 Ry     beta= 0.50
     Davidson diagonalization with overlap
     ethr =  8.30E-11,  avg # of iterations =  2.9

     negative rho (up, down):  9.217E-02 0.000E+00

     total cpu time spent up to now is     1927.4 secs

     total energy              =   -3711.57697124 Ry
     Harris-Foulkes estimate   =   -3711.57697123 Ry
     estimated scf accuracy    <       0.00000012 Ry

     iteration # 35     ecut=    60.00 Ry     beta= 0.50
     Davidson diagonalization with overlap
     ethr =  2.58E-11,  avg # of iterations =  2.8

     negative rho (up, down):  9.217E-02 0.000E+00

     total cpu time spent up to now is     1980.3 secs

     total energy              =   -3711.57697125 Ry
     Harris-Foulkes estimate   =   -3711.57697125 Ry
     estimated scf accuracy    <       0.00000002 Ry

     iteration # 36     ecut=    60.00 Ry     beta= 0.50
     Davidson diagonalization with overlap
     ethr =  4.41E-12,  avg # of iterations =  3.0

     negative rho (up, down):  9.217E-02 0.000E+00

     total cpu time spent up to now is     2043.0 secs

     total energy              =   -3711.57697126 Ry
     Harris-Foulkes estimate   =   -3711.57697126 Ry
     estimated scf accuracy    <       0.00000001 Ry

     iteration # 37     ecut=    60.00 Ry     beta= 0.50
     Davidson diagonalization with overlap
     ethr =  2.54E-12,  avg # of iterations =  1.2

     negative rho (up, down):  9.216E-02 0.000E+00

     total cpu time spent up to now is     2089.4 secs

     End of self-consistent calculation

          k = 0.0000 0.0000 0.0000 ( 76245 PWs)   bands (ev):

   -38.5130 -38.1573 -36.1425 -35.7491 -25.2075 -24.7479 -23.2871 -23.2598
   -23.1776 -23.1588 -23.1321 -23.0324 -18.9880 -18.8833 -18.6049 -18.5520
   -18.5164 -18.1683 -17.4904 -17.3545 -17.1725 -17.0709 -16.9874 -16.7889
   -15.8974 -15.7675 -15.6300 -15.5711 -15.4505 -15.4025 -15.1537 -15.0425
   -14.9800 -14.9675 -14.9350 -14.9264 -14.9250 -14.7671 -14.7475 -14.5929
   -14.5816 -14.5635 -14.4755 -14.4721 -14.4702 -14.4649 -14.4524 -14.4206
   -14.3870 -14.3793 -14.3208 -14.1957 -13.9508 -13.7145 -10.6098 -10.0539
    -9.9387  -9.9189  -9.5349  -9.5133  -8.5259  -8.4925  -8.4602  -8.4146
    -8.3884  -8.3688  -8.3364  -8.3118  -8.1983  -8.1750  -8.1718  -8.1019
    -8.0772  -8.0527  -7.9938  -7.9604  -7.9338  -7.8319  -3.4584  -3.4075
    -3.3078  -2.8379  -2.6431  -2.6390  -2.6289  -2.5965  -2.5547  -2.5479
    -2.5227  -2.3875  -2.3671  -2.3213  -2.2908  -2.2206  -2.2100  -2.1477
    -2.1433  -2.1164  -2.0728  -2.0163  -2.0093  -1.9445  -1.8686  -1.8138
    -1.8084  -1.6877  -1.6612  -1.6311  -1.6288  -1.5840  -1.5735  -1.4752
    -1.4039  -1.3898  -1.3895  -1.3893  -1.3880  -1.3526  -1.3513  -1.3093
    -1.2950  -1.2508  -1.2183  -1.1632  -1.1602  -1.1563  -1.0895  -0.9908
    -0.9573  -0.9338  -0.8431  -0.7238  -0.7176  -0.6879  -0.6833  -0.6692
    -0.6047  -0.6008  -0.6002  -0.5971  -0.5942  -0.5830  -0.4795  -0.4660
    -0.4515  -0.4286  -0.4113  -0.3927  -0.3900  -0.3826  -0.3340  -0.3091
    -0.3022  -0.2962  -0.2924  -0.2799  -0.2462  -0.2158  -0.2107  -0.1960
    -0.1948  -0.1572  -0.1555  -0.1168  -0.0977  -0.0760  -0.0701  -0.0548
    -0.0046   0.0505   0.1147   0.1235   0.1371   0.1375   0.1579   0.2182
     0.2346   0.2486   0.3449   0.3595   0.4738   0.5176   0.5731   0.5754
     0.5885   0.5942   0.6082   0.6129   0.6211   0.7358   0.7463   0.7485
     0.7728   0.7930   0.7965   0.8016   0.8117   0.8225   0.8849   0.9044
     0.9249   0.9460   0.9631   0.9724   1.0074   1.0226   1.0462   1.0556
     1.1568   1.2351   1.2677   1.2752   1.2812   1.3000   1.3058   1.3735
     1.3907   1.3977   1.4915   1.5036   1.5353   1.6040   1.6427   1.6631
     1.7543   1.7562   1.8071   1.8354   1.9148   1.9314   1.9519   2.0982
     2.1427   2.1634   2.1706   2.2639   2.4448   2.4751   3.3093   4.3238
     4.8064   4.8222   5.0095   5.1543   5.3121   5.4757   5.7191   6.0781
     6.2235   6.2452   6.4579   6.6442   6.8590   6.8736   6.8880   6.9555
     6.9574   7.0112   7.2274   7.3959   7.5761   7.6370   7.7149   7.7279
     7.7311   7.7685   7.8670   8.0225   8.0243   8.0715   8.0781   8.2256
     8.2350   8.3045

          k = 0.0000 0.2618 0.0000 ( 76237 PWs)   bands (ev):

   -38.5103 -38.1546 -36.1408 -35.7474 -25.1889 -24.7301 -23.2625 -23.2352
   -23.1540 -23.1397 -23.1131 -23.0137 -18.9494 -18.8761 -18.6273 -18.5661
   -18.5447 -18.2794 -17.4609 -17.3502 -17.2386 -17.0412 -16.9828 -16.8551
   -15.7912 -15.6959 -15.5372 -15.5271 -15.3946 -15.3458 -15.1130 -15.0400
   -14.9449 -14.9389 -14.9184 -14.8870 -14.8795 -14.7367 -14.6856 -14.6576
   -14.5787 -14.5509 -14.5352 -14.4776 -14.4574 -14.4459 -14.4428 -14.4237
   -14.4179 -14.3835 -14.2883 -14.2527 -13.9820 -13.7275 -10.5955 -10.0567
    -9.9878  -9.9614  -9.6645  -9.5959  -8.5189  -8.4864  -8.4699  -8.4289
    -8.4020  -8.3587  -8.2928  -8.2686  -8.2408  -8.2337  -8.2133  -8.2086
    -8.1676  -8.1550  -8.1416  -8.0938  -8.0913  -8.0463  -3.5614  -3.4875
    -3.3689  -2.8834  -2.7679  -2.7412  -2.7165  -2.6556  -2.6379  -2.6182
    -2.6011  -2.5370  -2.5311  -2.5194  -2.5115  -2.4560  -2.3575  -2.3570
    -2.2463  -2.1869  -2.1813  -2.1260  -2.0962  -1.9634  -1.9447  -1.9395
    -1.9068  -1.8428  -1.8348  -1.8334  -1.8037  -1.8028  -1.7921  -1.7572
    -1.6965  -1.6856  -1.6138  -1.6090  -1.4370  -1.3435  -1.3100  -1.2624
    -1.2583  -1.2306  -1.2008  -1.1794  -1.1384  -1.0488  -1.0354  -1.0026
    -0.9848  -0.9414  -0.9278  -0.8157  -0.8066  -0.7722  -0.7555  -0.7429
    -0.7417  -0.7051  -0.6948  -0.6242  -0.6179  -0.5636  -0.5528  -0.5481
    -0.4648  -0.4382  -0.4297  -0.4246  -0.4069  -0.4061  -0.3211  -0.3146
    -0.2641  -0.2599  -0.2443  -0.2373  -0.2312  -0.1602  -0.1339  -0.1295
    -0.1103  -0.1011  -0.0597  -0.0370  -0.0271  -0.0255   0.0112   0.0115
     0.0320   0.0366   0.0519   0.1451   0.1826   0.2484   0.2487   0.2871
     0.3125   0.3378   0.3488   0.4066   0.4394   0.4568   0.5289   0.5461
     0.5464   0.5793   0.5981   0.6532   0.6870   0.7294   0.7553   0.7650
     0.7925   0.8027   0.8134   0.8412   0.9190   0.9211   0.9276   0.9305
     0.9551   0.9833   1.0533   1.0680   1.0757   1.0775   1.0783   1.0930
     1.1655   1.1661   1.1670   1.2942   1.3282   1.3368   1.3691   1.4040
     1.4072   1.4263   1.4389   1.4673   1.5237   1.5933   1.6113   1.6435
     1.8255   1.8910   1.9381   2.1268   2.2960   2.3751   2.4103   2.4110
     2.4652   2.4680   2.5507   2.6264   2.7538   2.9272   3.4861   4.6546
     5.1045   5.1971   5.2063   5.2541   5.4263   5.7574   5.7790   6.1033
     6.5264   6.5527   6.6836   6.6963   6.7121   6.8031   6.9553   7.0401
     7.1641   7.1869   7.3153   7.3429   7.3570   7.4885   7.6693   7.7755
     7.8267   7.8678   7.9286   8.0322   8.1215   8.2293   8.2679   8.3470
     8.3758   8.5131

          k = 0.0000 0.5236 0.0000 ( 76123 PWs)   bands (ev):

   -38.5038 -38.1481 -36.1367 -35.7432 -25.1433 -24.6862 -23.2020 -23.1746
   -23.0959 -23.0928 -23.0663 -22.9678 -18.8678 -18.8586 -18.8493 -18.5269
   -18.5237 -18.4622 -17.3918 -17.3773 -17.3397 -17.0078 -16.9719 -16.9571
   -15.5499 -15.4983 -15.4136 -15.3426 -15.2468 -15.1945 -15.0971 -15.0144
   -14.9890 -14.9215 -14.8631 -14.8226 -14.7983 -14.6978 -14.6645 -14.6625
   -14.6111 -14.5808 -14.5713 -14.5257 -14.4290 -14.4202 -14.3979 -14.3933
   -14.3911 -14.3823 -14.3623 -14.2061 -14.0046 -13.7508 -10.5559 -10.3535
   -10.1295  -9.9844  -9.8574  -9.6243  -8.7060  -8.6789  -8.5862  -8.5463
    -8.5219  -8.4820  -8.4496  -8.4261  -8.4097  -8.4019  -8.3832  -8.3247
    -8.3050  -8.2789  -8.1804  -8.1759  -8.1508  -8.0172  -3.9574  -3.8235
    -3.6120  -3.3025  -3.2391  -3.1925  -3.1657  -3.1151  -3.0548  -2.8764
    -2.8352  -2.7347  -2.6902  -2.6841  -2.6667  -2.6495  -2.6450  -2.6101
    -2.6091  -2.5058  -2.5024  -2.4955  -2.4949  -2.4337  -2.4041  -2.2524
    -2.2124  -2.2019  -2.1405  -2.1145  -2.0840  -2.0286  -1.9657  -1.8706
    -1.7095  -1.6688  -1.5584  -1.5175  -1.4852  -1.4796  -1.4209  -1.3861
    -1.3820  -1.2931  -1.2820  -1.2562  -1.2476  -1.2313  -1.2119  -1.1639
    -1.0950  -1.0739  -1.0515  -1.0106  -0.9819  -0.9489  -0.9462  -0.9286
    -0.9285  -0.9160  -0.8724  -0.8257  -0.7614  -0.7575  -0.7570  -0.7510
    -0.6839  -0.6787  -0.6730  -0.5734  -0.4781  -0.3918  -0.3702  -0.3369
    -0.2492  -0.2158  -0.2150  -0.2044  -0.1835  -0.1540  -0.1281  -0.1141
    -0.0515  -0.0246  -0.0091   0.0821   0.1652   0.1737   0.1756   0.2060
     0.2159   0.3436   0.3484   0.3619   0.4065   0.4177   0.4366   0.4416
     0.5005   0.6225   0.6283   0.6422   0.6866   0.7004   0.7433   0.7500
     0.7928   0.8159   0.8208   0.8377   0.8489   0.8597   0.8766   0.8808
     0.8942   0.8989   0.9424   0.9915   0.9940   0.9999   1.0514   1.1062
     1.1092   1.1179   1.1542   1.1587   1.1747   1.2130   1.2142   1.2838
     1.3119   1.3277   1.3438   1.3534   1.3879   1.4071   1.4236   1.4508
     1.4846   1.5224   1.5721   1.6407   1.6447   1.6636   1.6648   1.7482
     1.8821   1.9799   1.9933   2.1769   2.6621   2.6690   2.6975   2.7155
     2.9746   3.0248   3.4096   3.4528   3.5223   3.7748   3.9154   4.8666
     5.4214   5.4981   5.6019   6.0111   6.0956   6.1007   6.2149   6.2296
     6.3730   6.5264   6.6691   6.7117   6.9338   7.1252   7.3237   7.3902
     7.4305   7.4704   7.6363   7.7979   7.8730   8.0033   8.0108   8.0644
     8.1972   8.2010   8.2557   8.2587   8.2937   8.3653   8.3953   8.5285
     8.5497   8.5549

          k = 0.0000 0.7854 0.0000 ( 76110 PWs)   bands (ev):

   -38.4972 -38.1415 -36.1326 -35.7391 -25.0968 -24.6415 -23.1396 -23.1121
   -23.0449 -23.0362 -23.0184 -22.9208 -19.0763 -18.8412 -18.7437 -18.7310
   -18.5093 -18.3573 -17.5133 -17.3294 -17.3044 -17.1330 -16.9610 -16.8790
   -15.3284 -15.2814 -15.2440 -15.2290 -15.2046 -15.0688 -15.0064 -15.0039
   -14.9985 -14.9941 -14.9224 -14.7998 -14.7843 -14.7702 -14.7167 -14.6383
   -14.5899 -14.5850 -14.5850 -14.4928 -14.4192 -14.3922 -14.3760 -14.3741
   -14.3448 -14.3435 -14.2594 -14.1185 -13.9867 -13.7520 -10.7318 -10.5059
   -10.3754  -9.9841  -9.9133  -9.5699  -9.1010  -9.0739  -8.9582  -8.8413
    -8.8168  -8.6661  -8.4893  -8.4747  -8.4544  -8.4159  -8.3873  -8.3743
    -8.3478  -8.3025  -8.2545  -8.0547  -8.0295  -7.9057  -4.4418  -4.2925
    -4.0153  -3.8410  -3.6980  -3.6524  -3.6053  -3.5243  -3.4136  -3.2646
    -3.2635  -3.1986  -3.1980  -3.0439  -3.0211  -2.9951  -2.8629  -2.7724
    -2.6336  -2.6229  -2.6130  -2.6125  -2.5845  -2.5520  -2.5458  -2.5383
    -2.5162  -2.3130  -2.2118  -2.1853  -2.1337  -2.0767  -1.9618  -1.9474
    -1.8994  -1.7202  -1.6407  -1.6337  -1.6086  -1.5485  -1.5417  -1.5130
    -1.4965  -1.4795  -1.4214  -1.4094  -1.3943  -1.3763  -1.3327  -1.3089
    -1.2892  -1.2210  -1.1997  -1.1965  -1.1481  -1.1476  -1.1348  -1.1345
    -1.1124  -1.0729  -1.0064  -1.0060  -0.9837  -0.9106  -0.8957  -0.7905
    -0.7636  -0.7560  -0.7417  -0.6212  -0.6168  -0.6112  -0.4189  -0.3667
    -0.2359  -0.2193  -0.1911  -0.1875  -0.1626  -0.1353  -0.1342  -0.1153
    -0.0605  -0.0302   0.0698   0.1048   0.2374   0.2603   0.3601   0.4350
     0.4495   0.4830   0.5877   0.5998   0.6022   0.6491   0.6549   0.6701
     0.7187   0.7252   0.7370   0.8187   0.8425   0.8458   0.8688   0.9100
     0.9119   0.9442   0.9599   0.9838   0.9868   1.0101   1.0541   1.0961
     1.1220   1.1438   1.1704   1.2011   1.2230   1.2760   1.2971   1.3160
     1.3279   1.3360   1.3392   1.3724   1.3815   1.4074   1.4182   1.4787
     1.4804   1.4894   1.4925   1.5348   1.6026   1.6265   1.6382   1.6453
     1.6794   1.6967   1.7322   1.8387   1.8433   1.8592   1.8642   1.9508
     2.0678   2.0686   2.0864   2.1843   2.5110   2.5149   2.6115   2.6299
     3.2495   3.3474   4.0545   4.0988   4.1147   4.3185   4.3666   4.6350
     5.5590   5.6832   5.6971   5.7352   5.9210   6.3159   6.3212   6.5664
     6.8272   7.0200   7.0363   7.0667   7.3479   7.4089   7.4788   7.7440
     7.9000   8.0329   8.1670   8.2291   8.2406   8.2999   8.3541   8.3996
     8.4254   8.5356   8.5578   8.5785   8.6066   8.6726   8.7082   8.8102
     8.8209   8.9142

          k = 0.0000-1.0472 0.0000 ( 76214 PWs)   bands (ev):

   -38.4945 -38.1388 -36.1309 -35.7374 -25.0773 -24.6226 -23.1133 -23.0856
   -23.0247 -23.0109 -22.9983 -22.9010 -19.1568 -18.8340 -18.8117 -18.6964
   -18.5020 -18.3097 -17.5637 -17.3251 -17.2687 -17.1833 -16.9566 -16.8427
   -15.3337 -15.2703 -15.2104 -15.1447 -15.0715 -15.0632 -15.0327 -14.9692
   -14.9400 -14.9001 -14.8917 -14.8532 -14.8429 -14.8040 -14.7876 -14.6745
   -14.6057 -14.5980 -14.5439 -14.4482 -14.4079 -14.3930 -14.3462 -14.3456
   -14.3270 -14.3265 -14.1733 -14.0806 -14.0051 -13.7367 -10.8846 -10.4844
   -10.4807 -10.0124  -9.9015  -9.5398  -9.2543  -9.2270  -9.1107  -8.9601
    -8.9355  -8.7716  -8.5018  -8.4783  -8.4597  -8.4099  -8.4018  -8.3804
    -8.3754  -8.2968  -8.2779  -8.0021  -7.9768  -7.8571  -4.6437  -4.4945
    -4.2021  -4.0477  -3.9034  -3.8092  -3.7667  -3.7142  -3.5585  -3.4986
    -3.4979  -3.4287  -3.4284  -3.1919  -3.0498  -3.0243  -2.8988  -2.8865
    -2.7124  -2.6431  -2.6386  -2.6351  -2.6283  -2.6229  -2.5673  -2.5330
    -2.5255  -2.3794  -2.2934  -2.2518  -2.2285  -2.0319  -1.9908  -1.8628
    -1.8015  -1.7519  -1.7182  -1.7019  -1.6999  -1.6771  -1.6426  -1.5993
    -1.5779  -1.5439  -1.4677  -1.4634  -1.4553  -1.4451  -1.3870  -1.3604
    -1.3324  -1.3122  -1.2617  -1.2484  -1.2372  -1.2364  -1.2358  -1.2125
    -1.0954  -1.0952  -1.0886  -1.0878  -1.0183  -0.9581  -0.9152  -0.8874
    -0.7839  -0.7540  -0.7407  -0.7338  -0.5807  -0.5773  -0.4933  -0.4372
    -0.2994  -0.2076  -0.1996  -0.1839  -0.1802  -0.1653  -0.1227  -0.1096
    -0.0872  -0.0237   0.0640   0.1615   0.2560   0.4226   0.4430   0.4561
     0.4822   0.5063   0.6399   0.6511   0.6878   0.6988   0.7396   0.7638
     0.8096   0.8119   0.8186   0.8389   0.8785   0.9305   0.9399   0.9622
     0.9714   0.9863   0.9930   1.0093   1.0386   1.0419   1.0618   1.1060
     1.1873   1.2211   1.2389   1.2774   1.3053   1.3673   1.3720   1.4047
     1.4131   1.4365   1.5086   1.5484   1.5513   1.5537   1.5567   1.5691
     1.5966   1.6184   1.6835   1.7087   1.7757   1.7859   1.7978   1.7999
     1.8043   1.8171   1.8194   1.8197   1.8982   1.9223   1.9309   2.0467
     2.0487   2.2312   2.2317   2.2793   2.2812   2.3234   2.4421   2.4604
     3.2453   3.4126   4.2584   4.3145   4.3262   4.3273   4.5628   4.9795
     5.2978   5.4443   5.4576   5.8343   6.1012   6.1834   6.2014   6.6106
     6.9835   7.2574   7.2603   7.4229   7.4370   7.6197   7.7493   7.9384
     7.9725   8.2183   8.2651   8.3612   8.3803   8.4195   8.5353   8.5421
     8.5458   8.5573   8.6455   8.6737   8.7246   8.8086   8.8310   8.8451
     8.9264   8.9297

          k = 0.1250 0.0000 0.0000 ( 76237 PWs)   bands (ev):

   -38.5130 -38.1573 -36.1425 -35.7491 -25.2069 -24.7488 -23.2826 -23.2553
   -23.1741 -23.1636 -23.1370 -23.0362 -18.9873 -18.8801 -18.6042 -18.5488
   -18.5164 -18.1683 -17.4933 -17.3665 -17.1726 -17.0742 -17.0001 -16.7889
   -15.8701 -15.7575 -15.6044 -15.5759 -15.4359 -15.3884 -15.1458 -15.0550
   -15.0152 -14.9860 -14.9457 -14.9336 -14.9053 -14.7499 -14.7445 -14.6047
   -14.5758 -14.5683 -14.4802 -14.4751 -14.4667 -14.4644 -14.4546 -14.4224
   -14.3851 -14.3831 -14.3252 -14.2051 -13.9494 -13.7137 -10.6123 -10.0700
    -9.9177  -9.9165  -9.5362  -9.5162  -8.5282  -8.4949  -8.4637  -8.4190
    -8.3928  -8.3768  -8.3226  -8.2979  -8.1901  -8.1634  -8.1603  -8.1085
    -8.0837  -8.0451  -7.9962  -7.9697  -7.9432  -7.8405  -3.4236  -3.3723
    -3.2752  -2.8022  -2.6463  -2.6392  -2.6237  -2.5993  -2.5734  -2.5641
    -2.5191  -2.3878  -2.3848  -2.3190  -2.3041  -2.2530  -2.2162  -2.1586
    -2.1513  -2.1487  -2.0577  -2.0192  -1.9970  -1.9420  -1.8520  -1.8517
    -1.8028  -1.6910  -1.6659  -1.6503  -1.6080  -1.6030  -1.5266  -1.4314
    -1.4105  -1.3886  -1.3885  -1.3875  -1.3867  -1.3865  -1.3429  -1.3278
    -1.2882  -1.2134  -1.2028  -1.1921  -1.1432  -1.1363  -1.0728  -0.9915
    -0.9336  -0.8980  -0.8232  -0.7822  -0.7509  -0.6918  -0.6649  -0.6548
    -0.6504  -0.6432  -0.6234  -0.6159  -0.5817  -0.5766  -0.5304  -0.4826
    -0.4495  -0.4334  -0.4174  -0.4027  -0.3964  -0.3816  -0.3481  -0.3397
    -0.3386  -0.2977  -0.2484  -0.2424  -0.2080  -0.1930  -0.1927  -0.1904
    -0.1891  -0.1572  -0.1564  -0.1338  -0.0901  -0.0819  -0.0496  -0.0374
     0.0124   0.0534   0.1094   0.1177   0.1248   0.1456   0.1621   0.1865
     0.2182   0.2719   0.3186   0.3828   0.4854   0.5098   0.5128   0.5336
     0.5747   0.5854   0.6105   0.6304   0.6388   0.7094   0.7249   0.7468
     0.7556   0.7707   0.7729   0.8005   0.8025   0.8281   0.8528   0.8549
     0.9459   0.9530   0.9693   1.0012   1.0185   1.0519   1.0741   1.1129
     1.1440   1.2213   1.2586   1.2667   1.3115   1.3230   1.3259   1.3837
     1.3962   1.4042   1.4544   1.4682   1.5179   1.6012   1.6293   1.6520
     1.7388   1.7932   1.8049   1.8386   1.9017   1.9512   1.9601   2.0970
     2.1435   2.1739   2.1808   2.2746   2.4393   2.4760   3.3511   4.3754
     4.7867   4.8615   4.8741   5.2284   5.4474   5.5335   5.7535   6.1013
     6.2773   6.3012   6.4944   6.4970   6.5054   6.5955   6.9269   7.0259
     7.1859   7.3122   7.3271   7.3295   7.5847   7.6132   7.7043   7.7158
     7.7244   7.7327   7.8686   7.9856   8.0236   8.0638   8.1520   8.2225
     8.2603   8.2909

          k = 0.1250 0.2618 0.0000 ( 76197 PWs)   bands (ev):

   -38.5103 -38.1546 -36.1408 -35.7474 -25.1883 -24.7308 -23.2583 -23.2309
   -23.1507 -23.1442 -23.1177 -23.0173 -18.9487 -18.8729 -18.6272 -18.5654
   -18.5415 -18.2794 -17.4637 -17.3616 -17.2384 -17.0443 -16.9949 -16.8550
   -15.7646 -15.6874 -15.5313 -15.5132 -15.3818 -15.3340 -15.1059 -15.0457
   -14.9536 -14.9439 -14.9418 -14.9234 -14.8647 -14.7090 -14.6890 -14.6648
   -14.5733 -14.5467 -14.5368 -14.4868 -14.4586 -14.4448 -14.4448 -14.4241
   -14.4214 -14.3821 -14.2981 -14.2592 -13.9794 -13.7262 -10.5967 -10.0681
   -10.0164  -9.9507  -9.6476  -9.5811  -8.5208  -8.4885  -8.4728  -8.4351
    -8.4081  -8.3650  -8.3485  -8.3234  -8.2761  -8.2503  -8.1947  -8.1780
    -8.1519  -8.1508  -8.1210  -8.0953  -8.0269  -8.0029  -3.5255  -3.4508
    -3.3337  -2.8461  -2.7774  -2.7452  -2.7252  -2.6477  -2.6299  -2.6173
    -2.5995  -2.5431  -2.5357  -2.5190  -2.5158  -2.4609  -2.3734  -2.3634
    -2.2492  -2.2227  -2.2088  -2.1831  -2.0984  -1.9619  -1.9538  -1.9239
    -1.8991  -1.8319  -1.8308  -1.8158  -1.8055  -1.8021  -1.7668  -1.7369
    -1.7071  -1.6833  -1.6491  -1.6151  -1.4303  -1.3635  -1.3049  -1.2705
    -1.2402  -1.2205  -1.1893  -1.1698  -1.1243  -1.0768  -1.0430  -1.0217
    -0.9950  -0.9569  -0.9414  -0.8509  -0.7971  -0.7902  -0.7860  -0.7574
    -0.7337  -0.7217  -0.6886  -0.6703  -0.5788  -0.5594  -0.5442  -0.5415
    -0.5025  -0.4456  -0.4228  -0.4178  -0.4094  -0.3879  -0.3460  -0.3114
    -0.2896  -0.2590  -0.2443  -0.2319  -0.2259  -0.1653  -0.1223  -0.1211
    -0.1120  -0.1043  -0.0677  -0.0327  -0.0286  -0.0172   0.0130   0.0158
     0.0362   0.0691   0.0754   0.1523   0.1927   0.2008   0.2287   0.2398
     0.3042   0.3391   0.3484   0.4208   0.4480   0.4754   0.5123   0.5414
     0.5803   0.6114   0.6277   0.6470   0.6883   0.7228   0.7232   0.7674
     0.7833   0.8074   0.8198   0.8391   0.8652   0.9171   0.9176   0.9402
     0.9503   0.9842   0.9914   1.0071   1.0428   1.0900   1.1321   1.1643
     1.1728   1.1779   1.1846   1.2889   1.3210   1.3447   1.3626   1.3926
     1.4021   1.4087   1.4247   1.4252   1.5159   1.5313   1.7109   1.7371
     1.8616   1.8959   1.9578   2.2145   2.2999   2.3704   2.4092   2.4096
     2.4670   2.4713   2.5486   2.6227   2.7454   2.9271   3.5217   4.7015
     4.9084   5.2271   5.2385   5.3051   5.5728   5.7984   5.8187   6.1170
     6.5299   6.5396   6.5817   6.6056   6.7219   6.7484   6.9839   7.0427
     7.2004   7.2217   7.3308   7.4238   7.4446   7.5092   7.5968   7.7418
     7.8287   7.8402   7.9480   8.0546   8.1287   8.2118   8.2563   8.3814
     8.3919   8.5181

          k = 0.1250 0.5236 0.0000 ( 76158 PWs)   bands (ev):

   -38.5038 -38.1481 -36.1367 -35.7433 -25.1428 -24.6869 -23.1983 -23.1708
   -23.0968 -23.0930 -23.0703 -22.9709 -18.8677 -18.8555 -18.8488 -18.5242
   -18.5233 -18.4616 -17.3933 -17.3783 -17.3498 -17.0083 -16.9824 -16.9595
   -15.5256 -15.4939 -15.4155 -15.3237 -15.2397 -15.1898 -15.0950 -15.0092
   -14.9868 -14.9214 -14.8620 -14.8220 -14.8045 -14.7499 -14.6852 -14.6114
   -14.6110 -14.5770 -14.5696 -14.5266 -14.4276 -14.4195 -14.4065 -14.3944
   -14.3907 -14.3864 -14.3622 -14.2263 -14.0001 -13.7488 -10.5558 -10.3679
   -10.1285  -9.9842  -9.8668  -9.6034  -8.7397  -8.7132  -8.6087  -8.5012
    -8.4737  -8.4696  -8.4422  -8.4396  -8.4169  -8.3899  -8.3733  -8.3473
    -8.3362  -8.3245  -8.2463  -8.1239  -8.0984  -7.9779  -3.9219  -3.7876
    -3.5753  -3.3031  -3.2451  -3.1999  -3.1679  -3.0776  -3.0584  -2.8712
    -2.8304  -2.7321  -2.6912  -2.6846  -2.6685  -2.6490  -2.6439  -2.6105
    -2.6101  -2.5065  -2.5031  -2.4945  -2.4934  -2.4297  -2.3719  -2.2535
    -2.2242  -2.2000  -2.1372  -2.1336  -2.1073  -2.0874  -1.9583  -1.8709
    -1.6937  -1.6754  -1.6289  -1.5228  -1.4890  -1.4733  -1.4360  -1.3955
    -1.3852  -1.3024  -1.2835  -1.2755  -1.2506  -1.2417  -1.1973  -1.1525
    -1.1320  -1.0962  -1.0786  -1.0463  -1.0244  -0.9906  -0.9619  -0.9225
    -0.9223  -0.9062  -0.8674  -0.8275  -0.7747  -0.7644  -0.7537  -0.7511
    -0.7312  -0.6794  -0.6645  -0.5223  -0.4862  -0.4215  -0.3777  -0.3067
    -0.2568  -0.2424  -0.2148  -0.2084  -0.1827  -0.1590  -0.1375  -0.0919
    -0.0197  -0.0123   0.0130   0.0400   0.1565   0.1684   0.2120   0.2170
     0.2543   0.2801   0.3489   0.3713   0.3771   0.4326   0.4666   0.4719
     0.5391   0.6060   0.6197   0.6548   0.6896   0.7301   0.7327   0.7482
     0.7676   0.7733   0.7997   0.8069   0.8373   0.8774   0.8918   0.9088
     0.9150   0.9437   0.9487   0.9825   0.9947   1.0107   1.0323   1.0470
     1.0691   1.1361   1.1515   1.1566   1.1769   1.2086   1.2268   1.2716
     1.2873   1.3251   1.3389   1.3889   1.3979   1.4183   1.4318   1.4602
     1.4649   1.5047   1.5805   1.6402   1.6539   1.6674   1.7951   1.8344
     1.8750   1.9801   2.0772   2.3118   2.6631   2.6703   2.6984   2.7186
     2.9748   3.0239   3.3773   3.4216   3.4938   3.7487   3.9484   4.9020
     5.2272   5.5512   5.7334   5.9993   6.1111   6.1163   6.2226   6.2378
     6.4013   6.5462   6.6917   6.7345   6.9513   7.1051   7.3116   7.3667
     7.4480   7.4778   7.7171   7.7936   7.8502   7.9649   7.9974   8.0144
     8.1103   8.1510   8.2582   8.3106   8.3237   8.3494   8.3860   8.4625
     8.5528   8.5687

          k = 0.1250 0.7854 0.0000 ( 76146 PWs)   bands (ev):

   -38.4972 -38.1415 -36.1326 -35.7391 -25.0964 -24.6420 -23.1365 -23.1089
   -23.0482 -23.0337 -23.0218 -22.9234 -19.0763 -18.8382 -18.7432 -18.7310
   -18.5063 -18.3568 -17.5133 -17.3387 -17.3065 -17.1330 -16.9708 -16.8814
   -15.3123 -15.2782 -15.2335 -15.2303 -15.1884 -15.0691 -15.0134 -14.9917
   -14.9877 -14.9863 -14.9231 -14.7967 -14.7854 -14.7794 -14.7136 -14.6378
   -14.6144 -14.5994 -14.5850 -14.4849 -14.4196 -14.3929 -14.3748 -14.3727
   -14.3456 -14.3445 -14.2648 -14.1354 -13.9839 -13.7531 -10.7167 -10.5058
   -10.3508 -10.0120  -9.9181  -9.5832  -9.0913  -9.0643  -8.9461  -8.7992
    -8.7745  -8.6289  -8.4877  -8.4742  -8.4539  -8.4214  -8.4168  -8.3941
    -8.3890  -8.3180  -8.2813  -8.0697  -8.0444  -7.9228  -4.4049  -4.2570
    -3.9812  -3.8377  -3.7000  -3.6665  -3.6175  -3.4917  -3.4229  -3.2620
    -3.2611  -3.2011  -3.2004  -3.0497  -3.0073  -2.9809  -2.8521  -2.7436
    -2.6367  -2.6214  -2.6147  -2.6109  -2.5621  -2.5448  -2.5372  -2.5327
    -2.4979  -2.3084  -2.2070  -2.1861  -2.1245  -2.0821  -2.0090  -1.9881
    -1.9237  -1.7226  -1.6467  -1.6351  -1.6209  -1.6003  -1.5466  -1.5432
    -1.4913  -1.4806  -1.4609  -1.4376  -1.4072  -1.3764  -1.3716  -1.3424
    -1.3346  -1.2256  -1.2152  -1.2051  -1.1585  -1.1403  -1.1361  -1.1216
    -1.1094  -1.0667  -1.0207  -1.0120  -1.0113  -0.9512  -0.8886  -0.7900
    -0.7544  -0.7398  -0.7035  -0.6283  -0.6217  -0.6149  -0.3574  -0.3041
    -0.2634  -0.2392  -0.2267  -0.1677  -0.1436  -0.1172  -0.0876  -0.0694
    -0.0682   0.0063   0.0403   0.1506   0.2181   0.2275   0.2942   0.3396
     0.4643   0.5112   0.5822   0.5954   0.6032   0.6309   0.6839   0.6976
     0.7177   0.7426   0.7493   0.8387   0.8512   0.8670   0.8836   0.8941
     0.9090   0.9126   0.9367   0.9661   0.9916   1.0160   1.0467   1.0946
     1.1223   1.1421   1.1526   1.1731   1.2257   1.2366   1.3005   1.3110
     1.3286   1.3414   1.3593   1.3854   1.4109   1.4245   1.4404   1.4653
     1.4667   1.4857   1.5098   1.5223   1.5856   1.6187   1.6389   1.7133
     1.7476   1.7507   1.7695   1.8264   1.8529   1.8597   1.8807   2.0466
     2.0604   2.0609   2.1494   2.2185   2.5129   2.5172   2.6162   2.6389
     3.2583   3.3473   3.9900   4.0362   4.0570   4.3102   4.3601   4.6515
     5.5147   5.6767   5.7383   5.7523   5.9747   6.3490   6.3519   6.5570
     6.8072   6.9877   7.0062   7.0784   7.3122   7.4112   7.4847   7.7391
     7.8269   7.9321   8.1815   8.2005   8.2337   8.2855   8.3697   8.3932
     8.4450   8.5426   8.5531   8.6362   8.6626   8.6685   8.7383   8.8218
     8.8646   8.9341

          k = 0.1250-1.0472 0.0000 ( 76194 PWs)   bands (ev):

   -38.4945 -38.1388 -36.1309 -35.7374 -25.0770 -24.6231 -23.1103 -23.0827
   -23.0277 -23.0087 -23.0014 -22.9034 -19.1568 -18.8310 -18.8116 -18.6960
   -18.4990 -18.3092 -17.5637 -17.3341 -17.2707 -17.1833 -16.9660 -16.8449
   -15.3225 -15.2588 -15.1990 -15.1242 -15.0683 -15.0604 -15.0312 -14.9570
   -14.9245 -14.9210 -14.9126 -14.8685 -14.8334 -14.7965 -14.7832 -14.6681
   -14.6092 -14.6026 -14.5615 -14.4501 -14.4328 -14.3756 -14.3453 -14.3452
   -14.3280 -14.3273 -14.1793 -14.0931 -14.0004 -13.7423 -10.8534 -10.4806
   -10.4612 -10.0433  -9.9014  -9.5714  -9.2240  -9.1968  -9.0817  -8.9296
    -8.9049  -8.7432  -8.4983  -8.4768  -8.4562  -8.4368  -8.4128  -8.4105
    -8.3834  -8.3290  -8.2787  -8.0459  -8.0206  -7.8977  -4.6057  -4.4584
    -4.1687  -4.0445  -3.9050  -3.8252  -3.7805  -3.6824  -3.5700  -3.4962
    -3.4958  -3.4314  -3.4309  -3.1994  -3.0330  -3.0069  -2.8726  -2.8725
    -2.6873  -2.6480  -2.6375  -2.6304  -2.6212  -2.6092  -2.5469  -2.5339
    -2.5254  -2.3748  -2.2633  -2.2257  -2.2161  -2.0244  -2.0038  -1.8949
    -1.8520  -1.8030  -1.7849  -1.7092  -1.7077  -1.6967  -1.6444  -1.6421
    -1.6199  -1.5499  -1.5377  -1.4792  -1.4634  -1.4486  -1.3677  -1.3382
    -1.3355  -1.3261  -1.3259  -1.2517  -1.2435  -1.2273  -1.2190  -1.1926
    -1.1524  -1.1138  -1.1054  -1.1012  -1.0532  -0.9492  -0.8912  -0.8901
    -0.7598  -0.7371  -0.7010  -0.6999  -0.5945  -0.5913  -0.4033  -0.3817
    -0.2554  -0.2363  -0.2294  -0.2231  -0.1328  -0.1290  -0.1110  -0.1020
    -0.0348  -0.0292   0.0287   0.2121   0.2450   0.3171   0.3853   0.4203
     0.5101   0.5345   0.6301   0.6445   0.7037   0.7176   0.7290   0.7359
     0.7887   0.8067   0.8265   0.8299   0.8805   0.9225   0.9352   0.9375
     0.9828   0.9989   1.0239   1.0357   1.0395   1.0418   1.0421   1.1072
     1.2020   1.2115   1.2319   1.2557   1.3009   1.3525   1.4074   1.4218
     1.4267   1.4412   1.5411   1.5451   1.5495   1.5575   1.5889   1.5995
     1.6008   1.6707   1.6823   1.7194   1.7589   1.7787   1.7861   1.7881
     1.7971   1.8140   1.8215   1.9081   1.9195   1.9326   2.0461   2.0534
     2.0552   2.2239   2.2245   2.2833   2.2860   2.2885   2.4525   2.4773
     3.2583   3.4195   4.1792   4.2359   4.2528   4.3561   4.4925   4.9734
     5.3229   5.5123   5.5256   5.8265   6.0619   6.2188   6.2409   6.5942
     6.9070   7.1983   7.3075   7.3303   7.3453   7.5745   7.7609   7.7993
     7.9599   8.0880   8.2292   8.4080   8.4664   8.4786   8.5464   8.5779
     8.6134   8.6357   8.6439   8.7401   8.7866   8.8232   8.8632   8.8814
     8.9378   8.9504

          k = 0.2500 0.0000 0.0000 ( 76205 PWs)   bands (ev):

   -38.5130 -38.1573 -36.1425 -35.7491 -25.2053 -24.7507 -23.2700 -23.2425
   -23.1770 -23.1647 -23.1505 -23.0463 -18.9856 -18.8723 -18.6023 -18.5410
   -18.5164 -18.1683 -17.5004 -17.3947 -17.1726 -17.0821 -17.0299 -16.7889
   -15.7966 -15.7300 -15.5905 -15.5371 -15.4000 -15.3515 -15.1489 -15.1068
   -15.0539 -15.0131 -14.9745 -14.9547 -14.8716 -14.7453 -14.7100 -14.6386
   -14.5885 -14.5599 -14.4802 -14.4792 -14.4668 -14.4645 -14.4590 -14.4252
   -14.3972 -14.3745 -14.3390 -14.2294 -13.9463 -13.7116 -10.6182 -10.0970
    -9.9107  -9.8782  -9.5396  -9.5232  -8.5330  -8.4999  -8.4719  -8.4268
    -8.4005  -8.3924  -8.2896  -8.2649  -8.1664  -8.1397  -8.1276  -8.1265
    -8.1026  -8.0232  -8.0037  -7.9960  -7.9696  -7.8645  -3.3230  -3.2710
    -3.1825  -2.7011  -2.6698  -2.6593  -2.6289  -2.6118  -2.6041  -2.5990
    -2.5098  -2.4425  -2.3814  -2.3778  -2.3501  -2.3127  -2.2048  -2.1987
    -2.1695  -2.1530  -2.0418  -2.0357  -1.9557  -1.9363  -1.9220  -1.8593
    -1.7777  -1.7669  -1.6454  -1.6190  -1.6097  -1.5552  -1.4390  -1.4371
    -1.4100  -1.4053  -1.3870  -1.3849  -1.3833  -1.3808  -1.3444  -1.3008
    -1.2557  -1.2459  -1.2021  -1.1472  -1.0842  -1.0774  -1.0549  -0.9956
    -0.9002  -0.8861  -0.8683  -0.7679  -0.7636  -0.7565  -0.7475  -0.7052
    -0.6852  -0.6728  -0.6652  -0.6232  -0.6204  -0.5473  -0.5411  -0.4964
    -0.4593  -0.4408  -0.4285  -0.4226  -0.4189  -0.4099  -0.3842  -0.3830
    -0.3581  -0.3280  -0.2240  -0.1918  -0.1906  -0.1698  -0.1676  -0.1528
    -0.1417  -0.1387  -0.1332  -0.1229  -0.1002  -0.0791  -0.0336   0.0325
     0.0380   0.0501   0.0592   0.0952   0.1005   0.1284   0.1530   0.2157
     0.2385   0.2645   0.3087   0.4144   0.4398   0.4537   0.4632   0.5269
     0.5438   0.5553   0.5964   0.6030   0.6168   0.6621   0.6965   0.6977
     0.7198   0.7637   0.8070   0.8155   0.8284   0.8337   0.8732   0.8882
     0.9024   0.9074   0.9598   1.0037   1.0093   1.1141   1.1163   1.1202
     1.1451   1.1996   1.2367   1.2492   1.3339   1.3468   1.3490   1.3501
     1.3660   1.4217   1.4221   1.4648   1.5884   1.5930   1.6279   1.6703
     1.6985   1.7180   1.7880   1.8572   1.8747   1.9499   2.0941   2.0978
     2.1437   2.2002   2.2076   2.2924   2.4182   2.4714   3.4683   4.4767
     4.5373   4.9989   5.0092   5.3358   5.5596   5.6977   5.8349   6.1101
     6.1163   6.1612   6.4364   6.4651   6.5014   6.6565   6.9737   7.0453
     7.1061   7.1469   7.4922   7.5642   7.5858   7.6173   7.6373   7.7092
     7.7197   7.7946   7.9096   7.9848   8.0263   8.0714   8.1549   8.1678
     8.1931   8.3625

          k = 0.2500 0.2618 0.0000 ( 76186 PWs)   bands (ev):

   -38.5103 -38.1546 -36.1408 -35.7474 -25.1868 -24.7327 -23.2462 -23.2187
   -23.1569 -23.1417 -23.1305 -23.0268 -18.9470 -18.8652 -18.6272 -18.5636
   -18.5338 -18.2794 -17.4705 -17.3885 -17.2382 -17.0519 -17.0233 -16.8548
   -15.6930 -15.6638 -15.5438 -15.4501 -15.3505 -15.3033 -15.0959 -15.0728
   -15.0194 -14.9822 -14.9538 -14.9390 -14.8434 -14.6886 -14.6873 -14.6699
   -14.5616 -14.5472 -14.5397 -14.4979 -14.4622 -14.4502 -14.4445 -14.4274
   -14.4245 -14.3785 -14.3240 -14.2759 -13.9741 -13.7229 -10.5997 -10.0978
   -10.0545  -9.9462  -9.6113  -9.5486  -8.5272  -8.4954  -8.4803  -8.4554
    -8.4289  -8.4028  -8.3831  -8.3761  -8.3216  -8.2954  -8.2378  -8.2000
    -8.1047  -8.0787  -8.0618  -8.0361  -7.9640  -7.9421  -3.4219  -3.3455
    -3.2342  -2.8148  -2.7612  -2.7585  -2.7402  -2.6286  -2.6158  -2.6089
    -2.5970  -2.5590  -2.5460  -2.5277  -2.5203  -2.4721  -2.4204  -2.3762
    -2.3338  -2.3193  -2.2623  -2.2369  -2.0978  -1.9890  -1.9265  -1.9040
    -1.8901  -1.8352  -1.8268  -1.8180  -1.8087  -1.8064  -1.7677  -1.7178
    -1.6853  -1.6487  -1.6217  -1.6015  -1.4191  -1.4051  -1.2928  -1.2883
    -1.2128  -1.1846  -1.1838  -1.1580  -1.1293  -1.1278  -1.0746  -1.0716
    -1.0216  -1.0013  -0.9446  -0.9347  -0.9096  -0.8629  -0.7939  -0.7695
    -0.7202  -0.6982  -0.6968  -0.6322  -0.6018  -0.5920  -0.5586  -0.5223
    -0.5116  -0.4545  -0.4464  -0.4183  -0.4094  -0.3830  -0.3447  -0.3076
    -0.2889  -0.2790  -0.2611  -0.2425  -0.2188  -0.1640  -0.1283  -0.0925
    -0.0847  -0.0832  -0.0608  -0.0314  -0.0296   0.0074   0.0237   0.0267
     0.0442   0.0509   0.1160   0.1482   0.1675   0.1857   0.1864   0.2587
     0.3000   0.3091   0.3306   0.4557   0.4712   0.5105   0.5105   0.5448
     0.6160   0.6340   0.6493   0.6577   0.6944   0.7114   0.7316   0.7412
     0.7597   0.7787   0.7931   0.8199   0.8351   0.8925   0.9019   0.9194
     0.9214   0.9752   0.9854   1.0242   1.0373   1.0613   1.1257   1.1295
     1.2130   1.2509   1.2529   1.2575   1.2949   1.3088   1.3194   1.3526
     1.3725   1.3874   1.3921   1.4589   1.4744   1.5521   1.7508   1.8879
     1.8950   1.9956   2.0725   2.3101   2.3567   2.3991   2.4051   2.4066
     2.4726   2.4884   2.5385   2.6066   2.7135   2.9173   3.6250   4.6127
     4.8375   5.3346   5.3446   5.3771   5.7071   5.9103   5.9433   6.1541
     6.2482   6.2552   6.6631   6.7302   6.7523   6.8254   7.0096   7.0550
     7.0975   7.1618   7.3806   7.3968   7.4783   7.6564   7.6648   7.7016
     7.8323   7.9008   7.9936   8.0568   8.0915   8.2020   8.2381   8.3513
     8.4181   8.4736

          k = 0.2500 0.5236 0.0000 ( 76142 PWs)   bands (ev):

   -38.5038 -38.1481 -36.1367 -35.7433 -25.1416 -24.6884 -23.1877 -23.1601
   -23.1078 -23.0852 -23.0815 -22.9791 -18.8676 -18.8480 -18.8474 -18.5236
   -18.5163 -18.4601 -17.3978 -17.3807 -17.3731 -17.0122 -17.0050 -16.9652
   -15.4825 -15.4600 -15.4205 -15.2756 -15.2240 -15.1789 -15.0899 -14.9968
   -14.9799 -14.9218 -14.8650 -14.8645 -14.8204 -14.7814 -14.6931 -14.6095
   -14.5846 -14.5802 -14.5634 -14.5116 -14.4304 -14.4238 -14.4135 -14.3979
   -14.3963 -14.3928 -14.3624 -14.2755 -13.9918 -13.7441 -10.5552 -10.3863
   -10.1696  -9.9843  -9.8397  -9.5751  -8.7751  -8.7490  -8.6339  -8.5220
    -8.4960  -8.4851  -8.4533  -8.4504  -8.4219  -8.3949  -8.3637  -8.3413
    -8.3248  -8.3155  -8.2236  -8.0768  -8.0511  -7.9395  -3.8215  -3.6870
    -3.4743  -3.3170  -3.2575  -3.2263  -3.1739  -3.0720  -2.9761  -2.8542
    -2.8139  -2.7221  -2.6960  -2.6874  -2.6747  -2.6467  -2.6401  -2.6151
    -2.6087  -2.5140  -2.5088  -2.4913  -2.4889  -2.4124  -2.3480  -2.2925
    -2.2663  -2.2661  -2.1840  -2.1324  -2.1264  -2.0276  -1.9476  -1.8733
    -1.7840  -1.7069  -1.6645  -1.5333  -1.4922  -1.4911  -1.4579  -1.4244
    -1.4080  -1.3722  -1.3172  -1.3064  -1.3008  -1.2575  -1.2333  -1.2285
    -1.1942  -1.1863  -1.1136  -1.0920  -1.0180  -0.9800  -0.9617  -0.9417
    -0.9057  -0.9027  -0.8548  -0.8487  -0.8322  -0.7923  -0.7621  -0.7583
    -0.7025  -0.6718  -0.6341  -0.4983  -0.4933  -0.4807  -0.4380  -0.3491
    -0.2809  -0.2662  -0.2029  -0.1667  -0.1639  -0.1409  -0.1372  -0.0390
     0.0160   0.0246   0.0252   0.0789   0.0830   0.1394   0.1576   0.2585
     0.2934   0.3346   0.3437   0.3941   0.4587   0.4672   0.4940   0.5203
     0.5676   0.5825   0.6413   0.6525   0.6687   0.6953   0.7052   0.7215
     0.7228   0.7469   0.7797   0.8118   0.8450   0.8573   0.8844   0.8982
     0.9347   0.9425   0.9707   0.9857   1.0202   1.0562   1.0600   1.0660
     1.0668   1.0995   1.1357   1.1528   1.1528   1.1861   1.2331   1.2530
     1.2696   1.2869   1.3298   1.4080   1.4082   1.4498   1.4548   1.4626
     1.4908   1.4970   1.6125   1.6158   1.6307   1.6502   1.7630   1.9164
     2.1145   2.1773   2.3324   2.5887   2.6657   2.6734   2.7033   2.7465
     2.9750   3.0215   3.2760   3.3231   3.4030   3.6647   4.0430   4.9340
     5.0300   5.6401   5.8438   5.9878   6.1517   6.1577   6.2405   6.2561
     6.4880   6.6034   6.7449   6.7875   7.0004   7.0545   7.1808   7.3847
     7.5786   7.5907   7.6105   7.7050   7.8541   7.9240   7.9641   7.9838
     8.0325   8.0753   8.2283   8.2789   8.3252   8.3817   8.3901   8.4754
     8.5698   8.5878

          k = 0.2500 0.7854 0.0000 ( 76172 PWs)   bands (ev):

   -38.4972 -38.1415 -36.1326 -35.7391 -25.0955 -24.6432 -23.1276 -23.0998
   -23.0574 -23.0312 -23.0273 -22.9302 -19.0762 -18.8308 -18.7419 -18.7309
   -18.4989 -18.3554 -17.5133 -17.3610 -17.3117 -17.1330 -16.9943 -16.8871
   -15.2774 -15.2645 -15.2341 -15.2047 -15.1401 -15.0802 -15.0353 -14.9735
   -14.9669 -14.9402 -14.9177 -14.8075 -14.7908 -14.7870 -14.7047 -14.6923
   -14.6384 -14.6056 -14.5840 -14.4853 -14.4251 -14.3883 -14.3712 -14.3691
   -14.3478 -14.3473 -14.2780 -14.1786 -13.9773 -13.7565 -10.6694 -10.5050
   -10.3039 -10.0767  -9.9207  -9.6256  -9.0513  -9.0246  -8.9037  -8.6901
    -8.6650  -8.5486  -8.5323  -8.5221  -8.4739  -8.4674  -8.4380  -8.4240
    -8.4140  -8.3952  -8.2935  -8.1258  -8.1004  -7.9800  -4.3022  -4.1589
    -3.8912  -3.8292  -3.7118  -3.7035  -3.6563  -3.4528  -3.4068  -3.2549
    -3.2542  -3.2082  -3.2071  -3.0681  -2.9632  -2.9352  -2.8173  -2.6623
    -2.6424  -2.6239  -2.6175  -2.6159  -2.5402  -2.5339  -2.4840  -2.4726
    -2.4532  -2.3066  -2.2326  -2.1906  -2.1876  -2.1600  -2.0634  -2.0136
    -1.8833  -1.7928  -1.7742  -1.7220  -1.6691  -1.6384  -1.6321  -1.5979
    -1.5581  -1.5379  -1.5049  -1.4917  -1.4768  -1.4383  -1.3891  -1.3505
    -1.3097  -1.2390  -1.1924  -1.1764  -1.1698  -1.1566  -1.1216  -1.1149
    -1.1126  -1.0962  -1.0534  -1.0392  -1.0186  -0.9175  -0.8825  -0.8062
    -0.7137  -0.7010  -0.6738  -0.6619  -0.6466  -0.5992  -0.4026  -0.3376
    -0.2927  -0.1863  -0.1635  -0.1531  -0.0975  -0.0925  -0.0385   0.0059
     0.0465   0.0857   0.0988   0.1067   0.1136   0.2002   0.2776   0.2826
     0.5031   0.5189   0.5694   0.5827   0.5881   0.6347   0.6352   0.7579
     0.7671   0.8022   0.8060   0.8321   0.8323   0.8454   0.8962   0.8980
     0.9158   0.9398   0.9457   0.9611   0.9707   1.0086   1.0473   1.0904
     1.1019   1.1190   1.1268   1.1419   1.1718   1.1816   1.2679   1.2897
     1.3188   1.3382   1.3465   1.3877   1.4079   1.4248   1.4443   1.4591
     1.4605   1.4748   1.4902   1.5074   1.5675   1.6050   1.6315   1.7214
     1.7358   1.7914   1.8230   1.8777   1.8835   2.0355   2.0373   2.0616
     2.1029   2.1704   2.3193   2.4994   2.5186   2.5254   2.6495   2.7210
     3.2798   3.3460   3.7990   3.8503   3.8861   4.1414   4.4808   4.6953
     5.3649   5.6045   5.8935   5.9088   6.0623   6.4301   6.4371   6.5265
     6.7549   6.8779   6.8954   7.1228   7.2200   7.3472   7.5561   7.6395
     7.7593   7.8610   8.1087   8.1893   8.2132   8.2513   8.3238   8.3448
     8.5052   8.5444   8.5768   8.6577   8.7699   8.7884   8.8264   8.8570
     8.9348   8.9668

          k = 0.2500-1.0472 0.0000 ( 76172 PWs)   bands (ev):

   -38.4945 -38.1388 -36.1309 -35.7374 -25.0761 -24.6241 -23.1022 -23.0743
   -23.0362 -23.0100 -23.0028 -22.9096 -19.1567 -18.8237 -18.8115 -18.6948
   -18.4917 -18.3080 -17.5637 -17.3557 -17.2755 -17.1833 -16.9887 -16.8503
   -15.2903 -15.2253 -15.1663 -15.0907 -15.0620 -15.0383 -15.0276 -14.9658
   -14.9653 -14.9230 -14.9095 -14.8722 -14.8248 -14.7789 -14.7743 -14.6509
   -14.6407 -14.6114 -14.5968 -14.4888 -14.4285 -14.3667 -14.3436 -14.3431
   -14.3305 -14.3295 -14.1935 -14.1261 -13.9881 -13.7567 -10.7664 -10.4800
   -10.3980 -10.1297  -9.9012  -9.6554  -9.1372  -9.1101  -8.9988  -8.8409
    -8.8161  -8.6610  -8.5350  -8.5086  -8.4896  -8.4717  -8.4462  -8.4215
    -8.4193  -8.3921  -8.2806  -8.1661  -8.1409  -8.0086  -4.5004  -4.3591
    -4.0825  -4.0346  -3.9071  -3.8747  -3.8231  -3.6057  -3.5993  -3.4892
    -3.4890  -3.4392  -3.4381  -3.2224  -2.9799  -2.9520  -2.8293  -2.7957
    -2.6579  -2.6448  -2.6366  -2.6157  -2.6142  -2.5364  -2.5341  -2.5273
    -2.4746  -2.3652  -2.2203  -2.1906  -2.1449  -2.0910  -2.0506  -2.0156
    -1.9657  -1.9376  -1.9219  -1.8605  -1.8054  -1.7361  -1.6803  -1.6465
    -1.6364  -1.5878  -1.5415  -1.5169  -1.5102  -1.4700  -1.4533  -1.3996
    -1.3526  -1.3121  -1.2658  -1.2516  -1.2473  -1.2364  -1.2072  -1.1949
    -1.1420  -1.1249  -1.1196  -1.1087  -1.0236  -0.9355  -0.8969  -0.8863
    -0.7212  -0.6997  -0.6827  -0.6381  -0.6317  -0.6135  -0.4120  -0.3089
    -0.2906  -0.2080  -0.1744  -0.1286  -0.1234  -0.0660  -0.0657  -0.0507
     0.0435   0.0448   0.0676   0.1022   0.2161   0.2862   0.3494   0.3497
     0.5883   0.6075   0.6155   0.6293   0.6334   0.6597   0.7328   0.7849
     0.8252   0.8270   0.8399   0.8490   0.8597   0.8957   0.9411   0.9483
     0.9880   0.9885   1.0047   1.0176   1.0321   1.0487   1.0793   1.1102
     1.1852   1.1892   1.2063   1.2149   1.2649   1.3305   1.3321   1.3625
     1.3771   1.4379   1.4872   1.5211   1.5221   1.5372   1.5751   1.5758
     1.5979   1.7056   1.7112   1.7326   1.7328   1.7858   1.7870   1.8063
     1.8072   1.9131   1.9397   2.0156   2.0597   2.0727   2.0740   2.1942
     2.1959   2.2033   2.2065   2.2969   2.2977   2.3512   2.5277   2.6206
     3.2951   3.4319   3.9500   4.0086   4.0403   4.2855   4.4416   4.9501
     5.3920   5.7045   5.7180   5.7989   5.9662   6.3141   6.3366   6.5619
     6.7441   7.0581   7.0814   7.0958   7.3929   7.4671   7.5251   7.7908
     7.9214   8.0194   8.2562   8.4592   8.4906   8.5200   8.5850   8.6458
     8.6732   8.7752   8.8175   8.8433   8.8672   8.9058   8.9173   8.9821
     9.0427   9.0520

          k = 0.3750 0.0000 0.0000 ( 76246 PWs)   bands (ev):

   -38.5130 -38.1573 -36.1425 -35.7491 -25.2037 -24.7527 -23.2519 -23.2239
   -23.1958 -23.1699 -23.1533 -23.0584 -18.9838 -18.8642 -18.6005 -18.5330
   -18.5164 -18.1683 -17.5074 -17.4222 -17.1726 -17.0899 -17.0589 -16.7890
   -15.7045 -15.6901 -15.6147 -15.4545 -15.3807 -15.3110 -15.2057 -15.1245
   -15.0587 -15.0581 -15.0134 -14.9802 -14.8289 -14.7189 -14.6892 -14.6835
   -14.6262 -14.5434 -14.4831 -14.4731 -14.4709 -14.4639 -14.4627 -14.4219
   -14.4080 -14.3635 -14.3600 -14.2574 -13.9438 -13.7092 -10.6240 -10.1168
    -9.9047  -9.8454  -9.5438  -9.5304  -8.5371  -8.5041  -8.4801  -8.4327
    -8.4062  -8.4049  -8.2494  -8.2251  -8.1563  -8.1315  -8.1309  -8.1043
    -8.0902  -8.0335  -8.0173  -8.0076  -7.9913  -7.8986  -3.1679  -3.1161
    -3.0470  -2.7918  -2.7533  -2.7308  -2.6213  -2.5848  -2.5795  -2.5379
    -2.5160  -2.4997  -2.4704  -2.4417  -2.3703  -2.3047  -2.1978  -2.1944
    -2.1846  -2.1605  -2.1072  -2.0632  -1.9745  -1.9417  -1.9306  -1.9121
    -1.7262  -1.7079  -1.6763  -1.5734  -1.5635  -1.4915  -1.4762  -1.4734
    -1.4352  -1.3840  -1.3828  -1.3804  -1.3792  -1.3379  -1.2958  -1.2786
    -1.2524  -1.2426  -1.1493  -1.1143  -1.1034  -1.0097  -0.9978  -0.9897
    -0.9605  -0.9235  -0.8863  -0.8565  -0.8149  -0.7753  -0.7650  -0.7585
    -0.7076  -0.7044  -0.6879  -0.6176  -0.5691  -0.5302  -0.5099  -0.5046
    -0.5009  -0.4981  -0.4513  -0.4463  -0.4379  -0.4353  -0.3966  -0.3864
    -0.3633  -0.3429  -0.2517  -0.1855  -0.1840  -0.1716  -0.1702  -0.1657
    -0.1647  -0.0902  -0.0679  -0.0673  -0.0536  -0.0515  -0.0136   0.0058
     0.0510   0.0571   0.0726   0.0823   0.1215   0.1343   0.1711   0.2037
     0.2295   0.2865   0.2990   0.3795   0.4170   0.4257   0.4552   0.4602
     0.4624   0.5066   0.5922   0.5953   0.6046   0.6658   0.6728   0.6907
     0.7319   0.7547   0.8089   0.8261   0.8369   0.8482   0.9005   0.9011
     0.9275   0.9390   0.9541   0.9936   1.0165   1.0718   1.0775   1.1011
     1.1083   1.1837   1.1894   1.2256   1.2555   1.3047   1.3427   1.3992
     1.4100   1.4465   1.5018   1.5412   1.5441   1.5554   1.6039   1.6140
     1.6519   1.7507   1.8314   1.8374   1.8881   1.9620   2.0912   2.1306
     2.2310   2.2409   2.2464   2.3004   2.3752   2.4480   3.6397   4.1998
     4.7647   5.2046   5.2120   5.3255   5.5507   5.7645   5.7696   5.9268
     5.9761   6.2381   6.5715   6.6839   6.7152   6.7441   6.7649   6.8729
     7.0443   7.2773   7.3065   7.4075   7.4528   7.6841   7.6986   7.7223
     7.7365   7.8197   7.9360   8.0290   8.0367   8.0959   8.1517   8.1642
     8.2742   8.4561

          k = 0.3750 0.2618 0.0000 ( 76194 PWs)   bands (ev):

   -38.5103 -38.1546 -36.1408 -35.7474 -25.1854 -24.7345 -23.2290 -23.2011
   -23.1748 -23.1489 -23.1310 -23.0382 -18.9453 -18.8572 -18.6272 -18.5618
   -18.5259 -18.2794 -17.4772 -17.4148 -17.2381 -17.0593 -17.0509 -16.8547
   -15.6324 -15.6005 -15.5627 -15.3733 -15.3300 -15.2698 -15.1433 -15.1035
   -15.0258 -15.0226 -14.9788 -14.9580 -14.8162 -14.7129 -14.6675 -14.6499
   -14.5802 -14.5544 -14.5415 -14.4814 -14.4658 -14.4544 -14.4477 -14.4310
   -14.4223 -14.3745 -14.3565 -14.2944 -13.9698 -13.7195 -10.6029 -10.1278
   -10.0798  -9.9459  -9.5794  -9.5196  -8.5370  -8.5062  -8.4886  -8.4803
    -8.4548  -8.4295  -8.4067  -8.4018  -8.3451  -8.3186  -8.2550  -8.2337
    -8.0526  -8.0265  -8.0214  -7.9958  -7.9210  -7.8980  -3.2637  -3.1863
    -3.0895  -2.9103  -2.8448  -2.8096  -2.6189  -2.6169  -2.6038  -2.5871
    -2.5862  -2.5656  -2.5446  -2.5432  -2.5277  -2.4871  -2.4721  -2.4429
    -2.4382  -2.3817  -2.3028  -2.2443  -2.0964  -2.0460  -2.0100  -1.8881
    -1.8617  -1.8577  -1.8227  -1.8209  -1.8131  -1.8092  -1.7806  -1.6888
    -1.6178  -1.5707  -1.5179  -1.5079  -1.4752  -1.3862  -1.3157  -1.3010
    -1.2606  -1.2128  -1.2036  -1.1822  -1.1483  -1.1474  -1.1215  -1.0742
    -1.0490  -1.0376  -1.0304  -1.0063  -0.9134  -0.9064  -0.8070  -0.7912
    -0.7607  -0.7040  -0.6738  -0.6528  -0.6137  -0.5798  -0.5602  -0.5361
    -0.4878  -0.4769  -0.4754  -0.4344  -0.3958  -0.3484  -0.3430  -0.3066
    -0.2918  -0.2735  -0.2659  -0.2258  -0.2170  -0.2028  -0.1486  -0.0768
    -0.0582  -0.0479  -0.0419  -0.0418  -0.0167  -0.0153   0.0169   0.0377
     0.0595   0.0838   0.1091   0.1113   0.1957   0.2033   0.2344   0.2529
     0.2707   0.2967   0.3308   0.4839   0.5033   0.5422   0.5492   0.5706
     0.5986   0.6022   0.6185   0.6283   0.6920   0.6941   0.7016   0.7291
     0.7361   0.8119   0.8144   0.8307   0.8364   0.8514   0.8814   0.9127
     0.9186   0.9581   0.9970   1.0109   1.0641   1.0950   1.0979   1.1370
     1.1540   1.1899   1.2222   1.2238   1.2832   1.3308   1.3411   1.3467
     1.3634   1.3772   1.3950   1.4684   1.5050   1.5697   1.6204   1.8970
     2.0754   2.1415   2.2733   2.3126   2.3456   2.3798   2.3908   2.4824
     2.4835   2.5167   2.5721   2.6201   2.6458   2.8792   3.7815   4.3335
     5.0457   5.4279   5.5059   5.5116   5.6395   5.9691   5.9750   6.0612
     6.1344   6.2440   6.6743   6.7971   6.8435   6.9151   7.0039   7.0093
     7.0549   7.2300   7.2496   7.4341   7.5308   7.6361   7.6429   7.6847
     7.8522   7.9181   7.9575   8.0895   8.1431   8.1895   8.2347   8.3401
     8.3617   8.4960

          k = 0.3750 0.5236 0.0000 ( 76143 PWs)   bands (ev):

   -38.5038 -38.1481 -36.1367 -35.7433 -25.1404 -24.6899 -23.1729 -23.1448
   -23.1231 -23.0973 -23.0761 -22.9887 -18.8675 -18.8459 -18.8403 -18.5234
   -18.5087 -18.4586 -17.4030 -17.3980 -17.3802 -17.0338 -17.0097 -16.9705
   -15.4664 -15.4348 -15.3684 -15.2211 -15.2169 -15.1712 -15.0840 -14.9982
   -14.9666 -14.9343 -14.9225 -14.8803 -14.8189 -14.7831 -14.6986 -14.6104
   -14.5946 -14.5668 -14.5509 -14.4899 -14.4491 -14.4189 -14.4090 -14.4090
   -14.4015 -14.3991 -14.3629 -14.3306 -13.9856 -13.7399 -10.5541 -10.3813
   -10.2475  -9.9842  -9.7772  -9.5696  -8.7733  -8.7472  -8.6357  -8.6269
    -8.6100  -8.4929  -8.4843  -8.4523  -8.4333  -8.4169  -8.3895  -8.3252
    -8.2304  -8.2046  -8.1141  -8.0796  -8.0539  -7.9435  -3.6766  -3.5442
    -3.3835  -3.3401  -3.2859  -3.2541  -3.1803  -3.1053  -2.8468  -2.8214
    -2.7823  -2.7140  -2.6975  -2.6963  -2.6900  -2.6405  -2.6301  -2.6251
    -2.6019  -2.5512  -2.5369  -2.4861  -2.4812  -2.4509  -2.4297  -2.4078
    -2.3465  -2.2003  -2.1260  -2.0887  -2.0280  -1.9773  -1.9608  -1.9042
    -1.8265  -1.7673  -1.6909  -1.6429  -1.5809  -1.5575  -1.4927  -1.4752
    -1.4623  -1.4361  -1.4237  -1.3243  -1.3109  -1.2919  -1.2481  -1.2431
    -1.1902  -1.1772  -1.1196  -1.1002  -1.0898  -1.0226  -0.9969  -0.9398
    -0.8839  -0.8804  -0.8654  -0.8451  -0.8222  -0.8128  -0.7853  -0.7354
    -0.6754  -0.6572  -0.6042  -0.5777  -0.5090  -0.5004  -0.4630  -0.3899
    -0.3450  -0.2614  -0.1829  -0.1776  -0.1601  -0.1568  -0.1009  -0.0128
     0.0057   0.0606   0.1025   0.1033   0.1194   0.1567   0.1798   0.2680
     0.2792   0.3371   0.4027   0.4718   0.4965   0.5216   0.5319   0.5477
     0.5535   0.5816   0.6226   0.6515   0.6569   0.6677   0.6722   0.6822
     0.7134   0.7313   0.7405   0.7658   0.8484   0.8685   0.8688   0.9037
     0.9330   0.9422   0.9668   1.0013   1.0190   1.0360   1.0484   1.0803
     1.1178   1.1326   1.1446   1.1537   1.1666   1.1863   1.2045   1.2402
     1.2519   1.2879   1.3488   1.3949   1.4229   1.4484   1.4859   1.4973
     1.4989   1.5155   1.5887   1.5903   1.6218   1.6508   1.6741   1.8583
     2.4679   2.5107   2.6160   2.6691   2.6749   2.7089   2.7466   2.9754
     2.9810   3.0164   3.0996   3.1485   3.2410   3.5118   4.1841   4.7004
     5.1377   5.7259   5.8331   6.0231   6.1999   6.2085   6.2540   6.2684
     6.6248   6.6839   6.7884   6.8238   6.9922   7.0522   7.1165   7.3349
     7.4176   7.6209   7.7568   7.7652   7.7813   7.8157   7.9389   7.9405
     8.0768   8.0983   8.1861   8.2151   8.3072   8.4075   8.4321   8.5625
     8.6061   8.6532

          k = 0.3750 0.7854 0.0000 ( 76178 PWs)   bands (ev):

   -38.4972 -38.1415 -36.1326 -35.7391 -25.0945 -24.6444 -23.1154 -23.0871
   -23.0700 -23.0443 -23.0198 -22.9380 -19.0761 -18.8234 -18.7406 -18.7308
   -18.4915 -18.3541 -17.5132 -17.3831 -17.3168 -17.1329 -17.0174 -16.8928
   -15.2626 -15.2407 -15.2181 -15.1637 -15.1136 -15.0716 -15.0680 -14.9503
   -14.9335 -14.9012 -14.8837 -14.8463 -14.8108 -14.7933 -14.7470 -14.6922
   -14.6828 -14.5807 -14.5807 -14.5086 -14.4270 -14.3825 -14.3663 -14.3644
   -14.3517 -14.3509 -14.2890 -14.2291 -13.9706 -13.7609 -10.5926 -10.5016
   -10.3312 -10.0846  -9.9161  -9.6901  -8.9699  -8.9434  -8.8251  -8.6975
    -8.6713  -8.5506  -8.5449  -8.5195  -8.4758  -8.4600  -8.4301  -8.4284
    -8.4025  -8.3942  -8.2947  -8.2308  -8.2054  -8.0775  -4.1605  -4.0262
    -3.8414  -3.7920  -3.7647  -3.7256  -3.6947  -3.5070  -3.3059  -3.2442
    -3.2436  -3.2189  -3.2166  -3.1004  -2.8840  -2.8537  -2.7572  -2.6642
    -2.6552  -2.6449  -2.6010  -2.5324  -2.5227  -2.5174  -2.4246  -2.3926
    -2.3612  -2.3565  -2.3487  -2.3171  -2.2555  -2.1304  -2.0341  -2.0044
    -2.0028  -1.9021  -1.8861  -1.8640  -1.8014  -1.7623  -1.6556  -1.6355
    -1.6210  -1.5478  -1.5140  -1.5003  -1.4829  -1.4725  -1.4240  -1.3878
    -1.3219  -1.2272  -1.1934  -1.1865  -1.1377  -1.1115  -1.1044  -1.0960
    -1.0874  -1.0581  -1.0555  -1.0470  -1.0072  -0.9089  -0.8972  -0.8319
    -0.7307  -0.7139  -0.7025  -0.6742  -0.6169  -0.5739  -0.4385  -0.3927
    -0.3162  -0.1696  -0.1626  -0.1477  -0.1312  -0.0385  -0.0224  -0.0041
     0.0753   0.1454   0.1724   0.1978   0.2080   0.2566   0.2792   0.4316
     0.4394   0.5048   0.5525   0.5746   0.6041   0.6099   0.6780   0.6917
     0.7365   0.7546   0.8035   0.8066   0.8592   0.8999   0.9096   0.9409
     0.9462   0.9787   0.9850   1.0102   1.0132   1.0228   1.0267   1.0593
     1.0668   1.0917   1.0931   1.1114   1.1228   1.1865   1.2383   1.2509
     1.2832   1.2854   1.3392   1.3884   1.3886   1.4027   1.4082   1.4296
     1.4521   1.4575   1.5010   1.5113   1.5496   1.5882   1.6073   1.6408
     1.7013   1.7926   1.8455   1.9149   1.9186   1.9722   2.0007   2.0036
     2.4559   2.4677   2.5230   2.5322   2.6317   2.7394   2.8594   3.0738
     3.2995   3.3409   3.4942   3.5499   3.6121   3.8645   4.6671   4.7473
     5.1493   5.5442   6.1124   6.1410   6.1583   6.4323   6.5337   6.5562
     6.6899   6.7011   6.7165   7.1307   7.1704   7.2376   7.4789   7.6681
     7.7089   7.9118   8.0367   8.2113   8.2236   8.2376   8.3057   8.3140
     8.4558   8.4854   8.5130   8.6493   8.7369   8.8173   8.9380   9.0039
     9.0269   9.0681

          k = 0.3750-1.0472 0.0000 ( 76210 PWs)   bands (ev):

   -38.4945 -38.1388 -36.1309 -35.7374 -25.0752 -24.6252 -23.0911 -23.0628
   -23.0476 -23.0219 -22.9960 -22.9167 -19.1566 -18.8163 -18.8114 -18.6936
   -18.4843 -18.3067 -17.5638 -17.3771 -17.2803 -17.1833 -17.0110 -16.8556
   -15.2425 -15.1731 -15.1177 -15.0961 -15.0835 -15.0340 -15.0268 -14.9839
   -14.9638 -14.9586 -14.8788 -14.8239 -14.8156 -14.7662 -14.7650 -14.6835
   -14.6812 -14.6252 -14.5930 -14.5360 -14.4135 -14.3697 -14.3410 -14.3400
   -14.3338 -14.3328 -14.2053 -14.1661 -13.9740 -13.7729 -10.6456 -10.4795
[...]
    -1.8590  -1.8446  -1.8205  -1.8197  -1.8146  -1.8089  -1.8076  -1.6797
    -1.5776  -1.5207  -1.4708  -1.4616  -1.4230  -1.3512  -1.3486  -1.3270
    -1.2792  -1.2678  -1.2429  -1.2320  -1.2052  -1.1993  -1.1623  -1.0641
    -1.0533  -1.0070  -0.9939  -0.9603  -0.9340  -0.9163  -0.8976  -0.8244
    -0.7655  -0.6996  -0.6579  -0.6565  -0.6123  -0.6009  -0.5304  -0.5273
    -0.5157  -0.4893  -0.4367  -0.4273  -0.3916  -0.3881  -0.3262  -0.2973
    -0.2970  -0.2735  -0.2699  -0.2309  -0.2169  -0.1961  -0.1875  -0.0713
    -0.0615  -0.0433  -0.0305  -0.0238   0.0013   0.0106   0.0282   0.0469
     0.0539   0.0665   0.0947   0.1214   0.1837   0.2235   0.2391   0.2514
     0.2807   0.2937   0.3551   0.4851   0.5268   0.5314   0.5486   0.5708
     0.6028   0.6086   0.6280   0.6342   0.6430   0.6568   0.6649   0.7169
     0.7322   0.8138   0.8291   0.8416   0.8498   0.8824   0.9012   0.9058
     0.9636   0.9763   0.9904   0.9910   1.0139   1.0555   1.1321   1.1323
     1.1514   1.1620   1.1779   1.1805   1.2977   1.3480   1.3519   1.3619
     1.3722   1.3918   1.4016   1.5009   1.5101   1.5121   1.5735   1.8893
     2.1764   2.2338   2.2745   2.3509   2.3590   2.3706   2.3988   2.4969
     2.5015   2.5017   2.5423   2.5751   2.7286   2.8263   3.9089   4.1647
     5.2391   5.3594   5.5649   5.7102   5.7153   5.7275   5.7326   6.1351
     6.2577   6.3874   6.5735   6.6987   6.8266   6.8526   7.0276   7.1198
     7.2859   7.3249   7.3377   7.3778   7.4034   7.4263   7.5658   7.6901
     7.7906   7.9628   7.9791   8.0879   8.1852   8.2461   8.3035   8.4109
     8.4336   8.4785

          k =-0.5000 0.5236 0.0000 ( 76162 PWs)   bands (ev):

   -38.5038 -38.1481 -36.1367 -35.7433 -25.1399 -24.6905 -23.1628 -23.1338
   -23.1334 -23.1085 -23.0716 -22.9934 -18.8674 -18.8454 -18.8371 -18.5233
   -18.5054 -18.4580 -17.4081 -17.4047 -17.3806 -17.0438 -17.0105 -16.9725
   -15.4529 -15.4455 -15.3117 -15.2286 -15.1910 -15.1744 -15.0797 -15.0233
   -14.9549 -14.9413 -14.9254 -14.8957 -14.8183 -14.7830 -14.6997 -14.6246
   -14.5674 -14.5656 -14.5612 -14.4808 -14.4469 -14.4183 -14.4125 -14.4080
   -14.4059 -14.4045 -14.3631 -14.3576 -13.9835 -13.7383 -10.5535 -10.3611
   -10.2980  -9.9840  -9.7434  -9.5753  -8.7393  -8.7129  -8.7102  -8.6848
    -8.5938  -8.5583  -8.4839  -8.4517  -8.4386  -8.4164  -8.3889  -8.3253
    -8.1404  -8.1294  -8.1149  -8.1034  -8.0496  -7.9701  -3.5519  -3.4743
    -3.4140  -3.3785  -3.2829  -3.2154  -3.1679  -3.1656  -2.7838  -2.7580
    -2.7575  -2.7440  -2.7213  -2.7108  -2.6620  -2.6509  -2.6212  -2.6038
    -2.6025  -2.5926  -2.5879  -2.5298  -2.4807  -2.4733  -2.4585  -2.4497
    -2.2630  -2.1906  -2.1623  -2.1167  -1.9387  -1.9270  -1.8839  -1.8480
    -1.8166  -1.8039  -1.7696  -1.7549  -1.7195  -1.6933  -1.4950  -1.4656
    -1.4491  -1.4341  -1.3707  -1.3388  -1.3320  -1.2971  -1.2671  -1.2511
    -1.2123  -1.1943  -1.1051  -1.1049  -1.1005  -1.0486  -1.0109  -0.9441
    -0.8664  -0.8598  -0.8568  -0.8552  -0.8490  -0.7971  -0.7628  -0.7384
    -0.7004  -0.6536  -0.6160  -0.5613  -0.5287  -0.5258  -0.3955  -0.3940
    -0.3783  -0.3561  -0.1915  -0.1823  -0.1678  -0.1574  -0.0639   0.0498
     0.0552   0.0588   0.0669   0.0945   0.1810   0.1868   0.1975   0.2336
     0.2808   0.3737   0.3971   0.5161   0.5174   0.5237   0.5240   0.5723
     0.5733   0.5873   0.6240   0.6297   0.6403   0.6555   0.6580   0.6614
     0.6710   0.7079   0.7694   0.7758   0.8337   0.8483   0.8496   0.9286
     0.9425   0.9713   0.9792   0.9892   1.0003   1.0296   1.0443   1.0797
     1.0821   1.1403   1.1468   1.1490   1.1721   1.1769   1.1860   1.2988
     1.3158   1.3225   1.3336   1.3797   1.4034   1.4299   1.4897   1.5271
     1.5415   1.5422   1.5480   1.5491   1.5611   1.6653   1.6762   1.8266
     2.6362   2.6467   2.6661   2.6754   2.8106   2.8600   2.8661   2.9208
     2.9293   3.0037   3.0217   3.0450   3.2412   3.3154   4.2942   4.5533
     5.2035   5.7124   5.8703   6.0250   6.2269   6.2396   6.2534   6.2644
     6.7368   6.7496   6.7869   6.7925   6.9664   7.0791   7.0987   7.2246
     7.4270   7.6057   7.6635   7.7490   7.8815   7.8994   7.9037   7.9184
     8.0621   8.1306   8.1687   8.2818   8.2968   8.4568   8.4749   8.4944
     8.5488   8.6207

          k =-0.5000 0.7854 0.0000 ( 76134 PWs)   bands (ev):

   -38.4972 -38.1415 -36.1326 -35.7391 -25.0941 -24.6449 -23.1075 -23.0785
   -23.0780 -23.0530 -23.0162 -22.9417 -19.0761 -18.8202 -18.7401 -18.7308
   -18.4883 -18.3535 -17.5132 -17.3922 -17.3189 -17.1329 -17.0269 -16.8952
   -15.2547 -15.2466 -15.1777 -15.1491 -15.1192 -15.1146 -15.0235 -14.9311
   -14.8992 -14.8901 -14.8852 -14.8574 -14.8497 -14.8048 -14.7349 -14.7229
   -14.6855 -14.5785 -14.5534 -14.5368 -14.4263 -14.3804 -14.3628 -14.3618
   -14.3550 -14.3529 -14.2889 -14.2568 -13.9677 -13.7630 -10.5390 -10.4842
   -10.4015 -10.0588  -9.9089  -9.7299  -8.8660  -8.8386  -8.8274  -8.8021
    -8.7455  -8.6521  -8.4738  -8.4636  -8.4483  -8.4318  -8.4215  -8.3695
    -8.3690  -8.3440  -8.3429  -8.3148  -8.2762  -8.1647  -4.0619  -3.9349
    -3.8911  -3.8000  -3.7892  -3.7444  -3.6441  -3.5622  -3.2547  -3.2320
    -3.2320  -3.2310  -3.2228  -3.1276  -2.8041  -2.7771  -2.7242  -2.7108
    -2.6913  -2.6688  -2.5528  -2.5352  -2.4999  -2.4807  -2.4657  -2.4586
    -2.3883  -2.3027  -2.2849  -2.2255  -2.2235  -2.1985  -2.1192  -2.1185
    -2.0533  -2.0430  -1.9100  -1.8240  -1.8065  -1.7713  -1.6628  -1.6486
    -1.6415  -1.6117  -1.5304  -1.5253  -1.4817  -1.4718  -1.4437  -1.4060
    -1.2755  -1.2004  -1.1830  -1.1606  -1.1575  -1.1116  -1.1112  -1.0874
    -1.0732  -1.0714  -1.0571  -1.0468  -0.9586  -0.8924  -0.8853  -0.8638
    -0.7538  -0.7341  -0.7321  -0.7259  -0.5467  -0.5315  -0.4654  -0.4063
    -0.2895  -0.2641  -0.1955  -0.1579  -0.1179  -0.0921   0.0498   0.0692
     0.0857   0.1116   0.1540   0.2908   0.3013   0.3511   0.3534   0.3948
     0.4262   0.4369   0.5798   0.6018   0.6289   0.6510   0.6525   0.6783
     0.6809   0.7098   0.7452   0.8428   0.8673   0.8767   0.8967   0.9516
     0.9678   0.9798   1.0093   1.0131   1.0211   1.0221   1.0291   1.0416
     1.0636   1.1029   1.1168   1.1402   1.1755   1.1875   1.1995   1.2003
     1.2300   1.2914   1.3414   1.3801   1.3841   1.3846   1.4103   1.4171
     1.4380   1.4585   1.4947   1.4971   1.5435   1.5612   1.5805   1.6165
     1.6881   1.7926   1.8737   1.9143   1.9531   1.9571   1.9633   1.9659
     2.5041   2.5114   2.5286   2.5371   3.0482   3.0949   3.1285   3.1837
     3.2286   3.2379   3.3345   3.3634   3.4954   3.4964   4.7701   4.8594
     4.9494   5.5155   6.1868   6.3630   6.3893   6.4002   6.4160   6.4310
     6.6199   6.6487   6.7141   7.0897   7.1662   7.1725   7.4774   7.6329
     7.7037   7.9780   8.0388   8.2044   8.2293   8.2966   8.3327   8.3468
     8.3910   8.3937   8.3976   8.5800   8.7242   8.8108   8.9906   9.0908
     9.1094   9.1400

          k =-0.5000-1.0472 0.0000 ( 76140 PWs)   bands (ev):

   -38.4945 -38.1388 -36.1309 -35.7374 -25.0748 -24.6257 -23.0842 -23.0551
   -23.0546 -23.0296 -22.9928 -22.9200 -19.1566 -18.8132 -18.8114 -18.6931
   -18.4812 -18.3062 -17.5638 -17.3858 -17.2822 -17.1834 -17.0202 -16.8578
   -15.2051 -15.1338 -15.1129 -15.1005 -15.0825 -15.0796 -15.0259 -15.0109
   -14.9769 -14.9043 -14.8569 -14.8252 -14.7818 -14.7678 -14.7630 -14.7257
   -14.7093 -14.6019 -14.5918 -14.5674 -14.4040 -14.3751 -14.3379 -14.3371
   -14.3369 -14.3361 -14.2049 -14.1895 -13.9675 -13.7803 -10.5639 -10.4793
   -10.3314 -10.2741  -9.8977  -9.8113  -8.8694  -8.8410  -8.8187  -8.7937
    -8.7686  -8.6600  -8.5443  -8.5208  -8.5177  -8.4967  -8.4830  -8.4428
    -8.4389  -8.4300  -8.4118  -8.4108  -8.2827  -8.2763  -4.2628  -4.1406
    -4.0653  -3.9953  -3.9545  -3.9532  -3.8340  -3.7209  -3.4711  -3.4653
    -3.4648  -3.4641  -3.4332  -3.2903  -2.8097  -2.7853  -2.7257  -2.7025
    -2.6707  -2.6631  -2.5910  -2.5256  -2.4897  -2.4457  -2.4453  -2.4426
    -2.4083  -2.4046  -2.3969  -2.3682  -2.3543  -2.3105  -2.1689  -2.1261
    -2.1171  -2.0915  -1.9421  -1.8560  -1.8552  -1.8524  -1.7525  -1.7512
    -1.7049  -1.6877  -1.5817  -1.5553  -1.5522  -1.5513  -1.5295  -1.4305
    -1.2817  -1.2616  -1.2515  -1.1763  -1.1677  -1.1628  -1.1549  -1.1439
    -1.1340  -1.1263  -1.1047  -1.0097  -0.9979  -0.9207  -0.9106  -0.9041
    -0.7925  -0.7857  -0.7719  -0.7510  -0.5247  -0.5243  -0.4634  -0.4062
    -0.1830  -0.1785  -0.1678  -0.1378  -0.0414  -0.0029   0.0793   0.0937
     0.1001   0.1200   0.1282   0.2276   0.3090   0.3413   0.3452   0.3569
     0.3939   0.4798   0.6177   0.6711   0.7029   0.7471   0.7498   0.7590
     0.7938   0.8109   0.8356   0.8870   0.9417   0.9447   0.9480   0.9826
     0.9989   0.9991   1.0107   1.0311   1.0512   1.0688   1.1236   1.1297
     1.1388   1.1427   1.1441   1.1748   1.1842   1.2041   1.2048   1.2246
     1.3131   1.3774   1.4070   1.4564   1.4698   1.4731   1.4975   1.5227
     1.5358   1.5908   1.6586   1.6795   1.7599   1.7759   1.7846   1.7862
     1.7870   1.9112   1.9791   2.0282   2.1326   2.1338   2.1415   2.1437
     2.3015   2.3094   2.3159   2.3248   3.0601   3.1424   3.1484   3.2456
     3.2533   3.3075   3.3960   3.4594   3.5059   3.5509   4.6670   4.8365
     5.5452   5.7023   5.7869   6.3151   6.3290   6.3556   6.3719   6.5495
     6.5535   6.5569   6.5772   6.8469   7.1083   7.1787   7.7232   7.7738
     7.8349   8.1289   8.2943   8.3707   8.3717   8.6826   8.6996   8.8528
     8.8546   8.9144   8.9755   9.0087   9.0222   9.0235   9.0784   9.0959
     9.1145   9.1300

     the Fermi energy is     2.3134 ev

!    total energy              =   -3711.57697126 Ry
     Harris-Foulkes estimate   =   -3711.57697126 Ry
     estimated scf accuracy    <          4.3E-09 Ry

     The total energy is the sum of the following terms:

     one-electron contribution =  -49799.85422360 Ry
     hartree contribution      =   25197.92329176 Ry
     xc contribution           =   -1263.75418754 Ry
     ewald contribution        =   22154.12339180 Ry
     smearing contrib. (-TS)   =      -0.01524368 Ry

     convergence has been achieved in  37 iterations

     negative rho (up, down):  9.216E-02 0.000E+00

     Forces acting on atoms (cartesian axes, Ry/au):

     atom    1 type  4   force =    -0.00000601    0.00000000   -0.00010916
     atom    2 type  4   force =     0.00000601    0.00000000   -0.00010916
     atom    3 type  3   force =    -0.00000920    0.00000000   -0.00006284
     atom    4 type  3   force =     0.00000920    0.00000000   -0.00006284
     atom    5 type  4   force =     0.00000381    0.00000000   -0.00001974
     atom    6 type  4   force =    -0.00000381    0.00000000   -0.00001974
     atom    7 type  1   force =     0.00000000    0.00000000   -0.00022795
     atom    8 type  1   force =     0.00000000    0.00000000   -0.00021175
     atom    9 type  3   force =     0.00004282    0.00000000   -0.00001481
     atom   10 type  3   force =    -0.00004282    0.00000000   -0.00001481
     atom   11 type  4   force =     0.00000000    0.00000000    0.00035557
     atom   12 type  4   force =     0.00000517    0.00000000    0.00034605
     atom   13 type  4   force =    -0.00000517    0.00000000    0.00034605
     atom   14 type  4   force =     0.00000000    0.00000000    0.00053852
     atom   15 type  2   force =     0.00000000    0.00000000   -0.00128414
     atom   16 type  5   force =     0.00000000    0.00000000   -0.00192153
     atom   17 type  4   force =     0.00019331    0.00000000    0.00247591
     atom   18 type  4   force =    -0.00019331    0.00000000    0.00247591
     atom   19 type  4   force =     0.00000000    0.00000000    0.00270323
     atom   20 type  4   force =     0.00000000    0.00000000    0.00332600
     atom   21 type  3   force =    -0.00011579    0.00000000   -0.00283250
     atom   22 type  3   force =     0.00011579    0.00000000   -0.00283250
     atom   23 type  1   force =     0.00000000    0.00000000   -0.00772541
     atom   24 type  1   force =     0.00000000    0.00000000   -0.00889351
     atom   25 type  4   force =    -0.00112075    0.00000000    0.00673680
     atom   26 type  4   force =     0.00112075    0.00000000    0.00673680
     atom   27 type  4   force =    -0.00134167    0.00000000    0.02021113
     atom   28 type  4   force =     0.00134167    0.00000000    0.02021113
     atom   29 type  3   force =     0.00530561    0.00000000   -0.02264836
     atom   30 type  3   force =    -0.00530561    0.00000000   -0.02264836
     atom   31 type  4   force =    -0.01174905    0.00000000    0.05046798
     atom   32 type  4   force =     0.01174905    0.00000000    0.05046798
     atom   33 type  1   force =     0.00000000    0.00000000   -0.05160639
     atom   34 type  1   force =     0.00000000    0.00000000   -0.03983471
     atom   35 type  3   force =    -0.01006687    0.00000000   -0.00841016
     atom   36 type  3   force =     0.01006687    0.00000000   -0.00841016
     atom   37 type  4   force =     0.00000000    0.00000000    0.01866097
     atom   38 type  4   force =     0.00000000    0.00000000    0.02078207
     atom   39 type  4   force =     0.00225854    0.00000000    0.01217772
     atom   40 type  4   force =    -0.00225854    0.00000000    0.01217772
     atom   41 type  5   force =     0.00000000    0.00000000   -0.04048817
     atom   42 type  2   force =     0.00000000    0.00000000   -0.03034712
     atom   43 type  4   force =     0.00000000    0.00000000    0.00666448
     atom   44 type  4   force =     0.00059081    0.00000000    0.00324296
     atom   45 type  4   force =    -0.00059081    0.00000000    0.00324296
     atom   46 type  4   force =     0.00000000    0.00000000    0.00472352
     atom   47 type  3   force =     0.00052871    0.00000000    0.00117447
     atom   48 type  3   force =    -0.00052871    0.00000000    0.00117447
     atom   49 type  1   force =     0.00000000    0.00000000   -0.00098015
     atom   50 type  1   force =     0.00000000    0.00000000   -0.00117032
     atom   51 type  4   force =     0.00009182    0.00000000    0.00083048
     atom   52 type  4   force =    -0.00009182    0.00000000    0.00083048
     atom   53 type  3   force =    -0.00004623    0.00000000   -0.00031977
     atom   54 type  3   force =     0.00004623    0.00000000   -0.00031977
     atom   55 type  4   force =     0.00000150    0.00000000    0.00022224
     atom   56 type  4   force =    -0.00000150    0.00000000    0.00022224

     Total force =     0.126075     Total SCF correction =     0.000304


     Computing stress (Cartesian axis) and pressure


     negative rho (up, down):  9.216E-02 0.000E+00
          total   stress  (Ry/bohr**3)                   (kbar)     P=       -6.85
  -0.00008599   0.00000000   0.00000000          -12.65        0.00        0.00
   0.00000000  -0.00003551   0.00000000            0.00       -5.22        0.00
   0.00000000   0.00000000  -0.00001811            0.00        0.00       -2.66

 
     init_run     :     26.34s CPU     27.60s WALL (       1 calls)
     electrons    :   1965.49s CPU   2060.24s WALL (       1 calls)
     forces       :     11.07s CPU     11.77s WALL (       1 calls)
     stress       :    107.60s CPU    109.47s WALL (       1 calls)

     Called by init_run:
     wfcinit      :     21.65s CPU     22.06s WALL (       1 calls)
     potinit      :      1.04s CPU      1.06s WALL (       1 calls)
     hinit0       :      1.73s CPU      1.90s WALL (       1 calls)

     Called by electrons:
     c_bands      :   1650.86s CPU   1698.45s WALL (      37 calls)
     sum_band     :    239.91s CPU    266.44s WALL (      37 calls)
     v_of_rho     :      4.27s CPU      4.34s WALL (      38 calls)
     newd         :     35.24s CPU     56.01s WALL (      38 calls)
     mix_rho      :     35.75s CPU     36.09s WALL (      37 calls)

     Called by c_bands:
     init_us_2    :      9.55s CPU      9.65s WALL (    1925 calls)
     cegterg      :   1576.57s CPU   1619.08s WALL (     925 calls)

     Called by sum_band:
     sum_band:bec :      1.06s CPU      1.06s WALL (     925 calls)
     addusdens    :     36.12s CPU     60.10s WALL (      37 calls)

     Called by *egterg:
     h_psi        :    753.59s CPU    769.09s WALL (    4637 calls)
     s_psi        :    113.12s CPU    113.74s WALL (    4637 calls)
     g_psi        :      1.67s CPU      1.69s WALL (    3687 calls)
     cdiaghg      :    350.72s CPU    352.24s WALL (    4612 calls)

     Called by h_psi:
     h_psi:calbec :    125.26s CPU    125.82s WALL (    4637 calls)
     vloc_psi     :    511.40s CPU    518.41s WALL (    4637 calls)
     add_vuspsi   :    113.81s CPU    114.37s WALL (    4637 calls)

     General routines
     calbec       :    211.12s CPU    211.99s WALL (    5687 calls)
     fft          :      3.75s CPU      3.87s WALL (     517 calls)
     ffts         :     19.59s CPU     19.78s WALL (   21159 calls)
     fftw         :    586.78s CPU    594.58s WALL ( 1321646 calls)
     interpolate  :      0.30s CPU      0.30s WALL (      38 calls)
 
     Parallel routines
     fft_scatt_xy :     67.88s CPU     68.85s WALL ( 1343322 calls)
     fft_scatt_yz :    380.68s CPU    385.88s WALL ( 1343322 calls)
 
     PWSCF        :  35m11.53s CPU  36m50.73s WALL

 
   This run was terminated on:  23:55:17  27May2021            

=------------------------------------------------------------------------------=
   JOB DONE.
=------------------------------------------------------------------------------=
[1622174117.805016] [holy7c16607:234693:0]          mpool.c:43   UCX  WARN  object 0x389d500 was not returned to mpool ucp_requests
[1622174117.806424] [holy7c16610:220698:0]          mpool.c:43   UCX  WARN  object 0x3ca3080 was not returned to mpool ucp_requests
[1622174117.806136] [holy7c10209:132770:0]          mpool.c:43   UCX  WARN  object 0x4760840 was not returned to mpool ucp_requests
[1622174117.806158] [holy7c10209:132770:0]          mpool.c:43   UCX  WARN  object 0x4760d80 was not returned to mpool ucp_requests
[1622174117.813546] [holy7c06207:182546:0]          mpool.c:43   UCX  WARN  object 0x2a26580 was not returned to mpool ucp_requests
[1622174117.813524] [holy7c06606:83035:0]          mpool.c:43   UCX  WARN  object 0x3117600 was not returned to mpool ucp_requests
[1622174117.825527] [holy7c08101:167076:0]          mpool.c:43   UCX  WARN  object 0x2855480 was not returned to mpool ucp_requests
[1622174117.825552] [holy7c08101:167076:0]          mpool.c:43   UCX  WARN  object 0x2855d40 was not returned to mpool ucp_requests
[1622174117.827490] [holy7c16512:255782:0]          mpool.c:43   UCX  WARN  object 0x3b60340 was not returned to mpool ucp_requests
[1622174117.844049] [holy7c16601:19315:0]          mpool.c:43   UCX  WARN  object 0x343c140 was not returned to mpool ucp_requests
[1622174117.844072] [holy7c16601:19315:0]          mpool.c:43   UCX  WARN  object 0x343c680 was not returned to mpool ucp_requests
[1622174117.844074] [holy7c16601:19315:0]          mpool.c:43   UCX  WARN  object 0x343c840 was not returned to mpool ucp_requests
[1622174117.815153] [holy7c16602:266460:0]          mpool.c:43   UCX  WARN  object 0x2adffc0 was not returned to mpool ucp_requests
[1622174117.820735] [holy7c16602:266462:0]          mpool.c:43   UCX  WARN  object 0x294f1c0 was not returned to mpool ucp_requests
[1622174117.820762] [holy7c16602:266462:0]          mpool.c:43   UCX  WARN  object 0x294fc40 was not returned to mpool ucp_requests
[1622174117.842740] [holy7c16601:19322:0]          mpool.c:43   UCX  WARN  object 0x363a540 was not returned to mpool ucp_requests
[1622174117.844832] [holy7c16601:19318:0]          mpool.c:43   UCX  WARN  object 0x3ef1480 was not returned to mpool ucp_requests
[1622174117.845168] [holy7c16601:19320:0]          mpool.c:43   UCX  WARN  object 0x30c27c0 was not returned to mpool ucp_requests
[1622174117.845188] [holy7c16601:19320:0]          mpool.c:43   UCX  WARN  object 0x30c2b40 was not returned to mpool ucp_requests
