
     Program PWSCF v.6.5 starts on 27May2021 at 23:51:38 

     This program is part of the open-source Quantum ESPRESSO suite
     for quantum simulation of materials; please cite
         "P. Giannozzi et al., J. Phys.:Condens. Matter 21 395502 (2009);
         "P. Giannozzi et al., J. Phys.:Condens. Matter 29 465901 (2017);
          URL http://www.quantum-espresso.org", 
     in publications or presentations arising from this work. More details at
     http://www.quantum-espresso.org/quote

     Parallel version (MPI), running on    32 processors

     MPI processes distributed on    18 nodes
     R & G space division:  proc/nbgrp/npool/nimage =      32
     Reading input from YCBCO50_212_CuO_cleave_1.25_sep.pwi
Warning: card &IONS ignored
Warning: card     ION_DYNAMICS = 'BFGS' ignored
Warning: card / ignored
Warning: card &CELL ignored
Warning: card     CELL_DYNAMICS = 'BFGS' ignored
Warning: card     PRESS_CONV_THR = 5 ignored
Warning: card / ignored

     Current dimensions of program PWSCF are:
     Max number of different atomic species (ntypx) = 10
     Max number of k-points (npk) =  40000
     Max angular momentum in pseudopotentials (lmaxx) =  3

     Subspace diagonalization in iterative solution of the eigenvalue problem:
     one sub-group per band group will be used
     scalapack distributed-memory algorithm (size of sub-group:  5*  5 procs)

     Message from routine setup:
     using ibrav=0 with symmetry is DISCOURAGED, use correct ibrav instead
 
     Parallelization info
     --------------------
     sticks:   dense  smooth     PW     G-vecs:    dense   smooth      PW
     Min         188      62     17                91380    17574    2621
     Max         189      63     18                91410    17621    2660
     Sum        6019    2003    565              2924709   563163   84677
 


     bravais-lattice index     =            0
     lattice parameter (alat)  =      14.8133  a.u.
     unit-cell volume          =    8964.7417 (a.u.)^3
     number of atoms/cell      =           56
     number of atomic types    =            5
     number of electrons       =       456.00
     number of Kohn-Sham states=          274
     kinetic-energy cutoff     =      60.0000  Ry
     charge density cutoff     =     720.0000  Ry
     convergence threshold     =      1.0E-08
     mixing beta               =       0.5000
     number of iterations used =           10  local-TF  mixing
     Exchange-correlation= SLA PW PBE PBE
                           (   1   4   3   4   0   0   0)

     celldm(1)=  14.813271  celldm(2)=   0.000000  celldm(3)=   0.000000
     celldm(4)=   0.000000  celldm(5)=   0.000000  celldm(6)=   0.000000

     crystal axes: (cart. coord. in units of alat)
               a(1) = (   1.000000   0.000000   0.000000 )  
               a(2) = (   0.000000   0.477453   0.000000 )  
               a(3) = (   0.000000   0.000000   5.776363 )  

     reciprocal axes: (cart. coord. in units 2 pi/alat)
               b(1) = (  1.000000  0.000000  0.000000 )  
               b(2) = (  0.000000  2.094448  0.000000 )  
               b(3) = (  0.000000  0.000000  0.173119 )  


     PseudoPot. # 1 for Ba read from file:
     ./pseudo/Ba.pbe-nsp-van.UPF
     MD5 check sum: 2b9c31dd849566dd297d80989662b7a0
     Pseudo is Ultrasoft + core correction, Zval = 10.0
     Generated by new atomic code, or converted to UPF format
     Using radial grid of  907 points,  6 beta functions with: 
                l(1) =   0
                l(2) =   0
                l(3) =   1
                l(4) =   1
                l(5) =   2
                l(6) =   2
     Q(r) pseudized with  6 coefficients,  rinner =    1.200   1.200   1.200
                                                       1.200   1.200

     PseudoPot. # 2 for Ca read from file:
     ./pseudo/Ca.pbe-nsp-van.UPF
     MD5 check sum: 6471098428ff4fa451746d08035ff179
     Pseudo is Ultrasoft + core correction, Zval = 10.0
     Generated by new atomic code, or converted to UPF format
     Using radial grid of  845 points,  6 beta functions with: 
                l(1) =   0
                l(2) =   0
                l(3) =   1
                l(4) =   1
                l(5) =   2
                l(6) =   2
     Q(r) pseudized with  6 coefficients,  rinner =    1.200   1.200   1.200
                                                       1.200   1.200

     PseudoPot. # 3 for Cu read from file:
     ./pseudo/Cu.pbe-n-van_ak.UPF
     MD5 check sum: 34e3282627ffb533726feb647e090d62
     Pseudo is Ultrasoft + core correction, Zval = 11.0
     Generated by new atomic code, or converted to UPF format
     Using radial grid of  867 points,  6 beta functions with: 
                l(1) =   0
                l(2) =   0
                l(3) =   1
                l(4) =   1
                l(5) =   2
                l(6) =   2
     Q(r) pseudized with  8 coefficients,  rinner =    1.400   1.400   1.400
                                                       1.400   1.400

     PseudoPot. # 4 for O  read from file:
     ./pseudo/O.pbe-van_ak.UPF
     MD5 check sum: 783ce7fe4c79b6a4916957118fed0856
     Pseudo is Ultrasoft, Zval =  6.0
     Generated by new atomic code, or converted to UPF format
     Using radial grid of  737 points,  4 beta functions with: 
                l(1) =   0
                l(2) =   0
                l(3) =   1
                l(4) =   1
     Q(r) pseudized with  8 coefficients,  rinner =    0.800   0.800   0.800


     PseudoPot. # 5 for Y  read from file:
     ./pseudo/Y.pbe-nsp-van.UPF
     MD5 check sum: 4412fed3ab108fed87a1b7d6a69a4a38
     Pseudo is Ultrasoft + core correction, Zval = 11.0
     Generated by new atomic code, or converted to UPF format
     Using radial grid of  885 points,  6 beta functions with: 
                l(1) =   0
                l(2) =   0
                l(3) =   1
                l(4) =   1
                l(5) =   2
                l(6) =   2
     Q(r) pseudized with  6 coefficients,  rinner =    1.200   1.200   1.200
                                                       1.200   1.200

     atomic species   valence    mass     pseudopotential
        Ba            10.00   137.32700     Ba( 1.00)
        Ca            10.00    40.07800     Ca( 1.00)
        Cu            11.00    63.54600     Cu( 1.00)
        O              6.00    15.99900     O ( 1.00)
        Y             11.00    88.90584     Y ( 1.00)

      4 Sym. Ops. (no inversion) found ( 2 have fractional translation)



   Cartesian axes

     site n.     atom                  positions (alat units)
         1           O   tau(   1) = (  -0.0008343   0.2387265  -0.0222443  )
         2           O   tau(   2) = (   0.5008340   0.2387265  -0.0222443  )
         3           Cu  tau(   3) = (   0.5017257   0.0000000   0.0109608  )
         4           Cu  tau(   4) = (  -0.0017260   0.0000000   0.0109608  )
         5           O   tau(   5) = (  -0.0028933   0.0000000   0.2506504  )
         6           O   tau(   6) = (   0.5028929   0.0000000   0.2506504  )
         7           Ba  tau(   7) = (   0.7499995   0.2387265   0.2749435  )
         8           Ba  tau(   8) = (   0.2499998   0.2387265   0.2755214  )
         9           Cu  tau(   9) = (   0.4980963   0.0000000   0.5208446  )
        10           Cu  tau(  10) = (   0.0019033   0.0000000   0.5208446  )
        11           O   tau(  11) = (   0.2499998   0.0000000   0.5341884  )
        12           O   tau(  12) = (   0.5083351   0.2387265   0.5569851  )
        13           O   tau(  13) = (  -0.0083354   0.2387265   0.5569851  )
        14           O   tau(  14) = (   0.7499995   0.0000000   0.5573831  )
        15           Ca  tau(  15) = (   0.2499998   0.2387265   0.7436937  )
        16           Y   tau(  16) = (   0.7499995   0.2387265   0.7469544  )
        17           O   tau(  17) = (  -0.0063798   0.2387265   0.9248530  )
        18           O   tau(  18) = (   0.5063794   0.2387265   0.9248530  )
        19           O   tau(  19) = (   0.7499995   0.0000000   0.9338544  )
        20           O   tau(  20) = (   0.2499998   0.0000000   0.9461329  )
        21           Cu  tau(  21) = (   0.0015717   0.0000000   0.9686860  )
        22           Cu  tau(  22) = (   0.4984280   0.0000000   0.9686860  )
        23           Ba  tau(  23) = (   0.2499998   0.2387265   1.2085224  )
        24           Ba  tau(  24) = (   0.7499995   0.2387265   1.2233294  )
        25           O   tau(  25) = (   0.0063772   0.0000000   1.2547537  )
        26           O   tau(  26) = (   0.4936224   0.0000000   1.2547537  )
        27           O   tau(  27) = (   0.5384045   0.2387265   1.4952521  )
        28           O   tau(  28) = (  -0.0384049   0.2387265   1.4952521  )
        29           Cu  tau(  29) = (   0.5006120   0.0000000   1.4952546  )
        30           Cu  tau(  30) = (  -0.0006123   0.0000000   1.4952546  )
        31           O   tau(  31) = (   0.4936212   0.0000000   1.8952153  )
        32           O   tau(  32) = (   0.0063785   0.0000000   1.8952153  )
        33           Ba  tau(  33) = (   0.7499995   0.2387265   1.9266447  )
        34           Ba  tau(  34) = (   0.2499998   0.2387265   1.9414543  )
        35           Cu  tau(  35) = (   0.4984280   0.0000000   2.1812855  )
        36           Cu  tau(  36) = (   0.0015717   0.0000000   2.1812855  )
        37           O   tau(  37) = (   0.2499998   0.0000000   2.2038437  )
        38           O   tau(  38) = (   0.7499995   0.0000000   2.2161133  )
        39           O   tau(  39) = (   0.5063781   0.2387265   2.2251185  )
        40           O   tau(  40) = (  -0.0063785   0.2387265   2.2251185  )
        41           Y   tau(  41) = (   0.7499995   0.2387265   2.4030120  )
        42           Ca  tau(  42) = (   0.2499998   0.2387265   2.4062816  )
        43           O   tau(  43) = (   0.7499995   0.0000000   2.5925795  )
        44           O   tau(  44) = (  -0.0083354   0.2387265   2.5929813  )
        45           O   tau(  45) = (   0.5083351   0.2387265   2.5929813  )
        46           O   tau(  46) = (   0.2499998   0.0000000   2.6157793  )
        47           Cu  tau(  47) = (   0.0019059   0.0000000   2.6291129  )
        48           Cu  tau(  48) = (   0.4980938   0.0000000   2.6291129  )
        49           Ba  tau(  49) = (   0.2499998   0.2387265   2.8744526  )
        50           Ba  tau(  50) = (   0.7499995   0.2387265   2.8749948  )
        51           O   tau(  51) = (  -0.0028895   0.0000000   2.8993020  )
        52           O   tau(  52) = (   0.5028891   0.0000000   2.8993020  )
        53           Cu  tau(  53) = (   0.5017844   0.0000000   3.1389865  )
        54           Cu  tau(  54) = (  -0.0017847   0.0000000   3.1389865  )
        55           O   tau(  55) = (   0.5008990   0.2387265   3.1721929  )
        56           O   tau(  56) = (  -0.0008994   0.2387265   3.1721929  )

     number of k points=    25  Gaussian smearing, width (Ry)=  0.0100
                       cart. coord. in units 2pi/alat
        k(    1) = (   0.0000000   0.0000000   0.0000000), wk =   0.0312500
        k(    2) = (   0.0000000   0.2618060   0.0000000), wk =   0.0625000
        k(    3) = (   0.0000000   0.5236121   0.0000000), wk =   0.0625000
        k(    4) = (   0.0000000   0.7854181   0.0000000), wk =   0.0625000
        k(    5) = (   0.0000000  -1.0472241   0.0000000), wk =   0.0312500
        k(    6) = (   0.1250000   0.0000000   0.0000000), wk =   0.0625000
        k(    7) = (   0.1250000   0.2618060   0.0000000), wk =   0.1250000
        k(    8) = (   0.1250000   0.5236121   0.0000000), wk =   0.1250000
        k(    9) = (   0.1250000   0.7854181   0.0000000), wk =   0.1250000
        k(   10) = (   0.1250000  -1.0472241   0.0000000), wk =   0.0625000
        k(   11) = (   0.2500000   0.0000000   0.0000000), wk =   0.0625000
        k(   12) = (   0.2500000   0.2618060   0.0000000), wk =   0.1250000
        k(   13) = (   0.2500000   0.5236121   0.0000000), wk =   0.1250000
        k(   14) = (   0.2500000   0.7854181   0.0000000), wk =   0.1250000
        k(   15) = (   0.2500000  -1.0472241   0.0000000), wk =   0.0625000
        k(   16) = (   0.3750000   0.0000000   0.0000000), wk =   0.0625000
        k(   17) = (   0.3750000   0.2618060   0.0000000), wk =   0.1250000
        k(   18) = (   0.3750000   0.5236121   0.0000000), wk =   0.1250000
        k(   19) = (   0.3750000   0.7854181   0.0000000), wk =   0.1250000
        k(   20) = (   0.3750000  -1.0472241   0.0000000), wk =   0.0625000
        k(   21) = (  -0.5000000   0.0000000   0.0000000), wk =   0.0312500
        k(   22) = (  -0.5000000   0.2618060   0.0000000), wk =   0.0625000
        k(   23) = (  -0.5000000   0.5236121   0.0000000), wk =   0.0625000
        k(   24) = (  -0.5000000   0.7854181   0.0000000), wk =   0.0625000
        k(   25) = (  -0.5000000  -1.0472241   0.0000000), wk =   0.0312500

     Dense  grid:  2924709 G-vectors     FFT dimensions: ( 128,  64, 750)

     Smooth grid:   563163 G-vectors     FFT dimensions: (  80,  36, 432)

     Estimated max dynamical RAM per process >     847.57 MB

     Estimated total dynamical RAM >      26.49 GB

     Initial potential from superposition of free atoms

     starting charge  455.69457, renormalised to  456.00000

     negative rho (up, down):  9.326E-02 0.000E+00
     Starting wfcs are  396 randomized atomic wfcs

     total cpu time spent up to now is       27.0 secs

     Self-consistent Calculation

     iteration #  1     ecut=    60.00 Ry     beta= 0.50
     Davidson diagonalization with overlap
     ethr =  1.00E-02,  avg # of iterations =  2.0

     negative rho (up, down):  8.609E-02 0.000E+00

     total cpu time spent up to now is       74.7 secs

     total energy              =   -3708.25660754 Ry
     Harris-Foulkes estimate   =   -3716.37958796 Ry
     estimated scf accuracy    <      30.75957795 Ry

     iteration #  2     ecut=    60.00 Ry     beta= 0.50
     Davidson diagonalization with overlap
     ethr =  6.75E-03,  avg # of iterations =  2.0

     negative rho (up, down):  8.581E-02 0.000E+00

     total cpu time spent up to now is      121.4 secs

     total energy              =   -3710.99345758 Ry
     Harris-Foulkes estimate   =   -3712.24593204 Ry
     estimated scf accuracy    <       6.25343021 Ry

     iteration #  3     ecut=    60.00 Ry     beta= 0.50
     Davidson diagonalization with overlap
     ethr =  1.37E-03,  avg # of iterations =  2.0

     negative rho (up, down):  8.622E-02 0.000E+00

     total cpu time spent up to now is      168.2 secs

     total energy              =   -3711.53356886 Ry
     Harris-Foulkes estimate   =   -3711.90964820 Ry
     estimated scf accuracy    <       7.90506875 Ry

     iteration #  4     ecut=    60.00 Ry     beta= 0.50
     Davidson diagonalization with overlap
     ethr =  1.37E-03,  avg # of iterations =  1.0

     negative rho (up, down):  8.722E-02 0.000E+00

     total cpu time spent up to now is      210.2 secs

     total energy              =   -3711.59663003 Ry
     Harris-Foulkes estimate   =   -3711.73024283 Ry
     estimated scf accuracy    <       1.40518031 Ry

     iteration #  5     ecut=    60.00 Ry     beta= 0.50
     Davidson diagonalization with overlap
     ethr =  3.08E-04,  avg # of iterations =  4.5

     negative rho (up, down):  8.834E-02 0.000E+00

     total cpu time spent up to now is      261.6 secs

     total energy              =   -3711.59081454 Ry
     Harris-Foulkes estimate   =   -3711.65492687 Ry
     estimated scf accuracy    <       0.66712503 Ry

     iteration #  6     ecut=    60.00 Ry     beta= 0.50
     Davidson diagonalization with overlap
     ethr =  1.46E-04,  avg # of iterations =  8.7

     negative rho (up, down):  8.910E-02 0.000E+00

     total cpu time spent up to now is      327.6 secs

     total energy              =   -3711.60632472 Ry
     Harris-Foulkes estimate   =   -3711.62922675 Ry
     estimated scf accuracy    <       1.82095400 Ry

     iteration #  7     ecut=    60.00 Ry     beta= 0.50
     Davidson diagonalization with overlap
     ethr =  1.46E-04,  avg # of iterations =  1.3

     negative rho (up, down):  9.000E-02 0.000E+00

     total cpu time spent up to now is      370.1 secs

     total energy              =   -3711.59659251 Ry
     Harris-Foulkes estimate   =   -3711.61487321 Ry
     estimated scf accuracy    <       0.83812430 Ry

     iteration #  8     ecut=    60.00 Ry     beta= 0.50
     Davidson diagonalization with overlap
     ethr =  1.46E-04,  avg # of iterations =  1.1

     negative rho (up, down):  9.028E-02 0.000E+00

     total cpu time spent up to now is      412.6 secs

     total energy              =   -3711.59727937 Ry
     Harris-Foulkes estimate   =   -3711.60433897 Ry
     estimated scf accuracy    <       0.56187215 Ry

     iteration #  9     ecut=    60.00 Ry     beta= 0.50
     Davidson diagonalization with overlap
     ethr =  1.23E-04,  avg # of iterations =  1.0

     negative rho (up, down):  9.048E-02 0.000E+00

     total cpu time spent up to now is      454.6 secs

     total energy              =   -3711.59314287 Ry
     Harris-Foulkes estimate   =   -3711.59981989 Ry
     estimated scf accuracy    <       0.32986596 Ry

     iteration # 10     ecut=    60.00 Ry     beta= 0.50
     Davidson diagonalization with overlap
     ethr =  7.23E-05,  avg # of iterations =  2.8

     negative rho (up, down):  9.035E-02 0.000E+00

     total cpu time spent up to now is      501.6 secs

     total energy              =   -3711.58850651 Ry
     Harris-Foulkes estimate   =   -3711.59476404 Ry
     estimated scf accuracy    <       0.21201235 Ry

     iteration # 11     ecut=    60.00 Ry     beta= 0.50
     Davidson diagonalization with overlap
     ethr =  4.65E-05,  avg # of iterations =  7.1

     negative rho (up, down):  9.006E-02 0.000E+00

     total cpu time spent up to now is      561.3 secs

     total energy              =   -3711.58168099 Ry
     Harris-Foulkes estimate   =   -3711.58965715 Ry
     estimated scf accuracy    <       0.19441763 Ry

     iteration # 12     ecut=    60.00 Ry     beta= 0.50
     Davidson diagonalization with overlap
     ethr =  4.26E-05,  avg # of iterations =  5.2

     negative rho (up, down):  8.986E-02 0.000E+00

     total cpu time spent up to now is      615.8 secs

     total energy              =   -3711.58214543 Ry
     Harris-Foulkes estimate   =   -3711.58335995 Ry
     estimated scf accuracy    <       0.06745437 Ry

     iteration # 13     ecut=    60.00 Ry     beta= 0.50
     Davidson diagonalization with overlap
     ethr =  1.48E-05,  avg # of iterations =  6.8

     negative rho (up, down):  9.182E-02 0.000E+00

     total cpu time spent up to now is      674.9 secs

     total energy              =   -3711.57965122 Ry
     Harris-Foulkes estimate   =   -3711.58253696 Ry
     estimated scf accuracy    <       0.06121384 Ry

     iteration # 14     ecut=    60.00 Ry     beta= 0.50
     Davidson diagonalization with overlap
     ethr =  1.34E-05,  avg # of iterations =  4.8

     negative rho (up, down):  9.626E-02 0.000E+00

     total cpu time spent up to now is      727.2 secs

     total energy              =   -3711.57875853 Ry
     Harris-Foulkes estimate   =   -3711.58009373 Ry
     estimated scf accuracy    <       0.05511038 Ry

     iteration # 15     ecut=    60.00 Ry     beta= 0.50
     Davidson diagonalization with overlap
     ethr =  1.21E-05,  avg # of iterations =  3.3

     negative rho (up, down):  1.104E-01 0.000E+00

     total cpu time spent up to now is      776.1 secs

     total energy              =   -3711.57664312 Ry
     Harris-Foulkes estimate   =   -3711.57896873 Ry
     estimated scf accuracy    <       0.06145403 Ry

     iteration # 16     ecut=    60.00 Ry     beta= 0.50
     Davidson diagonalization with overlap
     ethr =  1.21E-05,  avg # of iterations =  8.0

     negative rho (up, down):  1.330E-01 0.000E+00

     total cpu time spent up to now is      839.5 secs

     total energy              =   -3711.57468193 Ry
     Harris-Foulkes estimate   =   -3711.57693008 Ry
     estimated scf accuracy    <       0.02302596 Ry

     iteration # 17     ecut=    60.00 Ry     beta= 0.50
     Davidson diagonalization with overlap
     ethr =  5.05E-06,  avg # of iterations =  9.4

     negative rho (up, down):  1.303E-01 0.000E+00

     total cpu time spent up to now is      910.9 secs

     total energy              =   -3711.57410551 Ry
     Harris-Foulkes estimate   =   -3711.57513503 Ry
     estimated scf accuracy    <       0.00558043 Ry

     iteration # 18     ecut=    60.00 Ry     beta= 0.50
     Davidson diagonalization with overlap
     c_bands:  1 eigenvalues not converged
     ethr =  1.22E-06,  avg # of iterations =  9.6

     negative rho (up, down):  1.157E-01 0.000E+00

     total cpu time spent up to now is      978.1 secs

     total energy              =   -3711.57315923 Ry
     Harris-Foulkes estimate   =   -3711.57422993 Ry
     estimated scf accuracy    <       0.00455043 Ry

     iteration # 19     ecut=    60.00 Ry     beta= 0.50
     Davidson diagonalization with overlap
     c_bands:  1 eigenvalues not converged
     ethr =  9.98E-07,  avg # of iterations =  8.4

     negative rho (up, down):  1.135E-01 0.000E+00

     total cpu time spent up to now is     1043.0 secs

     total energy              =   -3711.57276279 Ry
     Harris-Foulkes estimate   =   -3711.57325184 Ry
     estimated scf accuracy    <       0.00257901 Ry

     iteration # 20     ecut=    60.00 Ry     beta= 0.50
     Davidson diagonalization with overlap
     ethr =  5.66E-07,  avg # of iterations = 10.6

     negative rho (up, down):  1.028E-01 0.000E+00

     total cpu time spent up to now is     1118.6 secs

     total energy              =   -3711.57262948 Ry
     Harris-Foulkes estimate   =   -3711.57286550 Ry
     estimated scf accuracy    <       0.00127286 Ry

     iteration # 21     ecut=    60.00 Ry     beta= 0.50
     Davidson diagonalization with overlap
     c_bands:  1 eigenvalues not converged
     c_bands:  1 eigenvalues not converged
     c_bands:  1 eigenvalues not converged
     c_bands:  1 eigenvalues not converged
     ethr =  2.79E-07,  avg # of iterations =  9.5

     negative rho (up, down):  9.438E-02 0.000E+00

     total cpu time spent up to now is     1184.8 secs

     total energy              =   -3711.57261476 Ry
     Harris-Foulkes estimate   =   -3711.57266311 Ry
     estimated scf accuracy    <       0.00027965 Ry

     iteration # 22     ecut=    60.00 Ry     beta= 0.50
     Davidson diagonalization with overlap
     c_bands:  1 eigenvalues not converged
     c_bands:  1 eigenvalues not converged
     c_bands:  1 eigenvalues not converged
     c_bands:  1 eigenvalues not converged
     c_bands:  1 eigenvalues not converged
     c_bands:  1 eigenvalues not converged
     c_bands:  1 eigenvalues not converged
     ethr =  6.13E-08,  avg # of iterations = 12.3

     negative rho (up, down):  9.159E-02 0.000E+00

     total cpu time spent up to now is     1260.7 secs

     total energy              =   -3711.57264925 Ry
     Harris-Foulkes estimate   =   -3711.57262729 Ry
     estimated scf accuracy    <       0.00016307 Ry

     iteration # 23     ecut=    60.00 Ry     beta= 0.50
     Davidson diagonalization with overlap
     c_bands:  1 eigenvalues not converged
     c_bands:  1 eigenvalues not converged
     c_bands:  2 eigenvalues not converged
     c_bands:  1 eigenvalues not converged
     c_bands:  2 eigenvalues not converged
     ethr =  3.58E-08,  avg # of iterations =  8.6

     negative rho (up, down):  9.158E-02 0.000E+00

     total cpu time spent up to now is     1324.8 secs

     total energy              =   -3711.57268202 Ry
     Harris-Foulkes estimate   =   -3711.57265592 Ry
     estimated scf accuracy    <       0.00003726 Ry

     iteration # 24     ecut=    60.00 Ry     beta= 0.50
     Davidson diagonalization with overlap
     c_bands:  2 eigenvalues not converged
     c_bands:  1 eigenvalues not converged
     c_bands:  2 eigenvalues not converged
     ethr =  8.17E-09,  avg # of iterations =  6.7

     negative rho (up, down):  9.199E-02 0.000E+00

     total cpu time spent up to now is     1382.9 secs

     total energy              =   -3711.57268461 Ry
     Harris-Foulkes estimate   =   -3711.57268376 Ry
     estimated scf accuracy    <       0.00001231 Ry

     iteration # 25     ecut=    60.00 Ry     beta= 0.50
     Davidson diagonalization with overlap
     ethr =  2.70E-09,  avg # of iterations =  2.9

     negative rho (up, down):  9.195E-02 0.000E+00

     total cpu time spent up to now is     1429.9 secs

     total energy              =   -3711.57268521 Ry
     Harris-Foulkes estimate   =   -3711.57268538 Ry
     estimated scf accuracy    <       0.00000934 Ry

     iteration # 26     ecut=    60.00 Ry     beta= 0.50
     Davidson diagonalization with overlap
     ethr =  2.05E-09,  avg # of iterations =  1.1

     negative rho (up, down):  9.185E-02 0.000E+00

     total cpu time spent up to now is     1471.7 secs

     total energy              =   -3711.57268545 Ry
     Harris-Foulkes estimate   =   -3711.57268541 Ry
     estimated scf accuracy    <       0.00000600 Ry

     iteration # 27     ecut=    60.00 Ry     beta= 0.50
     Davidson diagonalization with overlap
     ethr =  1.32E-09,  avg # of iterations =  1.0

     negative rho (up, down):  9.186E-02 0.000E+00

     total cpu time spent up to now is     1513.3 secs

     total energy              =   -3711.57268552 Ry
     Harris-Foulkes estimate   =   -3711.57268558 Ry
     estimated scf accuracy    <       0.00000221 Ry

     iteration # 28     ecut=    60.00 Ry     beta= 0.50
     Davidson diagonalization with overlap
     ethr =  4.85E-10,  avg # of iterations =  1.9

     negative rho (up, down):  9.186E-02 0.000E+00

     total cpu time spent up to now is     1558.0 secs

     total energy              =   -3711.57268553 Ry
     Harris-Foulkes estimate   =   -3711.57268558 Ry
     estimated scf accuracy    <       0.00000092 Ry

     iteration # 29     ecut=    60.00 Ry     beta= 0.50
     Davidson diagonalization with overlap
     ethr =  2.03E-10,  avg # of iterations =  1.8

     negative rho (up, down):  9.193E-02 0.000E+00

     total cpu time spent up to now is     1603.1 secs

     total energy              =   -3711.57268543 Ry
     Harris-Foulkes estimate   =   -3711.57268557 Ry
     estimated scf accuracy    <       0.00000023 Ry

     iteration # 30     ecut=    60.00 Ry     beta= 0.50
     Davidson diagonalization with overlap
     ethr =  5.04E-11,  avg # of iterations =  3.1

     negative rho (up, down):  9.198E-02 0.000E+00

     total cpu time spent up to now is     1653.7 secs

     total energy              =   -3711.57268537 Ry
     Harris-Foulkes estimate   =   -3711.57268545 Ry
     estimated scf accuracy    <       0.00000023 Ry

     iteration # 31     ecut=    60.00 Ry     beta= 0.50
     Davidson diagonalization with overlap
     ethr =  4.96E-11,  avg # of iterations =  1.0

     negative rho (up, down):  9.199E-02 0.000E+00

     total cpu time spent up to now is     1698.9 secs

     total energy              =   -3711.57268536 Ry
     Harris-Foulkes estimate   =   -3711.57268538 Ry
     estimated scf accuracy    <       0.00000003 Ry

     iteration # 32     ecut=    60.00 Ry     beta= 0.50
     Davidson diagonalization with overlap
     ethr =  6.78E-12,  avg # of iterations =  2.9

     negative rho (up, down):  9.198E-02 0.000E+00

     total cpu time spent up to now is     1747.6 secs

     total energy              =   -3711.57268538 Ry
     Harris-Foulkes estimate   =   -3711.57268537 Ry
     estimated scf accuracy    <       0.00000002 Ry

     iteration # 33     ecut=    60.00 Ry     beta= 0.50
     Davidson diagonalization with overlap
     ethr =  5.25E-12,  avg # of iterations =  1.0

     negative rho (up, down):  9.197E-02 0.000E+00

     total cpu time spent up to now is     1789.3 secs

     total energy              =   -3711.57268538 Ry
     Harris-Foulkes estimate   =   -3711.57268538 Ry
     estimated scf accuracy    <       0.00000001 Ry

     iteration # 34     ecut=    60.00 Ry     beta= 0.50
     Davidson diagonalization with overlap
     ethr =  2.84E-12,  avg # of iterations =  1.0

     negative rho (up, down):  9.197E-02 0.000E+00

     total cpu time spent up to now is     1830.2 secs

     End of self-consistent calculation

          k = 0.0000 0.0000 0.0000 ( 70419 PWs)   bands (ev):

   -38.1930 -38.1419 -35.8254 -35.7655 -22.9468 -22.9378 -22.8185 -22.8096
   -22.8082 -22.7577 -22.5913 -22.3527 -18.6663 -18.6223 -18.5657 -18.5155
   -18.1967 -18.1450 -17.1717 -17.1137 -17.0382 -16.9819 -16.8563 -16.7938
   -15.5715 -15.5363 -15.1179 -15.1022 -14.8834 -14.7898 -14.7198 -14.7135
   -14.6825 -14.6435 -14.5941 -14.5846 -14.5746 -14.5241 -14.4328 -14.4275
   -14.2573 -14.2231 -14.1448 -14.1225 -14.1138 -14.1128 -14.1074 -14.0986
   -14.0591 -13.9932 -13.8875 -13.8236 -13.0406 -12.5866  -8.1855  -8.1776
    -8.1097  -8.0771  -8.0665  -8.0005  -7.9960  -7.9875  -7.8675  -7.8579
    -7.8491  -7.7659  -7.7614  -7.7529  -7.6868  -7.6474  -7.6419  -7.6200
    -7.6112  -7.5869  -7.5547  -7.4097  -7.2053  -7.0990  -3.1224  -3.1044
    -2.9974  -2.9154  -2.3004  -2.2952  -2.2119  -2.2081  -2.2027  -2.1733
    -2.0537  -2.0069  -2.0047  -1.9757  -1.9639  -1.9126  -1.9092  -1.8619
    -1.8365  -1.8067  -1.7950  -1.7497  -1.6887  -1.6425  -1.4975  -1.4728
    -1.3001  -1.2609  -1.2397  -1.2293  -1.1577  -1.0970  -1.0547  -1.0466
    -1.0457  -1.0425  -1.0395  -1.0375  -1.0084  -1.0074  -0.9378  -0.8740
    -0.8209  -0.8151  -0.5625  -0.5186  -0.4626  -0.3955  -0.3824  -0.3760
    -0.3685  -0.3679  -0.3422  -0.3256  -0.3145  -0.2940  -0.2625  -0.2577
    -0.2567  -0.2564  -0.2314  -0.1890  -0.1665  -0.1529  -0.0989  -0.0819
    -0.0696  -0.0686  -0.0597  -0.0569   0.0072   0.0122   0.0298   0.0483
     0.0507   0.0508   0.0530   0.0556   0.1483   0.1547   0.1877   0.1910
     0.1940   0.2137   0.2433   0.2770   0.2838   0.2966   0.3537   0.3923
     0.4356   0.4579   0.4595   0.4784   0.4841   0.4860   0.4907   0.5161
     0.6594   0.6802   0.7411   0.8234   0.8252   0.8660   0.9128   0.9225
     0.9432   0.9634   0.9642   1.0049   1.0942   1.1173   1.1355   1.1435
     1.1444   1.1515   1.1534   1.1664   1.2404   1.2617   1.2670   1.3006
     1.3086   1.3231   1.3347   1.3569   1.3958   1.3977   1.4882   1.5304
     1.5494   1.5786   1.6423   1.6478   1.6788   1.7149   1.7211   1.7247
     1.7766   1.7805   1.7992   1.8175   1.8739   1.9852   1.9952   2.0886
     2.1610   2.1627   2.2973   2.3260   2.3415   2.3884   2.3974   2.4896
     2.5095   2.5368   2.5642   2.5775   2.7926   2.8313   5.0439   5.1626
     5.2093   5.8468   5.9593   6.5356   6.5592   6.6752   6.8447   6.9736
     7.2030   7.2134   7.2978   7.3039   7.3413   7.4696   7.5316   7.9295
     7.9865   8.0300   8.0786   8.0851   8.1916   8.3864   8.4222   8.4494
     8.5156   8.5846   8.6338   8.8023   8.9534   9.0238   9.0985   9.1305
     9.2831   9.2926

          k = 0.0000 0.2618 0.0000 ( 70389 PWs)   bands (ev):

   -38.1903 -38.1392 -35.8237 -35.7638 -22.9223 -22.9132 -22.7994 -22.7905
   -22.7890 -22.7340 -22.5723 -22.3321 -18.6277 -18.5835 -18.5585 -18.5082
   -18.3074 -18.2562 -17.1423 -17.0842 -17.0339 -16.9776 -16.9222 -16.8599
   -15.4655 -15.4304 -15.0620 -15.0463 -14.8312 -14.7517 -14.7156 -14.6785
   -14.6664 -14.5806 -14.5653 -14.5537 -14.5090 -14.4934 -14.3982 -14.3923
   -14.2522 -14.2194 -14.2066 -14.1693 -14.1252 -14.1030 -14.1003 -14.0924
   -14.0916 -14.0295 -13.8792 -13.8651 -12.9953 -12.6495  -8.1788  -8.1698
    -8.1030  -8.0900  -8.0793  -8.0122  -7.9523  -7.9438  -7.9006  -7.8933
    -7.8915  -7.8847  -7.8589  -7.8271  -7.8184  -7.7613  -7.6971  -7.6942
    -7.6881  -7.6665  -7.6213  -7.6178  -7.2897  -7.2238  -3.2302  -3.2013
    -3.0531  -2.9710  -2.4257  -2.4144  -2.3755  -2.3141  -2.3137  -2.3080
    -2.1898  -2.1841  -2.1606  -2.1225  -2.0516  -2.0039  -1.9139  -1.8752
    -1.8428  -1.8375  -1.8019  -1.7744  -1.7498  -1.7307  -1.6165  -1.5768
    -1.5675  -1.5502  -1.4942  -1.4850  -1.4817  -1.4615  -1.4604  -1.4522
    -1.4059  -1.3355  -1.1213  -0.9843  -0.9450  -0.9103  -0.8443  -0.8311
    -0.7715  -0.7075  -0.6951  -0.6879  -0.6338  -0.6214  -0.4735  -0.4678
    -0.4415  -0.4226  -0.4055  -0.3966  -0.3741  -0.3582  -0.3168  -0.3005
    -0.2867  -0.2640  -0.2189  -0.2148  -0.1508  -0.1185  -0.1021  -0.0635
    -0.0608  -0.0562  -0.0278   0.0238   0.0298   0.0798   0.0814   0.0862
     0.1022   0.1172   0.1180   0.1292   0.1765   0.2129   0.2164   0.2325
     0.2427   0.2576   0.2671   0.3010   0.3155   0.3247   0.3397   0.3559
     0.3647   0.3831   0.3928   0.4158   0.5634   0.5915   0.5979   0.6784
     0.6859   0.6983   0.7616   0.7776   0.8711   0.8883   0.8995   0.9343
     1.0054   1.0624   1.0767   1.0870   1.1267   1.1424   1.1462   1.1511
     1.2099   1.2298   1.2394   1.2458   1.2796   1.2957   1.3180   1.3291
     1.3988   1.4166   1.4283   1.4421   1.4550   1.4618   1.4820   1.5826
     1.6125   1.6348   1.6557   1.6736   1.6876   1.6936   1.7475   1.7628
     1.7746   1.7764   1.8016   1.8314   1.8419   1.9339   1.9823   2.0486
     2.2437   2.2707   2.5199   2.5480   2.6906   2.7234   2.7388   2.7928
     2.8114   2.8208   2.8707   2.8899   3.0778   3.1006   5.3534   5.5407
     5.5512   6.1203   6.2024   6.8012   6.8758   6.8815   7.0381   7.0435
     7.0794   7.2174   7.4265   7.5081   7.5929   7.6756   7.6830   7.7354
     7.7474   8.1210   8.1576   8.2785   8.3579   8.5887   8.6252   8.6605
     8.7057   8.7702   8.8083   8.9461   9.0961   9.1605   9.1771   9.2434
     9.2763   9.3049

          k = 0.0000 0.5236 0.0000 ( 70325 PWs)   bands (ev):

   -38.1838 -38.1327 -35.8196 -35.7597 -22.8617 -22.8527 -22.7525 -22.7436
   -22.7421 -22.6755 -22.5257 -22.2816 -18.5480 -18.5410 -18.5276 -18.4975
   -18.4906 -18.4831 -17.0753 -17.0589 -17.0235 -17.0130 -17.0011 -16.9671
   -15.2243 -15.1911 -14.9150 -14.8987 -14.7673 -14.7355 -14.7056 -14.6594
   -14.5888 -14.5578 -14.5334 -14.4399 -14.3625 -14.3456 -14.3431 -14.3135
   -14.3063 -14.2826 -14.2301 -14.2117 -14.1867 -14.1057 -14.0877 -14.0765
   -14.0494 -14.0405 -13.9458 -13.8738 -12.8796 -12.7972  -8.3655  -8.3567
    -8.2058  -8.1973  -8.1591  -8.1420  -8.1326  -8.0832  -8.0710  -8.0615
    -8.0046  -8.0009  -7.9817  -7.9645  -7.9558  -7.8495  -7.8355  -7.8305
    -7.8268  -7.7659  -7.6585  -7.5952  -7.3840  -7.3585  -3.6335  -3.5885
    -3.2923  -3.2135  -2.9190  -2.9000  -2.7666  -2.7091  -2.5397  -2.5295
    -2.4402  -2.4010  -2.3478  -2.3420  -2.3277  -2.3070  -2.3008  -2.2123
    -2.1631  -2.1567  -2.1529  -2.1464  -2.0673  -2.0329  -1.9069  -1.8769
    -1.8545  -1.8431  -1.7813  -1.7371  -1.7127  -1.7092  -1.6677  -1.6653
    -1.3255  -1.2837  -1.1971  -1.0760  -1.0688  -1.0389  -0.9819  -0.9359
    -0.9148  -0.9062  -0.8770  -0.8668  -0.7338  -0.7256  -0.7132  -0.6767
    -0.6491  -0.6399  -0.6397  -0.6189  -0.5859  -0.5791  -0.5293  -0.5088
    -0.4949  -0.4622  -0.4254  -0.4148  -0.4082  -0.3495  -0.3425  -0.3361
    -0.2588  -0.2076  -0.1598  -0.1554  -0.0450  -0.0127   0.0567   0.0706
     0.1347   0.1358   0.1628   0.1869   0.2322   0.2390   0.2558   0.2668
     0.3094   0.3313   0.3442   0.4338   0.5340   0.5644   0.5710   0.5865
     0.6937   0.7435   0.7517   0.7667   0.7899   0.9486   0.9748   0.9762
     0.9940   1.0014   1.0102   1.0359   1.1069   1.1331   1.1746   1.1839
     1.1959   1.2012   1.2030   1.2272   1.2293   1.2994   1.3130   1.3247
     1.3322   1.3564   1.3617   1.3796   1.4001   1.4255   1.4374   1.5028
     1.5131   1.5391   1.5867   1.6021   1.6173   1.6453   1.6494   1.6716
     1.7436   1.7470   1.7476   1.7526   1.7757   1.8015   1.8373   1.8600
     1.8699   1.9011   1.9220   1.9562   2.0056   2.0128   2.0771   2.0982
     2.1412   2.1952   2.4538   2.6473   2.9870   3.0079   3.0229   3.0592
     3.1294   3.1301   3.7350   3.7509   3.8243   3.8514   5.8043   6.4383
     6.4449   6.5555   6.5636   6.8170   6.8865   6.8962   6.9824   7.0445
     7.7324   7.7438   7.8822   8.0080   8.0889   8.1140   8.2278   8.3496
     8.3617   8.5350   8.5586   8.5872   8.6181   8.6550   8.6708   8.8567
     8.9238   8.9544   9.0136   9.0503   9.1746   9.2382   9.2726   9.3602
     9.3702   9.4018

          k = 0.0000 0.7854 0.0000 ( 70318 PWs)   bands (ev):

   -38.1773 -38.1261 -35.8155 -35.7556 -22.7994 -22.7903 -22.7046 -22.6957
   -22.6943 -22.6155 -22.4779 -22.2296 -18.7562 -18.7063 -18.5235 -18.4731
   -18.4225 -18.3775 -17.1969 -17.1346 -17.0131 -16.9860 -16.9567 -16.9283
   -14.9949 -14.9760 -14.8809 -14.8372 -14.7403 -14.7210 -14.6714 -14.6246
   -14.5918 -14.5735 -14.4915 -14.3883 -14.3840 -14.3444 -14.2647 -14.2384
   -14.2295 -14.2222 -14.1833 -14.1795 -14.1544 -14.0976 -14.0347 -14.0245
   -14.0034 -13.9986 -13.9940 -13.9124 -12.9371 -12.7532  -8.7605  -8.7517
    -8.5440  -8.5009  -8.4924  -8.3595  -8.2617  -8.1457  -8.1363  -8.1168
    -8.0768  -8.0685  -8.0572  -8.0337  -8.0249  -8.0228  -7.8703  -7.7839
    -7.7144  -7.7057  -7.6829  -7.4831  -7.4594  -7.3079  -4.1196  -4.0746
    -3.6962  -3.6225  -3.3226  -3.3068  -3.1314  -3.0690  -2.9224  -2.9147
    -2.8805  -2.8562  -2.8484  -2.7779  -2.6802  -2.6739  -2.5682  -2.5219
    -2.4352  -2.3973  -2.2700  -2.2656  -2.2029  -2.1990  -1.9752  -1.9259
    -1.8957  -1.8676  -1.8607  -1.8532  -1.7508  -1.7232  -1.5810  -1.5433
    -1.5375  -1.3038  -1.2997  -1.2648  -1.2091  -1.1509  -1.1466  -1.1012
    -1.0819  -1.0746  -1.0324  -1.0278  -0.9863  -0.9476  -0.9338  -0.8721
    -0.8614  -0.8516  -0.8266  -0.8062  -0.7981  -0.7852  -0.7821  -0.7555
    -0.6805  -0.6638  -0.6570  -0.6362  -0.6314  -0.6034  -0.4997  -0.2746
    -0.2678  -0.1998  -0.1946  -0.1838  -0.1180  -0.0614  -0.0559   0.0841
     0.1403   0.1561   0.1692   0.1807   0.2039   0.2407   0.2449   0.2772
     0.3965   0.4418   0.4720   0.5173   0.7371   0.7404   0.8069   0.8363
     0.9082   0.9402   0.9895   0.9945   1.0003   1.0137   1.1345   1.1477
     1.1691   1.2037   1.2130   1.2264   1.2386   1.2593   1.2669   1.3189
     1.3339   1.3354   1.3826   1.4080   1.4842   1.5040   1.5124   1.5199
     1.5480   1.6257   1.6284   1.6369   1.6380   1.6646   1.6721   1.6755
     1.6930   1.7378   1.7427   1.7597   1.7832   1.7864   1.8054   1.8229
     1.8372   1.8734   1.8960   1.9003   1.9409   1.9519   1.9676   2.0240
     2.0700   2.1792   2.1858   2.1936   2.1949   2.2076   2.3083   2.4098
     2.4172   2.4841   2.4892   2.5718   2.8348   2.8772   2.9290   2.9763
     3.1208   3.1857   4.3684   4.3917   4.4311   4.4473   5.8122   6.0262
     6.0324   6.6257   6.7052   7.2434   7.3638   7.3758   7.7050   7.7598
     8.2125   8.2816   8.3485   8.4177   8.4229   8.5068   8.5489   8.6725
     8.7083   8.7512   8.8058   8.8523   8.9459   8.9499   8.9695   9.0835
     9.1606   9.1699   9.2291   9.2714   9.3308   9.3844   9.3980   9.4901
     9.5613   9.5881

          k = 0.0000-1.0472 0.0000 ( 70362 PWs)   bands (ev):

   -38.1745 -38.1234 -35.8138 -35.7539 -22.7730 -22.7639 -22.6844 -22.6755
   -22.6742 -22.5902 -22.4577 -22.2077 -18.8367 -18.7870 -18.5163 -18.4659
   -18.3753 -18.3301 -17.2473 -17.1850 -17.0089 -16.9524 -16.9504 -16.8926
   -14.9966 -14.9772 -14.8155 -14.7860 -14.7445 -14.6833 -14.6493 -14.6223
   -14.5569 -14.5534 -14.5500 -14.4045 -14.3689 -14.2838 -14.2472 -14.2296
   -14.1978 -14.1902 -14.1862 -14.1521 -14.0896 -14.0348 -14.0159 -14.0043
   -13.9947 -13.9858 -13.9761 -13.9715 -12.9921 -12.6971  -8.9138  -8.9049
    -8.6978  -8.6197  -8.6111  -8.4998  -8.3670  -8.2388  -8.1515  -8.1421
    -8.0709  -8.0635  -8.0612  -8.0526  -8.0477  -8.0311  -7.8988  -7.7762
    -7.6927  -7.6618  -7.6530  -7.4818  -7.4338  -7.2751  -4.3215  -4.2775
    -3.8825  -3.8103  -3.4774  -3.4635  -3.2812  -3.2148  -3.1571  -3.1483
    -3.0898  -3.0863  -3.0784  -2.9944  -2.7088  -2.7025  -2.5889  -2.5606
    -2.5397  -2.5224  -2.2921  -2.2881  -2.1901  -2.1863  -2.0368  -1.9950
    -1.9886  -1.9554  -1.8797  -1.8332  -1.6683  -1.6647  -1.6394  -1.4214
    -1.4000  -1.3803  -1.3790  -1.3702  -1.2932  -1.2599  -1.2514  -1.2020
    -1.1360  -1.1341  -1.1154  -1.1083  -1.1049  -1.0997  -0.9804  -0.9586
    -0.9402  -0.9178  -0.9051  -0.8951  -0.8932  -0.8870  -0.8619  -0.8558
    -0.7635  -0.7529  -0.7460  -0.7273  -0.6129  -0.5918  -0.5414  -0.2385
    -0.2317  -0.1885  -0.1653  -0.1633  -0.1473  -0.1197  -0.1181  -0.0820
     0.1243   0.1526   0.1638   0.2105   0.2133   0.2269   0.2380   0.2838
     0.4286   0.4953   0.5336   0.5371   0.8049   0.8145   0.8299   0.9303
     0.9505   0.9953   1.0175   1.0313   1.1174   1.1185   1.1362   1.1708
     1.1773   1.2440   1.2851   1.2998   1.3084   1.3113   1.3130   1.3232
     1.3320   1.3677   1.3808   1.4143   1.5427   1.5708   1.5715   1.6043
     1.6488   1.6753   1.6757   1.6898   1.7350   1.7715   1.8233   1.8346
     1.8386   1.8683   1.8717   1.8746   1.8941   1.9220   1.9260   1.9317
     1.9373   1.9515   2.0526   2.0642   2.1087   2.1269   2.1477   2.1565
     2.1664   2.1684   2.2776   2.3709   2.3880   2.3917   2.3961   2.4205
     2.5731   2.5806   2.5964   2.6447   2.6477   2.6548   2.7573   2.8131
     3.0191   3.1357   4.5652   4.5919   4.6507   4.6638   5.7194   5.7867
     5.7931   6.5047   6.5968   7.6413   7.7640   7.7722   7.9937   8.1254
     8.1777   8.2861   8.3143   8.3400   8.3992   8.5830   8.7453   8.7483
     8.8311   8.8465   8.8652   8.9180   9.0654   9.0712   9.1350   9.1766
     9.1802   9.1866   9.2617   9.3058   9.3230   9.4979   9.5144   9.6723
     9.7116   9.7166

          k = 0.1250 0.0000 0.0000 ( 70409 PWs)   bands (ev):

   -38.1930 -38.1419 -35.8254 -35.7655 -22.9424 -22.9333 -22.8232 -22.8143
   -22.8075 -22.7546 -22.5948 -22.3537 -18.6656 -18.6216 -18.5625 -18.5123
   -18.1967 -18.1450 -17.1746 -17.1167 -17.0502 -16.9942 -16.8563 -16.7938
   -15.5440 -15.5086 -15.1024 -15.0875 -14.8753 -14.7813 -14.7343 -14.7056
   -14.6949 -14.6775 -14.6417 -14.5934 -14.5823 -14.5314 -14.4104 -14.3965
   -14.2495 -14.2169 -14.1467 -14.1235 -14.1164 -14.1149 -14.1089 -14.1001
   -14.0646 -13.9971 -13.8920 -13.8238 -13.0248 -12.6051  -8.1877  -8.1797
    -8.1101  -8.0813  -8.0709  -8.0049  -7.9822  -7.9736  -7.8797  -7.8496
    -7.8409  -7.7680  -7.7595  -7.7477  -7.6945  -7.6346  -7.6345  -7.6293
    -7.6205  -7.5876  -7.5522  -7.4182  -7.2091  -7.1021  -3.0877  -3.0695
    -2.9642  -2.8819  -2.2968  -2.2912  -2.2312  -2.2266  -2.1988  -2.1697
    -2.0824  -2.0285  -2.0047  -1.9817  -1.9736  -1.9289  -1.9143  -1.8827
    -1.8444  -1.8140  -1.8042  -1.7897  -1.6700  -1.6225  -1.5388  -1.5124
    -1.2735  -1.2362  -1.2017  -1.1753  -1.1586  -1.0884  -1.0853  -1.0450
    -1.0438  -1.0371  -1.0362  -1.0323  -1.0177  -0.9823  -0.8967  -0.8259
    -0.8009  -0.7951  -0.5408  -0.5132  -0.4650  -0.4534  -0.4258  -0.3898
    -0.3731  -0.3488  -0.3386  -0.3310  -0.3118  -0.3096  -0.3068  -0.2824
    -0.2758  -0.2744  -0.2529  -0.2301  -0.2267  -0.1593  -0.1049  -0.0824
    -0.0766  -0.0700  -0.0654  -0.0478  -0.0233  -0.0138   0.0157   0.0571
     0.0870   0.0956   0.0963   0.1018   0.1499   0.1564   0.1813   0.1864
     0.1930   0.2443   0.2486   0.2872   0.3029   0.3112   0.3573   0.4008
     0.4381   0.4526   0.4545   0.4744   0.4932   0.4956   0.4984   0.5269
     0.6417   0.6592   0.7400   0.8180   0.8217   0.8411   0.8659   0.8785
     0.9445   0.9617   0.9928   1.0078   1.0472   1.0747   1.0841   1.1042
     1.1123   1.1442   1.1628   1.1887   1.1953   1.2031   1.2885   1.3168
     1.3282   1.3600   1.3803   1.3932   1.4102   1.4240   1.4800   1.5195
     1.5959   1.6380   1.6558   1.6644   1.6822   1.7201   1.7391   1.7508
     1.7549   1.7628   1.8124   1.8494   1.8565   1.9719   1.9825   2.0740
     2.1505   2.1547   2.3061   2.3233   2.3413   2.3543   2.4180   2.4624
     2.5171   2.5437   2.5644   2.5808   2.7869   2.8261   5.0981   5.2113
     5.2487   5.8977   6.0012   6.5783   6.6153   6.6435   6.8197   6.8393
     6.8478   6.9516   7.4383   7.4675   7.6113   7.6685   7.6769   7.8849
     7.9590   8.0312   8.0791   8.0797   8.2293   8.3729   8.4168   8.5230
     8.5770   8.6130   8.6549   8.7088   8.8929   9.0020   9.0932   9.1340
     9.2875   9.3329

          k = 0.1250 0.2618 0.0000 ( 70383 PWs)   bands (ev):

   -38.1903 -38.1392 -35.8237 -35.7638 -22.9180 -22.9090 -22.8039 -22.7950
   -22.7884 -22.7310 -22.5756 -22.3330 -18.6271 -18.5829 -18.5553 -18.5050
   -18.3074 -18.2562 -17.1451 -17.0871 -17.0453 -16.9892 -16.9221 -16.8598
   -15.4387 -15.4036 -15.0484 -15.0335 -14.8242 -14.7441 -14.7219 -14.6849
   -14.6634 -14.5997 -14.5824 -14.5705 -14.5677 -14.5000 -14.3723 -14.3556
   -14.2454 -14.2144 -14.2079 -14.1720 -14.1285 -14.1035 -14.1035 -14.0939
   -14.0934 -14.0322 -13.8908 -13.8567 -12.9828 -12.6630  -8.1807  -8.1717
    -8.1033  -8.0959  -8.0852  -8.0161  -8.0083  -7.9996  -7.9356  -7.9270
    -7.8714  -7.8375  -7.8290  -7.7854  -7.7806  -7.7719  -7.7400  -7.7161
    -7.6972  -7.6220  -7.6056  -7.5879  -7.2756  -7.2106  -3.1943  -3.1651
    -3.0174  -2.9353  -2.4346  -2.4226  -2.3783  -2.3162  -2.3059  -2.2993
    -2.1994  -2.1917  -2.1627  -2.1266  -2.0676  -2.0207  -1.9354  -1.8942
    -1.8669  -1.8527  -1.8446  -1.8182  -1.7639  -1.7198  -1.6025  -1.5659
    -1.5600  -1.5481  -1.4885  -1.4801  -1.4638  -1.4545  -1.4506  -1.4306
    -1.3832  -1.3120  -1.1150  -0.9838  -0.9588  -0.9198  -0.8318  -0.8147
    -0.7571  -0.7352  -0.7063  -0.6917  -0.6555  -0.6445  -0.5168  -0.5006
    -0.4477  -0.4355  -0.4328  -0.4116  -0.4089  -0.3824  -0.3529  -0.2964
    -0.2452  -0.2346  -0.2006  -0.1959  -0.1499  -0.1243  -0.0944  -0.0701
    -0.0670  -0.0599  -0.0358   0.0051   0.0069   0.0700   0.0855   0.0892
     0.0975   0.1027   0.1354   0.1510   0.1827   0.2159   0.2203   0.2254
     0.2309   0.2610   0.2805   0.3098   0.3164   0.3237   0.3395   0.3503
     0.3880   0.3962   0.4097   0.4182   0.5707   0.5770   0.5816   0.6688
     0.6957   0.7051   0.7765   0.7941   0.8584   0.8775   0.9182   0.9646
     1.0120   1.0247   1.0471   1.0923   1.1195   1.1417   1.1513   1.1596
     1.1691   1.2036   1.2215   1.2238   1.2629   1.3030   1.3269   1.3329
     1.3358   1.3405   1.4298   1.4476   1.4572   1.5153   1.5337   1.5715
     1.6107   1.6429   1.6511   1.6624   1.6834   1.7058   1.7098   1.7283
     1.7296   1.7755   1.7903   1.8814   1.9124   2.0377   2.0847   2.0975
     2.1490   2.3829   2.5220   2.5589   2.6899   2.7222   2.7367   2.7923
     2.8129   2.8225   2.8695   2.8889   3.0699   3.0927   5.3868   5.5773
     5.5866   6.1597   6.2377   6.7072   6.8721   6.8791   6.9234   6.9365
     7.1062   7.2676   7.5103   7.5535   7.6435   7.6613   7.7521   7.8188
     7.8709   8.1189   8.1730   8.2688   8.3908   8.5453   8.5949   8.7022
     8.7499   8.7820   8.8379   8.8764   9.0568   9.1042   9.1594   9.1903
     9.2156   9.2741

          k = 0.1250 0.5236 0.0000 ( 70338 PWs)   bands (ev):

   -38.1838 -38.1327 -35.8196 -35.7597 -22.8580 -22.8489 -22.7565 -22.7476
   -22.7416 -22.6730 -22.5284 -22.2823 -18.5480 -18.5379 -18.5271 -18.4975
   -18.4875 -18.4826 -17.0766 -17.0601 -17.0335 -17.0149 -17.0018 -16.9773
   -15.1995 -15.1664 -14.9068 -14.8915 -14.7654 -14.7336 -14.7020 -14.6534
   -14.5890 -14.5579 -14.5356 -14.4425 -14.4078 -14.3982 -14.3581 -14.3188
   -14.2773 -14.2452 -14.2306 -14.2143 -14.1876 -14.1033 -14.0862 -14.0747
   -14.0510 -14.0419 -13.9456 -13.8746 -12.8760 -12.7998  -8.3992  -8.3905
    -8.1872  -8.1609  -8.1521  -8.1293  -8.1202  -8.0839  -8.0773  -8.0679
    -8.0331  -8.0248  -8.0235  -7.9980  -7.9325  -7.8452  -7.8383  -7.8119
    -7.7834  -7.7748  -7.6607  -7.5593  -7.4325  -7.2995  -3.5979  -3.5530
    -3.2551  -3.1763  -2.9294  -2.9091  -2.7691  -2.7116  -2.5342  -2.5241
    -2.4383  -2.3986  -2.3489  -2.3431  -2.3244  -2.3065  -2.3005  -2.2150
    -2.1639  -2.1574  -2.1518  -2.1454  -2.0344  -2.0003  -1.9421  -1.8936
    -1.8871  -1.8472  -1.7787  -1.7555  -1.7467  -1.7135  -1.6969  -1.6561
    -1.3316  -1.2909  -1.2069  -1.0836  -1.0810  -1.0444  -0.9907  -0.9640
    -0.9303  -0.9038  -0.8679  -0.8420  -0.7925  -0.7822  -0.7594  -0.7133
    -0.7038  -0.6724  -0.6370  -0.6064  -0.5824  -0.5725  -0.5573  -0.5105
    -0.5026  -0.4584  -0.4257  -0.4030  -0.3939  -0.3506  -0.3333  -0.3297
    -0.2590  -0.2049  -0.1580  -0.1538  -0.0005   0.0253   0.0541   0.0744
     0.0946   0.1094   0.1664   0.1826   0.2195   0.2372   0.2504   0.2592
     0.3435   0.3496   0.3679   0.4306   0.5559   0.5729   0.5793   0.6110
     0.6832   0.7379   0.7671   0.7822   0.8046   0.9219   0.9592   0.9848
     0.9963   1.0172   1.0235   1.0449   1.0822   1.0938   1.1309   1.1413
     1.1667   1.1979   1.2208   1.2537   1.2636   1.2872   1.2890   1.3033
     1.3407   1.3481   1.3627   1.3857   1.4132   1.4228   1.4632   1.4996
     1.5031   1.5505   1.5656   1.5741   1.6152   1.6405   1.6632   1.6734
     1.6979   1.7285   1.7382   1.7547   1.7573   1.7664   1.7806   1.8550
     1.8649   1.9288   1.9608   1.9956   2.0047   2.0937   2.1585   2.2286
     2.2591   2.3214   2.4635   2.6663   2.9873   3.0083   3.0239   3.0607
     3.1227   3.1372   3.7023   3.7186   3.7963   3.8236   5.8210   6.4538
     6.4604   6.5627   6.5713   6.8247   6.8856   6.9146   7.0129   7.0696
     7.7817   7.7921   7.9121   8.0151   8.1061   8.1360   8.2158   8.3354
     8.3483   8.4562   8.5014   8.6001   8.6350   8.6624   8.6777   8.8471
     8.9146   8.9259   9.0212   9.0889   9.2092   9.2325   9.2847   9.3226
     9.3411   9.4169

          k = 0.1250 0.7854 0.0000 ( 70312 PWs)   bands (ev):

   -38.1773 -38.1261 -35.8155 -35.7556 -22.7962 -22.7871 -22.7079 -22.6990
   -22.6939 -22.6135 -22.4801 -22.2302 -18.7562 -18.7062 -18.5205 -18.4701
   -18.4219 -18.3769 -17.1969 -17.1346 -17.0225 -16.9881 -16.9662 -16.9305
   -14.9773 -14.9598 -14.8663 -14.8205 -14.7382 -14.7206 -14.6651 -14.6210
   -14.5945 -14.5736 -14.4924 -14.3887 -14.3828 -14.3550 -14.2760 -14.2554
   -14.2497 -14.2463 -14.1806 -14.1750 -14.1475 -14.0912 -14.0336 -14.0234
   -14.0043 -13.9965 -13.9948 -13.9143 -12.9305 -12.7606  -8.7508  -8.7420
    -8.5326  -8.4588  -8.4502  -8.3517  -8.2242  -8.1448  -8.1356  -8.0852
    -8.0811  -8.0773  -8.0735  -8.0679  -8.0567  -8.0220  -7.9077  -7.7874
    -7.7293  -7.7207  -7.6826  -7.5052  -7.5014  -7.3101  -4.0826  -4.0380
    -3.6613  -3.5880  -3.3381  -3.3211  -3.1396  -3.0769  -2.9199  -2.9121
    -2.8775  -2.8587  -2.8509  -2.7803  -2.6665  -2.6600  -2.5560  -2.5084
    -2.4059  -2.3687  -2.2716  -2.2672  -2.2019  -2.1979  -1.9676  -1.9181
    -1.8851  -1.8722  -1.8594  -1.8406  -1.7801  -1.7437  -1.6651  -1.6294
    -1.5084  -1.3235  -1.2964  -1.2879  -1.2166  -1.1693  -1.1425  -1.1165
    -1.1077  -1.1028  -1.0740  -1.0564  -1.0491  -1.0329  -0.9171  -0.8838
    -0.8774  -0.8430  -0.8384  -0.8080  -0.7963  -0.7838  -0.7773  -0.7651
    -0.6704  -0.6624  -0.6572  -0.6197  -0.6076  -0.5713  -0.5030  -0.2854
    -0.2799  -0.2025  -0.1933  -0.1712  -0.0587  -0.0093   0.0088   0.0973
     0.1110   0.1127   0.1622   0.1866   0.2090   0.2386   0.2677   0.2726
     0.3886   0.4831   0.5095   0.5179   0.7107   0.7582   0.8049   0.8230
     0.9068   0.9356   0.9746   1.0056   1.0252   1.0336   1.1394   1.1462
     1.1776   1.1908   1.1964   1.2062   1.2307   1.2438   1.2641   1.3112
     1.3220   1.3329   1.3679   1.3984   1.4723   1.4779   1.5069   1.5146
     1.5552   1.6073   1.6081   1.6310   1.6422   1.6481   1.6884   1.6970
     1.7094   1.7366   1.7521   1.7624   1.7719   1.7945   1.8032   1.8295
     1.8651   1.8742   1.9118   1.9314   1.9617   2.0051   2.0511   2.0758
     2.0964   2.1856   2.1948   2.2019   2.2449   2.3063   2.3180   2.3543
     2.4017   2.4089   2.5646   2.5936   2.8368   2.8785   2.9307   2.9825
     3.1173   3.1905   4.3044   4.3275   4.3728   4.3899   5.8513   6.0813
     6.0876   6.6554   6.7335   7.2392   7.3313   7.3447   7.6942   7.7493
     8.1611   8.2566   8.2657   8.3549   8.4437   8.5258   8.5405   8.6769
     8.7251   8.7930   8.8286   8.8794   8.9522   8.9796   8.9949   9.1005
     9.1532   9.2060   9.2698   9.2899   9.3482   9.3748   9.4455   9.4954
     9.5371   9.5670

          k = 0.1250-1.0472 0.0000 ( 70402 PWs)   bands (ev):

   -38.1745 -38.1234 -35.8138 -35.7539 -22.7701 -22.7610 -22.6874 -22.6785
   -22.6738 -22.5884 -22.4596 -22.2082 -18.8367 -18.7869 -18.5133 -18.4629
   -18.3748 -18.3296 -17.2473 -17.1851 -17.0179 -16.9616 -16.9524 -16.8947
   -14.9855 -14.9660 -14.7915 -14.7620 -14.7397 -14.6843 -14.6361 -14.6094
   -14.5907 -14.5712 -14.5335 -14.3993 -14.3638 -14.2948 -14.2584 -14.2471
   -14.2078 -14.2026 -14.1918 -14.1478 -14.0853 -14.0413 -14.0162 -14.0038
   -13.9942 -13.9867 -13.9770 -13.9716 -12.9821 -12.7098  -8.8835  -8.8747
    -8.6692  -8.5892  -8.5806  -8.4723  -8.3384  -8.2115  -8.1477  -8.1384
    -8.0962  -8.0876  -8.0736  -8.0658  -8.0479  -8.0303  -7.9309  -7.7768
    -7.7056  -7.6973  -7.6920  -7.5106  -7.4747  -7.3129  -4.2833  -4.2398
    -3.8480  -3.7760  -3.4946  -3.4794  -3.2918  -3.2247  -3.1546  -3.1460
    -3.0890  -3.0874  -3.0812  -2.9967  -2.6921  -2.6856  -2.5733  -2.5339
    -2.5226  -2.4963  -2.2945  -2.2905  -2.1911  -2.1872  -2.0295  -1.9821
    -1.9545  -1.9202  -1.8901  -1.8348  -1.7306  -1.6637  -1.5806  -1.5225
    -1.4894  -1.4602  -1.4309  -1.3641  -1.3550  -1.2873  -1.2366  -1.2119
    -1.1966  -1.1949  -1.1311  -1.1220  -1.1163  -1.0887  -0.9853  -0.9781
    -0.9338  -0.9166  -0.9105  -0.8985  -0.8860  -0.8765  -0.8693  -0.8324
    -0.7613  -0.7536  -0.7504  -0.6968  -0.6189  -0.5639  -0.5171  -0.2518
    -0.2466  -0.1903  -0.1695  -0.1215  -0.0914  -0.0725  -0.0356  -0.0318
     0.1085   0.1142   0.1370   0.1981   0.2122   0.2437   0.2479   0.2659
     0.4207   0.5234   0.5457   0.5872   0.7704   0.8422   0.8577   0.9048
     0.9336   0.9853   1.0146   1.0420   1.0785   1.1262   1.1472   1.1665
     1.1798   1.2311   1.2547   1.2838   1.3161   1.3181   1.3290   1.3319
     1.3329   1.3658   1.4064   1.4220   1.4603   1.5400   1.5522   1.5863
     1.6332   1.6566   1.7419   1.7616   1.7720   1.7783   1.8214   1.8566
     1.8660   1.8692   1.8893   1.8896   1.9051   1.9191   1.9317   1.9484
     1.9981   2.0503   2.0618   2.0893   2.1091   2.1355   2.1478   2.1551
     2.1670   2.1820   2.2740   2.3876   2.3957   2.3963   2.4029   2.4187
     2.5659   2.5733   2.5978   2.6028   2.6080   2.6580   2.7628   2.8255
     3.0178   3.1413   4.4871   4.5136   4.5753   4.5894   5.7709   5.8546
     5.8612   6.5366   6.6273   7.6032   7.6711   7.6803   8.0094   8.1059
     8.1314   8.1338   8.1681   8.2867   8.4703   8.6065   8.8010   8.8558
     8.9050   8.9208   8.9556   9.0116   9.0387   9.0988   9.1620   9.2003
     9.2132   9.2488   9.2699   9.3332   9.3611   9.5197   9.5253   9.6659
     9.7084   9.7265

          k = 0.2500 0.0000 0.0000 ( 70367 PWs)   bands (ev):

   -38.1930 -38.1419 -35.8254 -35.7655 -22.9297 -22.9207 -22.8366 -22.8277
   -22.8056 -22.7464 -22.6036 -22.3560 -18.6639 -18.6198 -18.5546 -18.5043
   -18.1967 -18.1450 -17.1817 -17.1239 -17.0785 -17.0230 -16.8563 -16.7938
   -15.4698 -15.4345 -15.0640 -15.0512 -14.8715 -14.7742 -14.7709 -14.7539
   -14.7323 -14.6929 -14.6768 -14.6164 -14.6015 -14.5523 -14.3780 -14.3549
   -14.2304 -14.2016 -14.1507 -14.1282 -14.1216 -14.1190 -14.1139 -14.1038
   -14.0773 -14.0058 -13.9032 -13.8244 -12.9793 -12.6573  -8.1925  -8.1842
    -8.1109  -8.0888  -8.0786  -8.0150  -7.9491  -7.9406  -7.9004  -7.8260
    -7.8172  -7.7870  -7.7785  -7.7122  -7.7052  -7.6555  -7.6468  -7.6134
    -7.6115  -7.5899  -7.5460  -7.4414  -7.2187  -7.1098  -2.9869  -2.9685
    -2.8696  -2.7864  -2.3177  -2.3086  -2.2682  -2.2628  -2.1889  -2.1771
    -2.1606  -2.0944  -2.0605  -2.0258  -1.9987  -1.9678  -1.9216  -1.8842
    -1.8638  -1.8316  -1.8214  -1.8158  -1.6275  -1.6070  -1.5790  -1.5763
    -1.2205  -1.2045  -1.1618  -1.1175  -1.1080  -1.0875  -1.0666  -1.0424
    -1.0386  -1.0344  -1.0307  -1.0070  -0.9497  -0.9120  -0.8534  -0.7688
    -0.7420  -0.7364  -0.5873  -0.5359  -0.4992  -0.4839  -0.4288  -0.4229
    -0.4096  -0.4001  -0.3927  -0.3681  -0.3566  -0.3522  -0.3404  -0.3352
    -0.3311  -0.3283  -0.2947  -0.2540  -0.2216  -0.1686  -0.1224  -0.1042
    -0.0886  -0.0816  -0.0744  -0.0561  -0.0484  -0.0437  -0.0189   0.0703
     0.1160   0.1524   0.1587   0.1628   0.1710   0.1779   0.1817   0.1955
     0.2039   0.2608   0.2997   0.3145   0.3181   0.3526   0.3795   0.4051
     0.4355   0.4402   0.4440   0.4734   0.4980   0.5071   0.5217   0.5535
     0.6048   0.6168   0.7381   0.7745   0.7986   0.8094   0.8381   0.8933
     0.9113   0.9317   0.9470   0.9548   0.9679   1.0107   1.0314   1.0363
     1.1327   1.1517   1.1661   1.2020   1.2189   1.2351   1.2905   1.3083
     1.3425   1.3695   1.3787   1.4544   1.4628   1.4707   1.4845   1.4974
     1.5665   1.6134   1.6585   1.6628   1.7061   1.7125   1.7422   1.7460
     1.7490   1.7684   1.9240   1.9359   1.9513   1.9561   1.9767   2.0356
     2.1245   2.1338   2.2325   2.3201   2.3464   2.3722   2.3878   2.4524
     2.5380   2.5617   2.5679   2.5863   2.7654   2.8058   5.2400   5.3473
     5.3651   6.0406   6.1222   6.3773   6.4544   6.4605   6.7675   6.7861
     6.9414   7.1099   7.3200   7.3764   7.8278   7.9012   7.9167   7.9603
     7.9947   8.0340   8.0826   8.1764   8.2830   8.3238   8.3584   8.4787
     8.5829   8.6910   8.7299   8.7500   8.8271   8.9299   9.0783   9.2166
     9.2783   9.3624

          k = 0.2500 0.2618 0.0000 ( 70358 PWs)   bands (ev):

   -38.1903 -38.1392 -35.8237 -35.7638 -22.9060 -22.8969 -22.8166 -22.8077
   -22.7867 -22.7233 -22.5839 -22.3352 -18.6254 -18.5812 -18.5475 -18.4972
   -18.3074 -18.2562 -17.1519 -17.0940 -17.0723 -17.0167 -16.9219 -16.8596
   -15.3661 -15.3311 -15.0145 -15.0019 -14.8171 -14.7445 -14.7281 -14.7121
   -14.6880 -14.6567 -14.6268 -14.6004 -14.5841 -14.5179 -14.3396 -14.3141
   -14.2318 -14.2086 -14.2033 -14.1783 -14.1382 -14.1094 -14.1045 -14.0983
   -14.0966 -14.0373 -13.9074 -13.8476 -12.9468 -12.7013  -8.1870  -8.1778
    -8.1159  -8.1084  -8.1009  -8.0620  -8.0529  -8.0263  -7.9811  -7.9724
    -7.9076  -7.8137  -7.7785  -7.7641  -7.7557  -7.7500  -7.7213  -7.7147
    -7.7126  -7.6277  -7.5454  -7.5306  -7.2440  -7.1815  -3.0905  -3.0607
    -2.9158  -2.8337  -2.4717  -2.4565  -2.3931  -2.3254  -2.2856  -2.2780
    -2.2272  -2.2152  -2.1698  -2.1363  -2.1181  -2.0705  -2.0161  -1.9720
    -1.9645  -1.9234  -1.8699  -1.8457  -1.7613  -1.7090  -1.5778  -1.5620
    -1.5405  -1.5217  -1.4831  -1.4737  -1.4656  -1.4573  -1.3696  -1.3481
    -1.3085  -1.2391  -1.0948  -0.9880  -0.9832  -0.9354  -0.8594  -0.8177
    -0.7917  -0.7573  -0.7370  -0.7115  -0.6752  -0.6626  -0.6340  -0.6229
    -0.5575  -0.5306  -0.4375  -0.4186  -0.3910  -0.3677  -0.3604  -0.2974
    -0.2243  -0.2214  -0.1721  -0.1578  -0.1428  -0.1173  -0.0918  -0.0821
    -0.0764  -0.0728  -0.0524  -0.0397  -0.0262   0.0458   0.0772   0.0822
     0.0938   0.0959   0.1096   0.1672   0.2048   0.2209   0.2407   0.2580
     0.2648   0.2827   0.2917   0.3144   0.3157   0.3305   0.3424   0.3614
     0.4052   0.4292   0.4358   0.4743   0.5258   0.5356   0.6185   0.6530
     0.6840   0.7156   0.7965   0.8196   0.8467   0.8592   0.9558   1.0013
     1.0224   1.0409   1.0551   1.0657   1.0828   1.0915   1.1139   1.1426
     1.1441   1.1648   1.1812   1.2014   1.2491   1.2603   1.2784   1.3082
     1.3671   1.3736   1.4035   1.4444   1.4466   1.5597   1.5677   1.5911
     1.5994   1.6062   1.6073   1.6125   1.6532   1.6678   1.6799   1.6907
     1.7183   1.7582   1.7763   1.9268   2.0107   2.0966   2.2235   2.2825
     2.3544   2.4634   2.5262   2.5964   2.6813   2.7209   2.7294   2.7907
     2.8178   2.8278   2.8618   2.8819   3.0391   3.0624   5.4760   5.6832
     5.6907   6.2722   6.3398   6.5082   6.5908   6.5976   7.0823   7.0976
     7.2403   7.3767   7.4076   7.4566   7.7481   7.7780   7.9956   8.0083
     8.0354   8.1369   8.1788   8.3364   8.4459   8.4812   8.5154   8.6526
     8.6873   8.7691   8.8732   8.9176   8.9432   9.0520   9.0700   9.1243
     9.1653   9.2038

          k = 0.2500 0.5236 0.0000 ( 70338 PWs)   bands (ev):

   -38.1838 -38.1327 -35.8196 -35.7597 -22.8475 -22.8384 -22.7675 -22.7586
   -22.7402 -22.6665 -22.5354 -22.2841 -18.5478 -18.5303 -18.5257 -18.4973
   -18.4812 -18.4799 -17.0807 -17.0629 -17.0568 -17.0201 -17.0052 -16.9995
   -15.1321 -15.0997 -14.8881 -14.8755 -14.7608 -14.7290 -14.6960 -14.6374
   -14.5903 -14.5589 -14.5575 -14.4931 -14.4659 -14.4443 -14.3660 -14.3294
   -14.2533 -14.2461 -14.2267 -14.2173 -14.1764 -14.0938 -14.0824 -14.0696
   -14.0552 -14.0460 -13.9453 -13.8764 -12.8660 -12.8074  -8.4347  -8.4260
    -8.2163  -8.1816  -8.1729  -8.1451  -8.1356  -8.0853  -8.0822  -8.0729
    -8.0482  -8.0010  -8.0006  -7.9921  -7.9560  -7.8581  -7.8286  -7.8077
    -7.7363  -7.7277  -7.6654  -7.5238  -7.4292  -7.2572  -3.4972  -3.4528
    -3.1522  -3.0745  -2.9663  -2.9409  -2.7793  -2.7210  -2.5159  -2.5065
    -2.4294  -2.3873  -2.3540  -2.3480  -2.3162  -2.3042  -2.2982  -2.2222
    -2.1717  -2.1645  -2.1486  -2.1424  -2.0447  -1.9900  -1.9714  -1.9375
    -1.9232  -1.8993  -1.8770  -1.8101  -1.7004  -1.6709  -1.6585  -1.6329
    -1.3645  -1.3250  -1.2302  -1.1268  -1.1167  -1.0711  -1.0292  -1.0030
    -0.9980  -0.9742  -0.9576  -0.9182  -0.9038  -0.8865  -0.8047  -0.7743
    -0.7007  -0.6667  -0.6196  -0.5953  -0.5709  -0.5553  -0.5491  -0.5217
    -0.4898  -0.4697  -0.4404  -0.3835  -0.3699  -0.3559  -0.3272  -0.3042
    -0.2588  -0.2010  -0.1638  -0.1569  -0.0677  -0.0598   0.0521   0.0685
     0.0991   0.1373   0.1700   0.2020   0.2308   0.2621   0.3100   0.3185
     0.3806   0.4123   0.4425   0.4500   0.5193   0.5478   0.6564   0.6738
     0.7002   0.7364   0.7942   0.8111   0.8379   0.8840   0.9323   0.9729
     0.9910   1.0103   1.0115   1.0319   1.0542   1.0591   1.0774   1.0905
     1.1498   1.1652   1.1806   1.1879   1.2026   1.3036   1.3107   1.3296
     1.3613   1.3767   1.4073   1.4123   1.4159   1.4399   1.4580   1.4919
     1.4943   1.5277   1.5530   1.5765   1.5880   1.6045   1.6233   1.6556
     1.6649   1.6728   1.6894   1.7233   1.7663   1.7837   1.7947   1.8037
     1.8456   1.8666   1.9709   1.9771   2.1356   2.3661   2.3875   2.4379
     2.4801   2.4953   2.6108   2.7666   2.9877   3.0105   3.0259   3.0680
     3.1168   3.1458   3.6001   3.6173   3.7068   3.7351   5.8623   6.4941
     6.5009   6.5797   6.5888   6.8231   6.9246   6.9686   7.0688   7.1282
     7.9194   7.9260   7.9631   8.0406   8.0846   8.1754   8.2682   8.3016
     8.3110   8.3331   8.3648   8.6200   8.6450   8.6958   8.7350   8.8358
     8.9121   8.9499   9.0354   9.1098   9.1910   9.2322   9.2437   9.2694
     9.3274   9.4110

          k = 0.2500 0.7854 0.0000 ( 70344 PWs)   bands (ev):

   -38.1773 -38.1261 -35.8155 -35.7556 -22.7874 -22.7782 -22.7171 -22.7082
   -22.6928 -22.6082 -22.4857 -22.2315 -18.7561 -18.7062 -18.5131 -18.4627
   -18.4207 -18.3757 -17.1969 -17.1346 -17.0448 -16.9933 -16.9889 -16.9357
   -14.9335 -14.9188 -14.8216 -14.7703 -14.7445 -14.7307 -14.6452 -14.6084
   -14.5945 -14.5667 -14.4967 -14.3914 -14.3897 -14.3778 -14.3253 -14.3089
   -14.2822 -14.2783 -14.1749 -14.1626 -14.1403 -14.0864 -14.0303 -14.0201
   -14.0070 -13.9971 -13.9911 -13.9194 -12.9115 -12.7814  -8.7108  -8.7021
    -8.4911  -8.3497  -8.3411  -8.3197  -8.2079  -8.1992  -8.1304  -8.1258
    -8.1200  -8.0839  -8.0748  -8.0573  -8.0234  -8.0173  -8.0064  -7.7912
    -7.7853  -7.7768  -7.6827  -7.5887  -7.5606  -7.3444  -3.9793  -3.9364
    -3.5665  -3.4947  -3.3878  -3.3667  -3.1666  -3.1023  -2.9127  -2.9049
    -2.8694  -2.8659  -2.8581  -2.7868  -2.6226  -2.6156  -2.5154  -2.4631
    -2.3197  -2.2899  -2.2812  -2.2711  -2.1975  -2.1932  -1.9837  -1.9396
    -1.9222  -1.8773  -1.8544  -1.8513  -1.8190  -1.7938  -1.7676  -1.7316
    -1.4624  -1.4576  -1.4390  -1.3199  -1.3074  -1.3032  -1.2637  -1.1932
    -1.1615  -1.1422  -1.1305  -1.1044  -1.0440  -1.0302  -0.9107  -0.8448
    -0.8353  -0.8307  -0.8250  -0.8219  -0.7886  -0.7744  -0.7594  -0.7379
    -0.6797  -0.6691  -0.6321  -0.6009  -0.5492  -0.5441  -0.5067  -0.3203
    -0.3163  -0.2277  -0.1961  -0.1664  -0.1255  -0.1084   0.0789   0.1094
     0.1491   0.1605   0.2089   0.2559   0.2825   0.3096   0.3248   0.3603
     0.3817   0.4783   0.6070   0.6388   0.6406   0.7229   0.8053   0.8621
     0.9063   0.9117   0.9328   1.0059   1.0750   1.0948   1.1066   1.1121
     1.1435   1.1454   1.1895   1.1955   1.2458   1.2587   1.2649   1.2896
     1.3109   1.3154   1.3590   1.3611   1.4367   1.4548   1.4726   1.4921
     1.5177   1.5582   1.5804   1.6113   1.6491   1.6501   1.6855   1.6936
     1.7094   1.7261   1.7485   1.7590   1.7975   1.8042   1.8139   1.8274
     1.8475   1.8523   1.8833   1.9348   1.9521   2.0713   2.0908   2.1357
     2.1863   2.2196   2.2270   2.3317   2.3765   2.3780   2.3853   2.4241
     2.4718   2.5704   2.6089   2.7093   2.8435   2.8825   2.9458   3.0206
     3.1122   3.2048   4.1137   4.1366   4.2005   4.2197   5.9525   6.2370
     6.2440   6.7366   6.8122   7.1999   7.2222   7.2595   7.6418   7.6973
     8.0628   8.1403   8.1652   8.3073   8.4802   8.5299   8.5461   8.6610
     8.7424   8.8065   8.8712   8.9025   8.9809   9.0954   9.1246   9.1614
     9.1778   9.2484   9.3163   9.3400   9.3600   9.4245   9.4561   9.5192
     9.6145   9.6257

          k = 0.2500-1.0472 0.0000 ( 70332 PWs)   bands (ev):

   -38.1745 -38.1234 -35.8138 -35.7539 -22.7620 -22.7528 -22.6958 -22.6870
   -22.6729 -22.5836 -22.4647 -22.2094 -18.8366 -18.7868 -18.5060 -18.4555
   -18.3736 -18.3284 -17.2474 -17.1851 -17.0395 -16.9836 -16.9572 -16.8996
   -14.9536 -14.9338 -14.7338 -14.7261 -14.6974 -14.6968 -14.6354 -14.6038
   -14.6001 -14.5741 -14.5277 -14.3920 -14.3517 -14.3260 -14.2972 -14.2897
   -14.2577 -14.2385 -14.1746 -14.1362 -14.0817 -14.0595 -14.0168 -14.0023
   -13.9926 -13.9892 -13.9795 -13.9719 -12.9533 -12.7451  -8.7967  -8.7879
    -8.5872  -8.5004  -8.4918  -8.3985  -8.2560  -8.1944  -8.1858  -8.1372
    -8.1356  -8.1270  -8.0819  -8.0734  -8.0476  -8.0281  -8.0208  -7.8258
    -7.8171  -7.7783  -7.6917  -7.5875  -7.5860  -7.4150  -4.1773  -4.1358
    -3.7541  -3.6836  -3.5483  -3.5292  -3.3251  -3.2561  -3.1472  -3.1390
    -3.0968  -3.0889  -3.0809  -3.0028  -2.6395  -2.6323  -2.5219  -2.4661
    -2.4553  -2.4195  -2.3020  -2.2977  -2.1916  -2.1874  -2.0091  -1.9619
    -1.9357  -1.8602  -1.8394  -1.8391  -1.7728  -1.7374  -1.7327  -1.7114
    -1.6622  -1.5953  -1.5159  -1.4954  -1.4658  -1.3908  -1.3550  -1.2725
    -1.2063  -1.1835  -1.1680  -1.1639  -1.0629  -1.0353  -0.9707  -0.9281
    -0.9204  -0.9095  -0.9040  -0.8991  -0.8604  -0.8534  -0.8469  -0.7724
    -0.7696  -0.7599  -0.7314  -0.6305  -0.6248  -0.5418  -0.5133  -0.2954
    -0.2916  -0.2111  -0.1878  -0.1612  -0.1537  -0.1217   0.0857   0.1295
     0.1307   0.1668   0.1880   0.2654   0.2789   0.2856   0.2909   0.3167
     0.3993   0.4943   0.6834   0.6835   0.7236   0.7913   0.9191   0.9358
     0.9477   0.9782   0.9901   1.0376   1.0969   1.1440   1.1553   1.1686
     1.1832   1.1917   1.1947   1.2535   1.2800   1.3219   1.3257   1.3300
     1.3351   1.3422   1.3679   1.3847   1.4887   1.5250   1.5491   1.5762
     1.5971   1.6075   1.7002   1.7063   1.7557   1.7590   1.7925   1.8232
     1.8380   1.8428   1.8450   1.8637   1.8917   1.9003   2.0193   2.0504
     2.0580   2.0776   2.1285   2.1388   2.1435   2.1542   2.1941   2.2593
     2.3386   2.3687   2.3728   2.4147   2.4163   2.4221   2.4632   2.4974
     2.5055   2.5453   2.5528   2.5601   2.6187   2.6673   2.8105   2.9025
     3.0190   3.1580   4.2588   4.2848   4.3593   4.3759   5.9093   6.0469
     6.0540   6.6246   6.7118   7.4218   7.4295   7.4834   7.8310   7.8871
     8.0502   8.0610   8.1530   8.2514   8.5633   8.6200   8.9150   8.9443
     9.0276   9.0716   9.1066   9.1292   9.1578   9.2037   9.2181   9.2797
     9.2982   9.3535   9.3590   9.4246   9.5129   9.5500   9.5620   9.6257
     9.6371   9.7512

          k = 0.3750 0.0000 0.0000 ( 70394 PWs)   bands (ev):

   -38.1930 -38.1419 -35.8254 -35.7655 -22.9116 -22.9025 -22.8555 -22.8467
   -22.8037 -22.7371 -22.6136 -22.3584 -18.6621 -18.6181 -18.5466 -18.4962
   -18.1967 -18.1450 -17.1887 -17.1311 -17.1060 -17.0511 -16.8563 -16.7938
   -15.3740 -15.3396 -15.0445 -15.0282 -14.9014 -14.8351 -14.7976 -14.7659
   -14.7384 -14.7046 -14.6610 -14.6382 -14.6243 -14.5832 -14.3585 -14.3306
   -14.2116 -14.1869 -14.1533 -14.1361 -14.1255 -14.1228 -14.1202 -14.1082
   -14.0883 -14.0130 -13.9144 -13.8250 -12.9099 -12.7334  -8.1966  -8.1881
    -8.1114  -8.0944  -8.0844  -8.0247  -7.9154  -7.9089  -7.9005  -7.8158
    -7.8072  -7.7911  -7.7823  -7.7134  -7.6930  -7.6843  -7.6779  -7.6023
    -7.5851  -7.5843  -7.5396  -7.4729  -7.2291  -7.1178  -2.8309  -2.8132
    -2.7295  -2.6455  -2.4503  -2.4387  -2.3484  -2.2552  -2.2406  -2.2191
    -2.1782  -2.1507  -2.1309  -2.1223  -1.9908  -1.9604  -1.9140  -1.8846
    -1.8718  -1.8501  -1.8345  -1.8126  -1.6581  -1.6296  -1.5830  -1.5270
    -1.2019  -1.1681  -1.1647  -1.1233  -1.0629  -1.0400  -1.0365  -1.0323
    -1.0288  -0.9639  -0.9584  -0.9493  -0.8732  -0.8517  -0.8083  -0.7845
    -0.7147  -0.6563  -0.6504  -0.5841  -0.5627  -0.5431  -0.5179  -0.4903
    -0.4708  -0.4509  -0.4235  -0.4174  -0.4083  -0.3806  -0.3689  -0.3577
    -0.3410  -0.3197  -0.2490  -0.2467  -0.2135  -0.1946  -0.1579  -0.1336
    -0.1210  -0.0966  -0.0926  -0.0848  -0.0692  -0.0485  -0.0049   0.0716
     0.0766   0.1593   0.1655   0.1730   0.1792   0.1885   0.2282   0.2711
     0.2763   0.2815   0.3201   0.3458   0.3569   0.3737   0.3999   0.4145
     0.4162   0.4451   0.4570   0.4710   0.4855   0.5140   0.5451   0.5705
     0.6306   0.6465   0.7147   0.7397   0.7449   0.7730   0.7964   0.8033
     0.8228   0.8362   0.8986   0.9443   0.9513   0.9828   1.0810   1.1137
     1.1267   1.1862   1.2039   1.2561   1.2638   1.2719   1.2824   1.2926
     1.3606   1.3812   1.3832   1.4159   1.4261   1.4477   1.4561   1.4769
     1.4769   1.5540   1.5854   1.6435   1.7073   1.7568   1.7755   1.8015
     1.8263   1.8285   1.8879   1.9010   1.9866   1.9891   2.0173   2.0811
     2.1017   2.1388   2.1930   2.2863   2.3240   2.3601   2.4158   2.4950
     2.5402   2.5827   2.5890   2.6084   2.7211   2.7632   5.4128   5.5492
     5.5564   6.0787   6.1095   6.1152   6.2751   6.3457   7.0071   7.0381
     7.0825   7.1323   7.1850   7.3721   7.7448   7.7559   7.9486   7.9572
     8.0365   8.0369   8.0855   8.2450   8.2956   8.3731   8.4036   8.4981
     8.5580   8.6461   8.7964   8.9197   8.9841   8.9965   9.0698   9.1576
     9.1880   9.2347

          k = 0.3750 0.2618 0.0000 ( 70388 PWs)   bands (ev):

   -38.1903 -38.1392 -35.8237 -35.7638 -22.8888 -22.8796 -22.8345 -22.8256
   -22.7849 -22.7146 -22.5932 -22.3374 -18.6237 -18.5795 -18.5395 -18.4891
   -18.3074 -18.2562 -17.1586 -17.1008 -17.0986 -17.0435 -16.9217 -16.8594
   -15.2708 -15.2368 -14.9926 -14.9791 -14.8443 -14.7765 -14.7729 -14.7413
   -14.6973 -14.6739 -14.6312 -14.6011 -14.5999 -14.5444 -14.3215 -14.2918
   -14.2260 -14.2060 -14.1950 -14.1850 -14.1464 -14.1130 -14.1052 -14.1032
   -14.0995 -14.0399 -13.9202 -13.8424 -12.8926 -12.7579  -8.1968  -8.1876
    -8.1410  -8.1321  -8.1036  -8.0888  -8.0789  -8.0369  -8.0047  -7.9959
    -7.9442  -7.8297  -7.7951  -7.7779  -7.7339  -7.7121  -7.7035  -7.6809
    -7.6723  -7.6319  -7.5047  -7.4866  -7.2155  -7.1553  -2.9315  -2.9015
    -2.7665  -2.6849  -2.5705  -2.5485  -2.4513  -2.3663  -2.2708  -2.2598
    -2.2546  -2.2407  -2.1974  -2.1626  -2.1526  -2.1287  -2.1183  -2.0987
    -2.0062  -1.9654  -1.8688  -1.8469  -1.7624  -1.6997  -1.5679  -1.5586
    -1.5202  -1.4863  -1.4786  -1.4701  -1.4653  -1.4619  -1.2579  -1.2292
    -1.1802  -1.1211  -1.0640  -1.0093  -0.9995  -0.9850  -0.9368  -0.9257
    -0.8278  -0.8024  -0.7998  -0.7635  -0.7542  -0.7401  -0.6766  -0.6707
    -0.5966  -0.5921  -0.4737  -0.4372  -0.3928  -0.3459  -0.3328  -0.2753
    -0.2295  -0.2103  -0.2013  -0.1728  -0.1410  -0.1322  -0.1266  -0.0935
    -0.0822  -0.0639  -0.0428  -0.0245  -0.0190   0.0384   0.0651   0.0671
     0.0894   0.1064   0.1298   0.1712   0.1954   0.2461   0.2548   0.2867
     0.2997   0.3013   0.3099   0.3176   0.3279   0.3431   0.3629   0.3820
     0.4051   0.4432   0.4474   0.4712   0.5063   0.5849   0.6254   0.6500
     0.6578   0.7318   0.8117   0.8326   0.8499   0.8753   0.9195   0.9524
     0.9621   0.9884   1.0381   1.0502   1.0820   1.1270   1.1528   1.1554
     1.1712   1.1796   1.1877   1.1907   1.2287   1.2421   1.2835   1.3048
     1.3761   1.4070   1.4148   1.4406   1.4456   1.4751   1.5014   1.5163
     1.5568   1.5613   1.5763   1.5873   1.6125   1.6769   1.6831   1.6991
     1.7172   1.7808   1.7828   1.7947   2.1268   2.2214   2.4042   2.4512
     2.5025   2.5279   2.5790   2.6514   2.6796   2.7010   2.7354   2.7872
     2.8261   2.8366   2.8456   2.8650   2.9738   2.9979   5.5858   5.8485
     5.8552   6.2940   6.3119   6.3183   6.4569   6.5186   7.1525   7.2068
     7.3397   7.3546   7.4708   7.6792   7.8130   7.8768   7.9758   7.9859
     8.1372   8.1643   8.1840   8.3376   8.4305   8.5111   8.5353   8.6065
     8.6399   8.6852   8.7837   8.9525   8.9876   9.0001   9.0692   9.1317
     9.1483   9.1815

          k = 0.3750 0.5236 0.0000 ( 70321 PWs)   bands (ev):

   -38.1838 -38.1327 -35.8196 -35.7597 -22.8327 -22.8235 -22.7828 -22.7740
   -22.7388 -22.6593 -22.5431 -22.2858 -18.5477 -18.5243 -18.5226 -18.4972
   -18.4798 -18.4721 -17.0858 -17.0814 -17.0629 -17.0277 -17.0246 -17.0027
   -15.0424 -15.0124 -14.8783 -14.8678 -14.7564 -14.7235 -14.7085 -14.6228
   -14.5984 -14.5909 -14.5785 -14.5617 -14.4739 -14.4541 -14.3725 -14.3395
   -14.2742 -14.2465 -14.2415 -14.2041 -14.1609 -14.0811 -14.0778 -14.0648
   -14.0605 -14.0512 -13.9456 -13.8779 -12.8516 -12.8194  -8.4328  -8.4241
    -8.2952  -8.2866  -8.2106  -8.1445  -8.1348  -8.0844  -8.0770  -8.0721
    -8.0676  -8.0514  -7.9917  -7.9174  -7.8899  -7.8811  -7.8251  -7.7391
    -7.7305  -7.7049  -7.6672  -7.5293  -7.3692  -7.2573  -3.3516  -3.3090
    -3.0508  -3.0211  -3.0052  -2.9269  -2.8085  -2.7461  -2.4814  -2.4733
    -2.4019  -2.3706  -2.3667  -2.3503  -2.3087  -2.2972  -2.2908  -2.2309
    -2.2108  -2.2011  -2.1857  -2.1428  -2.1375  -2.1079  -2.0890  -2.0812
    -1.8638  -1.8219  -1.7752  -1.7483  -1.6406  -1.6128  -1.6006  -1.5574
    -1.4328  -1.3920  -1.3195  -1.2926  -1.2676  -1.1951  -1.1353  -1.0741
    -1.0691  -1.0292  -0.9811  -0.9610  -0.9367  -0.9131  -0.7542  -0.7375
    -0.7214  -0.6781  -0.6377  -0.6017  -0.5499  -0.5336  -0.5219  -0.5073
    -0.4919  -0.4550  -0.4438  -0.3837  -0.3733  -0.3605  -0.3263  -0.2761
    -0.2551  -0.2451  -0.2021  -0.1864  -0.1630  -0.1409   0.0512   0.0537
     0.1475   0.2037   0.2135   0.2364   0.2689   0.3170   0.3604   0.3683
     0.4187   0.4593   0.4900   0.5147   0.5181   0.5609   0.6377   0.7093
     0.7278   0.7938   0.8206   0.8498   0.8784   0.8868   0.9098   0.9221
     0.9494   0.9671   0.9974   1.0105   1.0169   1.0195   1.0396   1.0557
     1.0848   1.1081   1.1450   1.2194   1.2353   1.2583   1.2994   1.3323
     1.3622   1.3654   1.4202   1.4322   1.4541   1.4574   1.4780   1.4791
     1.4860   1.5133   1.5325   1.5520   1.5627   1.5702   1.5891   1.6164
     1.6486   1.6606   1.6779   1.7216   1.7412   1.7610   1.8061   1.8416
     1.8474   1.8642   1.9330   1.9389   2.3039   2.4236   2.4792   2.5048
     2.7938   2.8232   2.9187   2.9739   2.9887   3.0232   3.0278   3.1107
     3.1185   3.1690   3.4199   3.4390   3.5462   3.5771   5.9052   6.5417
     6.5491   6.5937   6.6025   6.8102   7.0034   7.0474   7.1081   7.1678
     7.9480   8.0250   8.0651   8.1020   8.1078   8.1470   8.1954   8.2769
     8.2933   8.3057   8.5080   8.6106   8.6496   8.7824   8.8334   8.8863
     8.9128   9.0131   9.0439   9.0786   9.1058   9.1267   9.1564   9.2174
     9.2574   9.3089

          k = 0.3750 0.7854 0.0000 ( 70364 PWs)   bands (ev):

   -38.1772 -38.1261 -35.8155 -35.7556 -22.7752 -22.7659 -22.7296 -22.7208
   -22.6917 -22.6025 -22.4918 -22.2329 -18.7560 -18.7061 -18.5056 -18.4551
   -18.4194 -18.3744 -17.1968 -17.1345 -17.0669 -17.0114 -16.9984 -16.9410
   -14.8810 -14.8679 -14.7757 -14.7630 -14.7514 -14.6963 -14.6166 -14.5918
   -14.5902 -14.5458 -14.5113 -14.4302 -14.4163 -14.3856 -14.3840 -14.3427
   -14.3188 -14.3070 -14.1681 -14.1460 -14.1398 -14.0914 -14.0254 -14.0151
   -14.0115 -14.0011 -13.9850 -13.9253 -12.8827 -12.8119  -8.6295  -8.6207
    -8.4126  -8.3570  -8.3483  -8.2620  -8.2045  -8.1958  -8.1485  -8.1201
    -8.1109  -8.0903  -8.0811  -8.0569  -8.0241  -7.9937  -7.9836  -7.8904
    -7.8817  -7.7924  -7.6885  -7.6577  -7.6081  -7.4236  -3.8365  -3.7971
    -3.4753  -3.4496  -3.4409  -3.3714  -3.2181  -3.1493  -2.9019  -2.8941
    -2.8765  -2.8688  -2.8598  -2.7948  -2.5440  -2.5358  -2.4349  -2.3726
    -2.3206  -2.3143  -2.1889  -2.1814  -2.1782  -2.1474  -2.1356  -2.0522
    -2.0470  -2.0089  -1.8549  -1.8472  -1.8162  -1.8040  -1.7104  -1.6855
    -1.6698  -1.6514  -1.5969  -1.5213  -1.3888  -1.3497  -1.3044  -1.1936
    -1.1811  -1.1522  -1.1476  -1.1190  -0.9915  -0.9676  -0.9244  -0.8765
    -0.8471  -0.8356  -0.8001  -0.7842  -0.7483  -0.7330  -0.7232  -0.6975
    -0.6963  -0.6511  -0.6112  -0.5873  -0.5395  -0.5380  -0.4654  -0.3747
    -0.3695  -0.2911  -0.2787  -0.2592  -0.1928  -0.1677   0.0767   0.1329
     0.1987   0.2915   0.3104   0.3215   0.3328   0.4161   0.4338   0.4463
     0.4564   0.5451   0.5559   0.6037   0.7393   0.8015   0.8377   0.8643
     0.9127   0.9328   0.9527   0.9728   1.0061   1.0213   1.0363   1.0691
     1.0887   1.1528   1.1972   1.2094   1.2582   1.2719   1.2754   1.2925
     1.3226   1.3330   1.3536   1.3655   1.3905   1.4124   1.4290   1.4468
     1.5190   1.5358   1.5740   1.5808   1.6164   1.6400   1.6523   1.6792
     1.6846   1.7168   1.7258   1.7399   1.7654   1.7829   1.7885   1.8330
     1.8550   1.8664   1.8993   1.9311   1.9607   2.0014   2.0879   2.1191
     2.1785   2.2568   2.2639   2.3426   2.3497   2.3829   2.4214   2.4917
     2.7931   2.8092   2.8480   2.8857   2.9372   2.9797   3.0578   3.1199
     3.2180   3.2744   3.8043   3.8278   3.9245   3.9464   6.0673   6.4667
     6.4754   6.8328   6.9025   7.0293   7.0422   7.2110   7.5344   7.5905
     7.9974   8.0767   8.1131   8.2352   8.5433   8.5687   8.5825   8.6263
     8.7158   8.7744   8.8199   8.8500   9.0858   9.1681   9.2527   9.2620
     9.3304   9.3388   9.3677   9.3954   9.4444   9.5094   9.5762   9.6358
     9.7030   9.7220

          k = 0.3750-1.0472 0.0000 ( 70342 PWs)   bands (ev):

   -38.1745 -38.1234 -35.8138 -35.7539 -22.7509 -22.7416 -22.7072 -22.6984
   -22.6719 -22.5785 -22.4701 -22.2106 -18.8365 -18.7867 -18.4986 -18.4480
   -18.3725 -18.3272 -17.2474 -17.1852 -17.0609 -17.0053 -16.9620 -16.9045
   -14.9065 -14.8855 -14.7591 -14.7409 -14.6526 -14.6389 -14.6177 -14.6104
   -14.5532 -14.5315 -14.5295 -14.3889 -14.3696 -14.3686 -14.3349 -14.3324
   -14.3274 -14.2772 -14.1487 -14.1203 -14.0865 -14.0862 -14.0174 -13.9997
   -13.9925 -13.9900 -13.9828 -13.9720 -12.9089 -12.7958  -8.6652  -8.6565
    -8.4644  -8.3623  -8.3537  -8.3371  -8.3285  -8.3077  -8.1515  -8.1335
    -8.1220  -8.1133  -8.0972  -8.0883  -8.0487  -8.0295  -8.0224  -7.9925
    -7.9838  -7.7804  -7.7382  -7.6884  -7.6814  -7.5474  -4.0328  -3.9951
    -3.6383  -3.6303  -3.6140  -3.5621  -3.3835  -3.3104  -3.1359  -3.1279
    -3.1084  -3.1005  -3.0728  -3.0104  -2.5490  -2.5405  -2.4239  -2.3590
    -2.3330  -2.3203  -2.3125  -2.2996  -2.1818  -2.1753  -2.0846  -1.9979
    -1.9841  -1.9477  -1.9173  -1.8888  -1.8559  -1.8393  -1.8387  -1.8273
    -1.7802  -1.7604  -1.6921  -1.6349  -1.4321  -1.3922  -1.3483  -1.2433
    -1.2256  -1.2076  -1.2015  -1.1771  -1.0116  -0.9842  -0.9655  -0.9572
[...]
    -2.0177  -1.9798  -1.8656  -1.8493  -1.7631  -1.6958  -1.5626  -1.5613
    -1.5080  -1.4753  -1.4740  -1.4739  -1.4658  -1.4567  -1.1411  -1.1332
    -1.1192  -1.0740  -1.0300  -1.0245  -1.0059  -0.9968  -0.9833  -0.9394
    -0.9269  -0.9066  -0.8978  -0.8428  -0.7812  -0.7550  -0.6672  -0.6498
    -0.5635  -0.5411  -0.5346  -0.4977  -0.3913  -0.3368  -0.3028  -0.2760
    -0.2431  -0.2206  -0.2022  -0.1994  -0.1533  -0.1423  -0.1127  -0.0923
    -0.0832  -0.0613  -0.0382  -0.0140  -0.0002   0.0434   0.0580   0.0620
     0.0892   0.1143   0.1429   0.1733   0.1902   0.2534   0.2599   0.2835
     0.3028   0.3083   0.3259   0.3367   0.3561   0.3610   0.3783   0.3875
     0.4009   0.4032   0.4267   0.4755   0.5209   0.5991   0.6158   0.6768
     0.6778   0.7485   0.8088   0.8323   0.8512   0.8685   0.8727   0.8904
     0.9691   0.9797   0.9988   1.0095   1.0767   1.1408   1.1827   1.1853
     1.2002   1.2013   1.2176   1.2235   1.2382   1.2985   1.3131   1.3390
     1.3461   1.3504   1.3702   1.4055   1.4245   1.4620   1.4921   1.4970
     1.5014   1.5151   1.5652   1.5662   1.6450   1.6851   1.7009   1.7051
     1.7081   1.7131   1.7897   1.7982   2.2075   2.2225   2.5063   2.5202
     2.5257   2.5366   2.6044   2.6658   2.6952   2.7419   2.7647   2.7912
     2.8149   2.8478   2.8495   2.8614   2.9067   2.9309   5.6437   6.0528
     6.0590   6.0702   6.0768   6.2175   6.5740   6.6305   7.0100   7.0736
     7.6102   7.6377   7.6801   7.6815   7.6927   7.8509   7.8632   7.9344
     7.9909   8.1561   8.1931   8.3319   8.4301   8.5332   8.6124   8.6277
     8.6464   8.7886   8.8071   8.8556   8.8884   8.9747   9.0749   9.0836
     9.0923   9.1360

          k =-0.5000 0.5236 0.0000 ( 70326 PWs)   bands (ev):

   -38.1838 -38.1326 -35.8196 -35.7597 -22.8226 -22.8133 -22.7930 -22.7844
   -22.7382 -22.6560 -22.5466 -22.2865 -18.5476 -18.5237 -18.5193 -18.4971
   -18.4792 -18.4689 -17.0920 -17.0870 -17.0634 -17.0368 -17.0276 -17.0029
   -14.9832 -14.9565 -14.8907 -14.8782 -14.7536 -14.7293 -14.7196 -14.6408
   -14.6029 -14.5963 -14.5921 -14.5651 -14.4675 -14.4628 -14.3746 -14.3438
   -14.2878 -14.2567 -14.2380 -14.1998 -14.1550 -14.0754 -14.0733 -14.0662
   -14.0634 -14.0526 -13.9459 -13.8784 -12.8377 -12.8323  -8.3988  -8.3901
    -8.3697  -8.3610  -8.1769  -8.1439  -8.1433  -8.1342  -8.0810  -8.0763
    -8.0670  -8.0424  -7.9928  -7.9554  -7.8251  -7.7997  -7.7912  -7.7890
    -7.7802  -7.6679  -7.6416  -7.5553  -7.3098  -7.2908  -3.2278  -3.1874
    -3.1415  -3.1082  -2.8912  -2.8720  -2.8101  -2.8093  -2.4431  -2.4357
    -2.4041  -2.3962  -2.3382  -2.3357  -2.2917  -2.2825  -2.2749  -2.2701
    -2.2576  -2.2561  -2.2349  -2.2283  -2.1382  -2.1321  -2.1165  -2.1102
    -1.8525  -1.8270  -1.6153  -1.6022  -1.5921  -1.5714  -1.5571  -1.5330
    -1.4745  -1.4741  -1.4531  -1.4180  -1.3782  -1.3110  -1.1355  -1.1165
    -1.0726  -1.0348  -1.0032  -0.9453  -0.9232  -0.9106  -0.7680  -0.7562
    -0.6825  -0.6722  -0.6523  -0.6182  -0.5281  -0.5206  -0.5162  -0.5042
    -0.4710  -0.4407  -0.4082  -0.4064  -0.3990  -0.3778  -0.3334  -0.3162
    -0.2617  -0.2427  -0.2365  -0.2107  -0.1624  -0.1536   0.0508   0.0519
     0.1905   0.1908   0.2458   0.2734   0.3163   0.3274   0.3622   0.4165
     0.4170   0.4477   0.4953   0.4976   0.5567   0.6144   0.6595   0.7228
     0.7228   0.7841   0.8371   0.8804   0.8842   0.9011   0.9162   0.9210
     0.9247   0.9386   0.9894   0.9955   1.0006   1.0018   1.0069   1.0109
     1.0668   1.0925   1.1335   1.2254   1.2635   1.2669   1.2966   1.3616
     1.3757   1.3855   1.3875   1.4056   1.4308   1.4316   1.4472   1.4639
     1.4886   1.5037   1.5144   1.5338   1.5709   1.5933   1.5951   1.6316
     1.6479   1.6559   1.6838   1.6934   1.7255   1.7848   1.8012   1.8560
     1.8849   1.8889   1.8895   1.8961   2.4038   2.4050   2.4951   2.5126
     2.9688   2.9855   2.9912   3.0246   3.0861   3.0979   3.1392   3.1570
     3.1873   3.2116   3.2833   3.3128   3.3514   3.3850   5.9235   6.5674
     6.5757   6.5949   6.6029   6.8033   7.0608   7.1050   7.1094   7.1564
     7.9216   8.0035   8.0431   8.1214   8.1495   8.2253   8.2320   8.2458
     8.2537   8.3684   8.6035   8.6696   8.7093   8.7922   8.8597   8.8840
     8.9477   8.9640   9.0200   9.0710   9.0717   9.0803   9.1339   9.1784
     9.2269   9.2915

          k =-0.5000 0.7854 0.0000 ( 70374 PWs)   bands (ev):

   -38.1772 -38.1261 -35.8155 -35.7556 -22.7674 -22.7580 -22.7376 -22.7289
   -22.6912 -22.5999 -22.4945 -22.2335 -18.7560 -18.7060 -18.5025 -18.4519
   -18.4188 -18.3739 -17.1968 -17.1345 -17.0760 -17.0206 -17.0005 -16.9431
   -14.8405 -14.8261 -14.8092 -14.7995 -14.7061 -14.6499 -14.5996 -14.5958
   -14.5783 -14.5333 -14.5328 -14.4715 -14.4201 -14.4171 -14.3818 -14.3468
   -14.3436 -14.3185 -14.1645 -14.1412 -14.1362 -14.0973 -14.0213 -14.0152
   -14.0113 -14.0046 -13.9820 -13.9282 -12.8523 -12.8430  -8.5255  -8.5167
    -8.4869  -8.4782  -8.3272  -8.2549  -8.2220  -8.1236  -8.1143  -8.1086
    -8.0994  -8.0565  -8.0292  -8.0284  -8.0217  -8.0200  -8.0198  -8.0110
    -7.8979  -7.7886  -7.7437  -7.6876  -7.5415  -7.5165  -3.7374  -3.7022
    -3.5503  -3.5185  -3.3502  -3.2912  -3.2766  -3.1977  -2.8897  -2.8887
    -2.8820  -2.8809  -2.8550  -2.7989  -2.4637  -2.4552  -2.3856  -2.3761
    -2.3130  -2.2984  -2.2381  -2.2175  -2.1608  -2.1511  -2.1307  -2.1196
    -2.0313  -1.9990  -1.8960  -1.8657  -1.8426  -1.8197  -1.7665  -1.7539
    -1.7157  -1.7112  -1.5849  -1.5448  -1.4554  -1.4114  -1.2297  -1.2008
    -1.1948  -1.1856  -1.1495  -1.1257  -0.9447  -0.9266  -0.9204  -0.8944
    -0.8550  -0.8329  -0.8280  -0.8075  -0.7253  -0.7232  -0.7124  -0.7088
    -0.6511  -0.5960  -0.5929  -0.5770  -0.5538  -0.5155  -0.4330  -0.4190
    -0.4057  -0.3827  -0.3259  -0.3026  -0.1963  -0.1729   0.0905   0.1189
     0.2738   0.2870   0.3729   0.3766   0.3856   0.3939   0.4591   0.4853
     0.4945   0.5292   0.5896   0.6744   0.6848   0.8655   0.8954   0.8988
     0.9176   0.9276   0.9421   0.9694   0.9750   1.0064   1.0074   1.0332
     1.0740   1.1149   1.1938   1.2273   1.2310   1.2440   1.2780   1.2860
     1.2964   1.3109   1.3366   1.3610   1.3716   1.4589   1.4806   1.4874
     1.5099   1.5237   1.5328   1.5400   1.6133   1.6519   1.6623   1.7028
     1.7116   1.7198   1.7209   1.7322   1.7438   1.7481   1.7553   1.7738
     1.8290   1.8577   1.8605   1.8877   1.9664   2.0417   2.0989   2.1177
     2.2941   2.2968   2.3053   2.3074   2.3127   2.3326   2.4158   2.4329
     2.8398   2.8554   2.8605   2.8890   3.0950   3.1339   3.3806   3.4058
     3.4160   3.4397   3.5502   3.5793   3.5919   3.6123   6.1206   6.7132
     6.7208   6.7392   6.7635   6.9456   7.0084   7.1897   7.4668   7.5225
     7.9770   8.0623   8.0981   8.2114   8.5674   8.6234   8.6401   8.6477
     8.6534   8.7150   8.7412   8.8107   9.1320   9.1969   9.2589   9.4014
     9.4149   9.4515   9.4849   9.5102   9.5360   9.5518   9.5904   9.6291
     9.6516   9.6752

          k =-0.5000-1.0472 0.0000 ( 70316 PWs)   bands (ev):

   -38.1745 -38.1234 -35.8138 -35.7539 -22.7440 -22.7347 -22.7142 -22.7055
   -22.6715 -22.5762 -22.4725 -22.2111 -18.8364 -18.7867 -18.4955 -18.4449
   -18.3720 -18.3267 -17.2474 -17.1852 -17.0697 -17.0142 -16.9639 -16.9065
   -14.8710 -14.8465 -14.7935 -14.7816 -14.6488 -14.6189 -14.5820 -14.5548
   -14.5358 -14.5272 -14.5078 -14.4170 -14.3962 -14.3886 -14.3714 -14.3582
   -14.3144 -14.3062 -14.1191 -14.1164 -14.1085 -14.0941 -14.0176 -13.9966
   -13.9958 -13.9870 -13.9861 -13.9720 -12.8606 -12.8467  -8.5289  -8.5200
    -8.4781  -8.4695  -8.3481  -8.2711  -8.2612  -8.2039  -8.1950  -8.1803
    -8.1719  -8.1024  -8.0997  -8.0942  -8.0903  -8.0514  -8.0284  -8.0284
    -7.9618  -7.8462  -7.7799  -7.7293  -7.6838  -7.6283  -3.9375  -3.9040
    -3.7100  -3.6797  -3.5448  -3.4853  -3.4405  -3.3592  -3.1226  -3.1218
    -3.1147  -3.1138  -3.0687  -3.0143  -2.4687  -2.4608  -2.3630  -2.3522
    -2.2938  -2.2441  -2.2303  -2.1996  -2.1990  -2.1862  -2.1158  -2.1035
    -2.0943  -2.0654  -2.0346  -2.0178  -1.9537  -1.8775  -1.8643  -1.8407
    -1.8199  -1.8121  -1.6026  -1.5641  -1.4830  -1.4409  -1.2646  -1.2481
    -1.2355  -1.2351  -1.2084  -1.1877  -1.0252  -0.9908  -0.9458  -0.9202
    -0.9176  -0.8954  -0.8429  -0.8230  -0.8054  -0.8051  -0.7953  -0.7860
    -0.6894  -0.6808  -0.6627  -0.6236  -0.6066  -0.5232  -0.4410  -0.4354
    -0.4261  -0.4051  -0.3403  -0.3166  -0.2002  -0.1764   0.1122   0.1477
     0.3074   0.3138   0.3896   0.3981   0.4286   0.4497   0.4537   0.4721
     0.4811   0.5144   0.6091   0.7048   0.7239   0.9165   0.9372   0.9796
     0.9959   1.0147   1.0295   1.0622   1.0723   1.0976   1.1105   1.1440
     1.1569   1.1608   1.2195   1.2435   1.2664   1.2779   1.2902   1.3175
     1.3382   1.3698   1.3899   1.3955   1.3998   1.4369   1.4440   1.4672
     1.5196   1.5231   1.5329   1.6703   1.7223   1.7320   1.7874   1.7984
     1.8088   1.8341   1.9037   1.9315   1.9403   1.9556   1.9910   2.0118
     2.0181   2.0322   2.0829   2.1263   2.1274   2.1364   2.1382   2.1631
     2.2516   2.2700   2.4107   2.4270   2.4746   2.4819   2.4836   2.4912
     2.6354   2.6399   2.6631   2.6822   3.0074   3.0944   3.4024   3.4279
     3.4655   3.4920   3.5589   3.5884   3.6695   3.6884   6.1684   6.6566
     6.6639   6.6788   6.7114   6.8690   6.9333   7.1996   7.4837   7.5410
     8.0053   8.1271   8.1794   8.1975   8.5069   8.9156   8.9501   9.0677
     9.1207   9.1723   9.2082   9.3018   9.3219   9.3397   9.3421   9.3692
     9.3920   9.5239   9.5863   9.6389   9.6854   9.7268   9.7358   9.7437
     9.7572   9.7735

     the Fermi energy is     2.6552 ev

!    total energy              =   -3711.57268538 Ry
     Harris-Foulkes estimate   =   -3711.57268538 Ry
     estimated scf accuracy    <          8.3E-09 Ry

     The total energy is the sum of the following terms:

     one-electron contribution =  -59678.82731157 Ry
     hartree contribution      =   30144.94696879 Ry
     xc contribution           =   -1263.81075940 Ry
     ewald contribution        =   27086.13640224 Ry
     smearing contrib. (-TS)   =      -0.01798543 Ry

     convergence has been achieved in  34 iterations

     negative rho (up, down):  9.197E-02 0.000E+00

     Forces acting on atoms (cartesian axes, Ry/au):

     atom    1 type  4   force =    -0.00000560    0.00000000   -0.00035293
     atom    2 type  4   force =     0.00000560    0.00000000   -0.00035293
     atom    3 type  3   force =    -0.00001139    0.00000000    0.00004630
     atom    4 type  3   force =     0.00001139    0.00000000    0.00004630
     atom    5 type  4   force =    -0.00000683    0.00000000    0.00005270
     atom    6 type  4   force =     0.00000683    0.00000000    0.00005270
     atom    7 type  1   force =     0.00000000    0.00000000   -0.00033997
     atom    8 type  1   force =     0.00000000    0.00000000   -0.00030840
     atom    9 type  3   force =     0.00012073    0.00000000   -0.00015429
     atom   10 type  3   force =    -0.00012073    0.00000000   -0.00015429
     atom   11 type  4   force =     0.00000000    0.00000000    0.00088820
     atom   12 type  4   force =     0.00002042    0.00000000    0.00101468
     atom   13 type  4   force =    -0.00002042    0.00000000    0.00101468
     atom   14 type  4   force =     0.00000000    0.00000000    0.00115997
     atom   15 type  2   force =     0.00000000    0.00000000   -0.00255458
     atom   16 type  5   force =     0.00000000    0.00000000   -0.00381122
     atom   17 type  4   force =     0.00074662    0.00000000    0.00445209
     atom   18 type  4   force =    -0.00074662    0.00000000    0.00445209
     atom   19 type  4   force =     0.00000000    0.00000000    0.00314322
     atom   20 type  4   force =     0.00000000    0.00000000    0.00398385
     atom   21 type  3   force =     0.00045588    0.00000000   -0.00098048
     atom   22 type  3   force =    -0.00045588    0.00000000   -0.00098048
     atom   23 type  1   force =     0.00000000    0.00000000    0.00732076
     atom   24 type  1   force =     0.00000000    0.00000000    0.01341382
     atom   25 type  4   force =     0.00229594    0.00000000   -0.01381096
     atom   26 type  4   force =    -0.00229594    0.00000000   -0.01381096
     atom   27 type  4   force =    -0.00809473    0.00000000    0.02623075
     atom   28 type  4   force =     0.00809473    0.00000000    0.02623075
     atom   29 type  3   force =     0.00879568    0.00000000   -0.00415380
     atom   30 type  3   force =    -0.00879568    0.00000000   -0.00415380
     atom   31 type  4   force =     0.01209879    0.00000000    0.01047975
     atom   32 type  4   force =    -0.01209879    0.00000000    0.01047975
     atom   33 type  1   force =     0.00000000    0.00000000   -0.01884954
     atom   34 type  1   force =     0.00000000    0.00000000   -0.01996310
     atom   35 type  3   force =    -0.00315697    0.00000000   -0.01879609
     atom   36 type  3   force =     0.00315697    0.00000000   -0.01879609
     atom   37 type  4   force =     0.00000000    0.00000000    0.00429624
     atom   38 type  4   force =     0.00000000    0.00000000    0.00130708
     atom   39 type  4   force =     0.00261787    0.00000000    0.00090434
     atom   40 type  4   force =    -0.00261787    0.00000000    0.00090434
     atom   41 type  5   force =     0.00000000    0.00000000    0.00172801
     atom   42 type  2   force =     0.00000000    0.00000000    0.00012592
     atom   43 type  4   force =     0.00000000    0.00000000    0.00009495
     atom   44 type  4   force =     0.00002848    0.00000000   -0.00094110
     atom   45 type  4   force =    -0.00002848    0.00000000   -0.00094110
     atom   46 type  4   force =     0.00000000    0.00000000   -0.00002559
     atom   47 type  3   force =    -0.00000478    0.00000000    0.00022018
     atom   48 type  3   force =     0.00000478    0.00000000    0.00022018
     atom   49 type  1   force =     0.00000000    0.00000000    0.00015671
     atom   50 type  1   force =     0.00000000    0.00000000    0.00020070
     atom   51 type  4   force =    -0.00004409    0.00000000   -0.00060198
     atom   52 type  4   force =     0.00004409    0.00000000   -0.00060198
     atom   53 type  3   force =    -0.00003834    0.00000000    0.00070487
     atom   54 type  3   force =     0.00003834    0.00000000    0.00070487
     atom   55 type  4   force =     0.00001995    0.00000000   -0.00029752
     atom   56 type  4   force =    -0.00001995    0.00000000   -0.00029752

     Total force =     0.066721     Total SCF correction =     0.000543


     Computing stress (Cartesian axis) and pressure


     negative rho (up, down):  9.197E-02 0.000E+00
          total   stress  (Ry/bohr**3)                   (kbar)     P=       -6.61
  -0.00000309   0.00000000   0.00000000           -0.45        0.00        0.00
   0.00000000  -0.00007627   0.00000000            0.00      -11.22        0.00
   0.00000000   0.00000000  -0.00005544            0.00        0.00       -8.16

 
     init_run     :     24.48s CPU     25.55s WALL (       1 calls)
     electrons    :   1712.39s CPU   1803.23s WALL (       1 calls)
     forces       :     10.21s CPU     10.85s WALL (       1 calls)
     stress       :    100.15s CPU    101.90s WALL (       1 calls)

     Called by init_run:
     wfcinit      :     20.06s CPU     20.54s WALL (       1 calls)
     potinit      :      0.98s CPU      0.99s WALL (       1 calls)
     hinit0       :      1.72s CPU      1.75s WALL (       1 calls)

     Called by electrons:
     c_bands      :   1450.06s CPU   1499.73s WALL (      34 calls)
     sum_band     :    200.10s CPU    222.28s WALL (      34 calls)
     v_of_rho     :      3.62s CPU      3.69s WALL (      35 calls)
     newd         :     29.98s CPU     47.09s WALL (      35 calls)
     mix_rho      :     29.19s CPU     29.46s WALL (      34 calls)

     Called by c_bands:
     init_us_2    :      8.17s CPU      8.25s WALL (    1775 calls)
     cegterg      :   1387.85s CPU   1422.69s WALL (     850 calls)

     Called by sum_band:
     sum_band:bec :      0.94s CPU      0.95s WALL (     850 calls)
     addusdens    :     30.66s CPU     50.73s WALL (      34 calls)

     Called by *egterg:
     h_psi        :    634.78s CPU    647.74s WALL (    4742 calls)
     s_psi        :     97.15s CPU     97.76s WALL (    4742 calls)
     g_psi        :      1.42s CPU      1.44s WALL (    3867 calls)
     cdiaghg      :    364.46s CPU    365.88s WALL (    4717 calls)

     Called by h_psi:
     h_psi:calbec :    105.11s CPU    105.59s WALL (    4742 calls)
     vloc_psi     :    429.05s CPU    435.05s WALL (    4742 calls)
     add_vuspsi   :     97.91s CPU     98.40s WALL (    4742 calls)

     General routines
     calbec       :    177.84s CPU    178.59s WALL (    5717 calls)
     fft          :      3.14s CPU      3.18s WALL (     478 calls)
     ffts         :     16.18s CPU     16.33s WALL (   19074 calls)
     fftw         :    492.43s CPU    499.23s WALL ( 1213916 calls)
     interpolate  :      0.25s CPU      0.26s WALL (      35 calls)
 
     Parallel routines
     fft_scatt_xy :     56.26s CPU     57.01s WALL ( 1233468 calls)
     fft_scatt_yz :    324.92s CPU    329.43s WALL ( 1233468 calls)
 
     PWSCF        :  30m48.54s CPU  32m23.05s WALL

 
   This run was terminated on:   0:24: 1  28May2021            

=------------------------------------------------------------------------------=
   JOB DONE.
=------------------------------------------------------------------------------=
[1622175841.650282] [holy7c12308:57628:0]          mpool.c:43   UCX  WARN  object 0x310b3c0 was not returned to mpool ucp_requests
[1622175841.649803] [holy7c12407:23017:0]          mpool.c:43   UCX  WARN  object 0x3e94100 was not returned to mpool ucp_requests
[1622175841.649824] [holy7c12407:23017:0]          mpool.c:43   UCX  WARN  object 0x3e949c0 was not returned to mpool ucp_requests
[1622175841.651397] [holy7c16102:181827:0]          mpool.c:43   UCX  WARN  object 0x33f3000 was not returned to mpool ucp_requests
[1622175841.658146] [holy7c12604:271608:0]          mpool.c:43   UCX  WARN  object 0x283a940 was not returned to mpool ucp_requests
[1622175841.658366] [holy7c06410:84379:0]          mpool.c:43   UCX  WARN  object 0x43c6a00 was not returned to mpool ucp_requests
[1622175841.658978] [holy7c04211:127805:0]          mpool.c:43   UCX  WARN  object 0x29b3500 was not returned to mpool ucp_requests
[1622175841.668379] [holy7c12203:271960:0]          mpool.c:43   UCX  WARN  object 0x3240f00 was not returned to mpool ucp_requests
[1622175841.668404] [holy7c12203:271960:0]          mpool.c:43   UCX  WARN  object 0x3241280 was not returned to mpool ucp_requests
[1622175841.656884] [holy7c12206:224047:0]          mpool.c:43   UCX  WARN  object 0x4056f40 was not returned to mpool ucp_requests
[1622175841.669378] [holy7c10602:102834:0]          mpool.c:43   UCX  WARN  object 0x3d74500 was not returned to mpool ucp_requests
[1622175841.669402] [holy7c10602:102834:0]          mpool.c:43   UCX  WARN  object 0x3d74c00 was not returned to mpool ucp_requests
[1622175841.674033] [holy7c12203:271965:0]          mpool.c:43   UCX  WARN  object 0x3d300c0 was not returned to mpool ucp_requests
[1622175841.670062] [holy7c12203:271962:0]          mpool.c:43   UCX  WARN  object 0x42cfc00 was not returned to mpool ucp_requests
[1622175841.670087] [holy7c12203:271962:0]          mpool.c:43   UCX  WARN  object 0x42cff80 was not returned to mpool ucp_requests
[1622175841.665467] [holy7c12203:271961:0]          mpool.c:43   UCX  WARN  object 0x429e6c0 was not returned to mpool ucp_requests
[1622175841.669881] [holy7c12203:271967:0]          mpool.c:43   UCX  WARN  object 0x2f5df40 was not returned to mpool ucp_requests
[1622175841.669898] [holy7c12203:271967:0]          mpool.c:43   UCX  WARN  object 0x2f5e2c0 was not returned to mpool ucp_requests
