
     Program PWSCF v.6.5 starts on 28May2021 at 10: 5:42 

     This program is part of the open-source Quantum ESPRESSO suite
     for quantum simulation of materials; please cite
         "P. Giannozzi et al., J. Phys.:Condens. Matter 21 395502 (2009);
         "P. Giannozzi et al., J. Phys.:Condens. Matter 29 465901 (2017);
          URL http://www.quantum-espresso.org", 
     in publications or presentations arising from this work. More details at
     http://www.quantum-espresso.org/quote

     Parallel version (MPI), running on    32 processors

     MPI processes distributed on     8 nodes
     R & G space division:  proc/nbgrp/npool/nimage =      32
     Reading input from YCBCO50_212_Y_cleave_2.75_sep.pwi
Warning: card &IONS ignored
Warning: card     ION_DYNAMICS = 'BFGS' ignored
Warning: card / ignored
Warning: card &CELL ignored
Warning: card     CELL_DYNAMICS = 'BFGS' ignored
Warning: card     PRESS_CONV_THR = 5 ignored
Warning: card / ignored

     Current dimensions of program PWSCF are:
     Max number of different atomic species (ntypx) = 10
     Max number of k-points (npk) =  40000
     Max angular momentum in pseudopotentials (lmaxx) =  3

     Subspace diagonalization in iterative solution of the eigenvalue problem:
     one sub-group per band group will be used
     scalapack distributed-memory algorithm (size of sub-group:  5*  5 procs)

     Message from routine setup:
     using ibrav=0 with symmetry is DISCOURAGED, use correct ibrav instead
 
     Parallelization info
     --------------------
     sticks:   dense  smooth     PW     G-vecs:    dense   smooth      PW
     Min         188      62     17                94408    18160    2709
     Max         189      63     18                94440    18207    2752
     Sum        6019    2003    565              3021637   581865   87551
 


     bravais-lattice index     =            0
     lattice parameter (alat)  =      14.8133  a.u.
     unit-cell volume          =    9261.7184 (a.u.)^3
     number of atoms/cell      =           56
     number of atomic types    =            5
     number of electrons       =       456.00
     number of Kohn-Sham states=          274
     kinetic-energy cutoff     =      60.0000  Ry
     charge density cutoff     =     720.0000  Ry
     convergence threshold     =      1.0E-08
     mixing beta               =       0.5000
     number of iterations used =           10  local-TF  mixing
     Exchange-correlation= SLA PW PBE PBE
                           (   1   4   3   4   0   0   0)

     celldm(1)=  14.813271  celldm(2)=   0.000000  celldm(3)=   0.000000
     celldm(4)=   0.000000  celldm(5)=   0.000000  celldm(6)=   0.000000

     crystal axes: (cart. coord. in units of alat)
               a(1) = (   1.000000   0.000000   0.000000 )  
               a(2) = (   0.000000   0.477453   0.000000 )  
               a(3) = (   0.000000   0.000000   5.967718 )  

     reciprocal axes: (cart. coord. in units 2 pi/alat)
               b(1) = (  1.000000  0.000000  0.000000 )  
               b(2) = (  0.000000  2.094448  0.000000 )  
               b(3) = (  0.000000  0.000000  0.167568 )  


     PseudoPot. # 1 for Ba read from file:
     ./pseudo/Ba.pbe-nsp-van.UPF
     MD5 check sum: 2b9c31dd849566dd297d80989662b7a0
     Pseudo is Ultrasoft + core correction, Zval = 10.0
     Generated by new atomic code, or converted to UPF format
     Using radial grid of  907 points,  6 beta functions with: 
                l(1) =   0
                l(2) =   0
                l(3) =   1
                l(4) =   1
                l(5) =   2
                l(6) =   2
     Q(r) pseudized with  6 coefficients,  rinner =    1.200   1.200   1.200
                                                       1.200   1.200

     PseudoPot. # 2 for Ca read from file:
     ./pseudo/Ca.pbe-nsp-van.UPF
     MD5 check sum: 6471098428ff4fa451746d08035ff179
     Pseudo is Ultrasoft + core correction, Zval = 10.0
     Generated by new atomic code, or converted to UPF format
     Using radial grid of  845 points,  6 beta functions with: 
                l(1) =   0
                l(2) =   0
                l(3) =   1
                l(4) =   1
                l(5) =   2
                l(6) =   2
     Q(r) pseudized with  6 coefficients,  rinner =    1.200   1.200   1.200
                                                       1.200   1.200

     PseudoPot. # 3 for Cu read from file:
     ./pseudo/Cu.pbe-n-van_ak.UPF
     MD5 check sum: 34e3282627ffb533726feb647e090d62
     Pseudo is Ultrasoft + core correction, Zval = 11.0
     Generated by new atomic code, or converted to UPF format
     Using radial grid of  867 points,  6 beta functions with: 
                l(1) =   0
                l(2) =   0
                l(3) =   1
                l(4) =   1
                l(5) =   2
                l(6) =   2
     Q(r) pseudized with  8 coefficients,  rinner =    1.400   1.400   1.400
                                                       1.400   1.400

     PseudoPot. # 4 for O  read from file:
     ./pseudo/O.pbe-van_ak.UPF
     MD5 check sum: 783ce7fe4c79b6a4916957118fed0856
     Pseudo is Ultrasoft, Zval =  6.0
     Generated by new atomic code, or converted to UPF format
     Using radial grid of  737 points,  4 beta functions with: 
                l(1) =   0
                l(2) =   0
                l(3) =   1
                l(4) =   1
     Q(r) pseudized with  8 coefficients,  rinner =    0.800   0.800   0.800


     PseudoPot. # 5 for Y  read from file:
     ./pseudo/Y.pbe-nsp-van.UPF
     MD5 check sum: 4412fed3ab108fed87a1b7d6a69a4a38
     Pseudo is Ultrasoft + core correction, Zval = 11.0
     Generated by new atomic code, or converted to UPF format
     Using radial grid of  885 points,  6 beta functions with: 
                l(1) =   0
                l(2) =   0
                l(3) =   1
                l(4) =   1
                l(5) =   2
                l(6) =   2
     Q(r) pseudized with  6 coefficients,  rinner =    1.200   1.200   1.200
                                                       1.200   1.200

     atomic species   valence    mass     pseudopotential
        Ba            10.00   137.32700     Ba( 1.00)
        Ca            10.00    40.07800     Ca( 1.00)
        Cu            11.00    63.54600     Cu( 1.00)
        O              6.00    15.99900     O ( 1.00)
        Y             11.00    88.90584     Y ( 1.00)

      4 Sym. Ops. (no inversion) found ( 2 have fractional translation)



   Cartesian axes

     site n.     atom                  positions (alat units)
         1           O   tau(   1) = (  -0.0008343   0.2387265  -0.0222443  )
         2           O   tau(   2) = (   0.5008340   0.2387265  -0.0222443  )
         3           Cu  tau(   3) = (   0.5017257   0.0000000   0.0109608  )
         4           Cu  tau(   4) = (  -0.0017260   0.0000000   0.0109608  )
         5           O   tau(   5) = (  -0.0028933   0.0000000   0.2506504  )
         6           O   tau(   6) = (   0.5028929   0.0000000   0.2506504  )
         7           Ba  tau(   7) = (   0.7499995   0.2387265   0.2749435  )
         8           Ba  tau(   8) = (   0.2499998   0.2387265   0.2755214  )
         9           Cu  tau(   9) = (   0.4980963   0.0000000   0.5208446  )
        10           Cu  tau(  10) = (   0.0019033   0.0000000   0.5208446  )
        11           O   tau(  11) = (   0.2499998   0.0000000   0.5341884  )
        12           O   tau(  12) = (   0.5083351   0.2387265   0.5569851  )
        13           O   tau(  13) = (  -0.0083354   0.2387265   0.5569851  )
        14           O   tau(  14) = (   0.7499995   0.0000000   0.5573831  )
        15           Ca  tau(  15) = (   0.2499998   0.2387265   0.7436937  )
        16           Y   tau(  16) = (   0.7499995   0.2387265   0.7469544  )
        17           O   tau(  17) = (  -0.0063798   0.2387265   0.9248530  )
        18           O   tau(  18) = (   0.5063794   0.2387265   0.9248530  )
        19           O   tau(  19) = (   0.7499995   0.0000000   0.9338544  )
        20           O   tau(  20) = (   0.2499998   0.0000000   0.9461329  )
        21           Cu  tau(  21) = (   0.0015717   0.0000000   0.9686860  )
        22           Cu  tau(  22) = (   0.4984280   0.0000000   0.9686860  )
        23           Ba  tau(  23) = (   0.2499998   0.2387265   1.2085224  )
        24           Ba  tau(  24) = (   0.7499995   0.2387265   1.2233294  )
        25           O   tau(  25) = (   0.0063772   0.0000000   1.2547537  )
        26           O   tau(  26) = (   0.4936224   0.0000000   1.2547537  )
        27           O   tau(  27) = (   0.5384045   0.2387265   1.4952521  )
        28           O   tau(  28) = (  -0.0384049   0.2387265   1.4952521  )
        29           Cu  tau(  29) = (   0.5006120   0.0000000   1.4952546  )
        30           Cu  tau(  30) = (  -0.0006123   0.0000000   1.4952546  )
        31           O   tau(  31) = (   0.4936212   0.0000000   1.7357531  )
        32           O   tau(  32) = (   0.0063785   0.0000000   1.7357531  )
        33           Ba  tau(  33) = (   0.7499995   0.2387265   1.7671824  )
        34           Ba  tau(  34) = (   0.2499998   0.2387265   1.7819920  )
        35           Cu  tau(  35) = (   0.4984280   0.0000000   2.0218232  )
        36           Cu  tau(  36) = (   0.0015717   0.0000000   2.0218232  )
        37           O   tau(  37) = (   0.2499998   0.0000000   2.0443814  )
        38           O   tau(  38) = (   0.7499995   0.0000000   2.0566511  )
        39           O   tau(  39) = (   0.5063781   0.2387265   2.0656562  )
        40           O   tau(  40) = (  -0.0063785   0.2387265   2.0656562  )
        41           Y   tau(  41) = (   0.7499995   0.2387265   2.2435498  )
        42           Ca  tau(  42) = (   0.2499998   0.2387265   2.2468194  )
        43           O   tau(  43) = (   0.7499995   0.0000000   2.7839342  )
        44           O   tau(  44) = (  -0.0083354   0.2387265   2.7843360  )
        45           O   tau(  45) = (   0.5083351   0.2387265   2.7843360  )
        46           O   tau(  46) = (   0.2499998   0.0000000   2.8071340  )
        47           Cu  tau(  47) = (   0.0019059   0.0000000   2.8204676  )
        48           Cu  tau(  48) = (   0.4980938   0.0000000   2.8204676  )
        49           Ba  tau(  49) = (   0.2499998   0.2387265   3.0658073  )
        50           Ba  tau(  50) = (   0.7499995   0.2387265   3.0663495  )
        51           O   tau(  51) = (  -0.0028895   0.0000000   3.0906567  )
        52           O   tau(  52) = (   0.5028891   0.0000000   3.0906567  )
        53           Cu  tau(  53) = (   0.5017844   0.0000000   3.3303412  )
        54           Cu  tau(  54) = (  -0.0017847   0.0000000   3.3303412  )
        55           O   tau(  55) = (   0.5008990   0.2387265   3.3635476  )
        56           O   tau(  56) = (  -0.0008994   0.2387265   3.3635476  )

     number of k points=    25  Gaussian smearing, width (Ry)=  0.0100
                       cart. coord. in units 2pi/alat
        k(    1) = (   0.0000000   0.0000000   0.0000000), wk =   0.0312500
        k(    2) = (   0.0000000   0.2618060   0.0000000), wk =   0.0625000
        k(    3) = (   0.0000000   0.5236121   0.0000000), wk =   0.0625000
        k(    4) = (   0.0000000   0.7854181   0.0000000), wk =   0.0625000
        k(    5) = (   0.0000000  -1.0472241   0.0000000), wk =   0.0312500
        k(    6) = (   0.1250000   0.0000000   0.0000000), wk =   0.0625000
        k(    7) = (   0.1250000   0.2618060   0.0000000), wk =   0.1250000
        k(    8) = (   0.1250000   0.5236121   0.0000000), wk =   0.1250000
        k(    9) = (   0.1250000   0.7854181   0.0000000), wk =   0.1250000
        k(   10) = (   0.1250000  -1.0472241   0.0000000), wk =   0.0625000
        k(   11) = (   0.2500000   0.0000000   0.0000000), wk =   0.0625000
        k(   12) = (   0.2500000   0.2618060   0.0000000), wk =   0.1250000
        k(   13) = (   0.2500000   0.5236121   0.0000000), wk =   0.1250000
        k(   14) = (   0.2500000   0.7854181   0.0000000), wk =   0.1250000
        k(   15) = (   0.2500000  -1.0472241   0.0000000), wk =   0.0625000
        k(   16) = (   0.3750000   0.0000000   0.0000000), wk =   0.0625000
        k(   17) = (   0.3750000   0.2618060   0.0000000), wk =   0.1250000
        k(   18) = (   0.3750000   0.5236121   0.0000000), wk =   0.1250000
        k(   19) = (   0.3750000   0.7854181   0.0000000), wk =   0.1250000
        k(   20) = (   0.3750000  -1.0472241   0.0000000), wk =   0.0625000
        k(   21) = (  -0.5000000   0.0000000   0.0000000), wk =   0.0312500
        k(   22) = (  -0.5000000   0.2618060   0.0000000), wk =   0.0625000
        k(   23) = (  -0.5000000   0.5236121   0.0000000), wk =   0.0625000
        k(   24) = (  -0.5000000   0.7854181   0.0000000), wk =   0.0625000
        k(   25) = (  -0.5000000  -1.0472241   0.0000000), wk =   0.0312500

     Dense  grid:  3021637 G-vectors     FFT dimensions: ( 128,  64, 768)

     Smooth grid:   581865 G-vectors     FFT dimensions: (  80,  36, 450)

     Estimated max dynamical RAM per process >     874.36 MB

     Estimated total dynamical RAM >      27.32 GB

     Initial potential from superposition of free atoms

     starting charge  455.69457, renormalised to  456.00000

     negative rho (up, down):  9.340E-02 0.000E+00
     Starting wfcs are  396 randomized atomic wfcs

     total cpu time spent up to now is       28.7 secs

     Self-consistent Calculation

     iteration #  1     ecut=    60.00 Ry     beta= 0.50
     Davidson diagonalization with overlap
     ethr =  1.00E-02,  avg # of iterations =  2.0

     negative rho (up, down):  8.579E-02 0.000E+00

     total cpu time spent up to now is       79.8 secs

     total energy              =   -3708.32491647 Ry
     Harris-Foulkes estimate   =   -3716.35193839 Ry
     estimated scf accuracy    <      31.08183363 Ry

     iteration #  2     ecut=    60.00 Ry     beta= 0.50
     Davidson diagonalization with overlap
     ethr =  6.82E-03,  avg # of iterations =  2.0

     negative rho (up, down):  8.520E-02 0.000E+00

     total cpu time spent up to now is      130.0 secs

     total energy              =   -3711.05189842 Ry
     Harris-Foulkes estimate   =   -3712.20051572 Ry
     estimated scf accuracy    <      16.80583137 Ry

     iteration #  3     ecut=    60.00 Ry     beta= 0.50
     Davidson diagonalization with overlap
     ethr =  3.69E-03,  avg # of iterations =  1.0

     negative rho (up, down):  8.527E-02 0.000E+00

     total cpu time spent up to now is      175.6 secs

     total energy              =   -3711.30070097 Ry
     Harris-Foulkes estimate   =   -3711.78393354 Ry
     estimated scf accuracy    <      11.19731710 Ry

     iteration #  4     ecut=    60.00 Ry     beta= 0.50
     Davidson diagonalization with overlap
     ethr =  2.46E-03,  avg # of iterations =  1.0

     negative rho (up, down):  8.588E-02 0.000E+00

     total cpu time spent up to now is      221.3 secs

     total energy              =   -3711.20964391 Ry
     Harris-Foulkes estimate   =   -3711.55435103 Ry
     estimated scf accuracy    <       4.64537505 Ry

     iteration #  5     ecut=    60.00 Ry     beta= 0.50
     Davidson diagonalization with overlap
     ethr =  1.02E-03,  avg # of iterations =  2.7

     negative rho (up, down):  8.653E-02 0.000E+00

     total cpu time spent up to now is      271.8 secs

     total energy              =   -3711.22569494 Ry
     Harris-Foulkes estimate   =   -3711.36899346 Ry
     estimated scf accuracy    <       5.48406523 Ry

     iteration #  6     ecut=    60.00 Ry     beta= 0.50
     Davidson diagonalization with overlap
     ethr =  1.02E-03,  avg # of iterations =  2.9

     negative rho (up, down):  8.813E-02 0.000E+00

     total cpu time spent up to now is      322.8 secs

     total energy              =   -3711.08681251 Ry
     Harris-Foulkes estimate   =   -3711.27754848 Ry
     estimated scf accuracy    <       3.79563862 Ry

     iteration #  7     ecut=    60.00 Ry     beta= 0.50
     Davidson diagonalization with overlap
     ethr =  8.32E-04,  avg # of iterations =  6.6

     negative rho (up, down):  8.904E-02 0.000E+00

     total cpu time spent up to now is      386.6 secs

     total energy              =   -3711.07813958 Ry
     Harris-Foulkes estimate   =   -3711.20151421 Ry
     estimated scf accuracy    <       5.87452435 Ry

     iteration #  8     ecut=    60.00 Ry     beta= 0.50
     Davidson diagonalization with overlap
     ethr =  8.32E-04,  avg # of iterations =  2.2

     negative rho (up, down):  8.888E-02 0.000E+00

     total cpu time spent up to now is      436.0 secs

     total energy              =   -3711.11169310 Ry
     Harris-Foulkes estimate   =   -3711.15390346 Ry
     estimated scf accuracy    <       0.42144787 Ry

     iteration #  9     ecut=    60.00 Ry     beta= 0.50
     Davidson diagonalization with overlap
     ethr =  9.24E-05,  avg # of iterations =  6.4

     negative rho (up, down):  8.917E-02 0.000E+00

     total cpu time spent up to now is      498.0 secs

     total energy              =   -3711.12758151 Ry
     Harris-Foulkes estimate   =   -3711.14093721 Ry
     estimated scf accuracy    <       0.64205815 Ry

     iteration # 10     ecut=    60.00 Ry     beta= 0.50
     Davidson diagonalization with overlap
     ethr =  9.24E-05,  avg # of iterations =  1.1

     negative rho (up, down):  8.936E-02 0.000E+00

     total cpu time spent up to now is      543.5 secs

     total energy              =   -3711.11768871 Ry
     Harris-Foulkes estimate   =   -3711.13161092 Ry
     estimated scf accuracy    <       0.32951594 Ry

     iteration # 11     ecut=    60.00 Ry     beta= 0.50
     Davidson diagonalization with overlap
     ethr =  7.23E-05,  avg # of iterations =  4.2

     negative rho (up, down):  8.923E-02 0.000E+00

     total cpu time spent up to now is      597.9 secs

     total energy              =   -3711.11893967 Ry
     Harris-Foulkes estimate   =   -3711.12348863 Ry
     estimated scf accuracy    <       0.26736238 Ry

     iteration # 12     ecut=    60.00 Ry     beta= 0.50
     Davidson diagonalization with overlap
     ethr =  5.86E-05,  avg # of iterations =  2.5

     negative rho (up, down):  8.909E-02 0.000E+00

     total cpu time spent up to now is      646.9 secs

     total energy              =   -3711.11646179 Ry
     Harris-Foulkes estimate   =   -3711.12018860 Ry
     estimated scf accuracy    <       0.17134873 Ry

     iteration # 13     ecut=    60.00 Ry     beta= 0.50
     Davidson diagonalization with overlap
     ethr =  3.76E-05,  avg # of iterations =  5.1

     negative rho (up, down):  8.899E-02 0.000E+00

     total cpu time spent up to now is      702.7 secs

     total energy              =   -3711.11649577 Ry
     Harris-Foulkes estimate   =   -3711.11786112 Ry
     estimated scf accuracy    <       0.13410760 Ry

     iteration # 14     ecut=    60.00 Ry     beta= 0.50
     Davidson diagonalization with overlap
     ethr =  2.94E-05,  avg # of iterations =  3.8

     negative rho (up, down):  8.860E-02 0.000E+00

     total cpu time spent up to now is      755.0 secs

     total energy              =   -3711.11356371 Ry
     Harris-Foulkes estimate   =   -3711.11693007 Ry
     estimated scf accuracy    <       0.11331781 Ry

     iteration # 15     ecut=    60.00 Ry     beta= 0.50
     Davidson diagonalization with overlap
     ethr =  2.49E-05,  avg # of iterations =  3.1

     negative rho (up, down):  8.843E-02 0.000E+00

     total cpu time spent up to now is      805.4 secs

     total energy              =   -3711.11288904 Ry
     Harris-Foulkes estimate   =   -3711.11463216 Ry
     estimated scf accuracy    <       0.08247602 Ry

     iteration # 16     ecut=    60.00 Ry     beta= 0.50
     Davidson diagonalization with overlap
     c_bands:  1 eigenvalues not converged
     c_bands:  1 eigenvalues not converged
     ethr =  1.81E-05,  avg # of iterations =  5.0

     negative rho (up, down):  1.019E-01 0.000E+00

     total cpu time spent up to now is      860.8 secs

     total energy              =   -3711.10970586 Ry
     Harris-Foulkes estimate   =   -3711.11313047 Ry
     estimated scf accuracy    <       0.06068009 Ry

     iteration # 17     ecut=    60.00 Ry     beta= 0.50
     Davidson diagonalization with overlap
     c_bands:  2 eigenvalues not converged
     c_bands:  1 eigenvalues not converged
     ethr =  1.33E-05,  avg # of iterations = 10.5

     negative rho (up, down):  1.136E-01 0.000E+00

     total cpu time spent up to now is      933.6 secs

     total energy              =   -3711.10885625 Ry
     Harris-Foulkes estimate   =   -3711.11054801 Ry
     estimated scf accuracy    <       0.02834010 Ry

     iteration # 18     ecut=    60.00 Ry     beta= 0.50
     Davidson diagonalization with overlap
     c_bands:  2 eigenvalues not converged
     ethr =  6.21E-06,  avg # of iterations = 10.8

     negative rho (up, down):  1.070E-01 0.000E+00

     total cpu time spent up to now is     1008.0 secs

     total energy              =   -3711.10839798 Ry
     Harris-Foulkes estimate   =   -3711.10925133 Ry
     estimated scf accuracy    <       0.01708924 Ry

     iteration # 19     ecut=    60.00 Ry     beta= 0.50
     Davidson diagonalization with overlap
     c_bands:  1 eigenvalues not converged
     ethr =  3.75E-06,  avg # of iterations =  5.4

     negative rho (up, down):  9.940E-02 0.000E+00

     total cpu time spent up to now is     1064.8 secs

     total energy              =   -3711.10796729 Ry
     Harris-Foulkes estimate   =   -3711.10865113 Ry
     estimated scf accuracy    <       0.01576796 Ry

     iteration # 20     ecut=    60.00 Ry     beta= 0.50
     Davidson diagonalization with overlap
     ethr =  3.46E-06,  avg # of iterations =  5.8

     negative rho (up, down):  9.781E-02 0.000E+00

     total cpu time spent up to now is     1123.5 secs

     total energy              =   -3711.10781430 Ry
     Harris-Foulkes estimate   =   -3711.10808186 Ry
     estimated scf accuracy    <       0.00879420 Ry

     iteration # 21     ecut=    60.00 Ry     beta= 0.50
     Davidson diagonalization with overlap
     c_bands:  1 eigenvalues not converged
     ethr =  1.93E-06,  avg # of iterations =  8.0

     negative rho (up, down):  8.947E-02 0.000E+00

     total cpu time spent up to now is     1188.7 secs

     total energy              =   -3711.10756675 Ry
     Harris-Foulkes estimate   =   -3711.10785651 Ry
     estimated scf accuracy    <       0.00360014 Ry

     iteration # 22     ecut=    60.00 Ry     beta= 0.50
     Davidson diagonalization with overlap
     c_bands:  1 eigenvalues not converged
     c_bands:  1 eigenvalues not converged
     ethr =  7.90E-07,  avg # of iterations =  8.6

     negative rho (up, down):  9.040E-02 0.000E+00

     total cpu time spent up to now is     1255.5 secs

     total energy              =   -3711.10764314 Ry
     Harris-Foulkes estimate   =   -3711.10768080 Ry
     estimated scf accuracy    <       0.00269431 Ry

     iteration # 23     ecut=    60.00 Ry     beta= 0.50
     Davidson diagonalization with overlap
     ethr =  5.91E-07,  avg # of iterations =  4.6

     negative rho (up, down):  9.101E-02 0.000E+00

     total cpu time spent up to now is     1311.0 secs

     total energy              =   -3711.10763414 Ry
     Harris-Foulkes estimate   =   -3711.10767383 Ry
     estimated scf accuracy    <       0.00085401 Ry

     iteration # 24     ecut=    60.00 Ry     beta= 0.50
     Davidson diagonalization with overlap
     ethr =  1.87E-07,  avg # of iterations =  5.8

     negative rho (up, down):  9.361E-02 0.000E+00

     total cpu time spent up to now is     1369.7 secs

     total energy              =   -3711.10768411 Ry
     Harris-Foulkes estimate   =   -3711.10766377 Ry
     estimated scf accuracy    <       0.00077481 Ry

     iteration # 25     ecut=    60.00 Ry     beta= 0.50
     Davidson diagonalization with overlap
     c_bands:  1 eigenvalues not converged
     ethr =  1.70E-07,  avg # of iterations =  9.0

     negative rho (up, down):  9.114E-02 0.000E+00

     total cpu time spent up to now is     1437.6 secs

     total energy              =   -3711.10765675 Ry
     Harris-Foulkes estimate   =   -3711.10769874 Ry
     estimated scf accuracy    <       0.00012532 Ry

     iteration # 26     ecut=    60.00 Ry     beta= 0.50
     Davidson diagonalization with overlap
     c_bands:  1 eigenvalues not converged
     ethr =  2.75E-08,  avg # of iterations =  8.3

     negative rho (up, down):  9.074E-02 0.000E+00

     total cpu time spent up to now is     1503.3 secs

     total energy              =   -3711.10766207 Ry
     Harris-Foulkes estimate   =   -3711.10766499 Ry
     estimated scf accuracy    <       0.00005697 Ry

     iteration # 27     ecut=    60.00 Ry     beta= 0.50
     Davidson diagonalization with overlap
     c_bands:  1 eigenvalues not converged
     ethr =  1.25E-08,  avg # of iterations =  2.4

     negative rho (up, down):  9.123E-02 0.000E+00

     total cpu time spent up to now is     1552.0 secs

     total energy              =   -3711.10766278 Ry
     Harris-Foulkes estimate   =   -3711.10766484 Ry
     estimated scf accuracy    <       0.00013128 Ry

     iteration # 28     ecut=    60.00 Ry     beta= 0.50
     Davidson diagonalization with overlap
     ethr =  1.25E-08,  avg # of iterations =  1.0

     negative rho (up, down):  9.130E-02 0.000E+00

     total cpu time spent up to now is     1597.1 secs

     total energy              =   -3711.10766258 Ry
     Harris-Foulkes estimate   =   -3711.10766342 Ry
     estimated scf accuracy    <       0.00005685 Ry

     iteration # 29     ecut=    60.00 Ry     beta= 0.50
     Davidson diagonalization with overlap
     ethr =  1.25E-08,  avg # of iterations =  1.0

     negative rho (up, down):  9.117E-02 0.000E+00

     total cpu time spent up to now is     1641.9 secs

     total energy              =   -3711.10766288 Ry
     Harris-Foulkes estimate   =   -3711.10766302 Ry
     estimated scf accuracy    <       0.00001617 Ry

     iteration # 30     ecut=    60.00 Ry     beta= 0.50
     Davidson diagonalization with overlap
     ethr =  3.55E-09,  avg # of iterations =  1.2

     negative rho (up, down):  9.117E-02 0.000E+00

     total cpu time spent up to now is     1687.9 secs

     total energy              =   -3711.10766277 Ry
     Harris-Foulkes estimate   =   -3711.10766304 Ry
     estimated scf accuracy    <       0.00000685 Ry

     iteration # 31     ecut=    60.00 Ry     beta= 0.50
     Davidson diagonalization with overlap
     ethr =  1.50E-09,  avg # of iterations =  1.8

     negative rho (up, down):  9.121E-02 0.000E+00

     total cpu time spent up to now is     1735.0 secs

     total energy              =   -3711.10766278 Ry
     Harris-Foulkes estimate   =   -3711.10766297 Ry
     estimated scf accuracy    <       0.00000407 Ry

     iteration # 32     ecut=    60.00 Ry     beta= 0.50
     Davidson diagonalization with overlap
     ethr =  8.93E-10,  avg # of iterations =  1.2

     negative rho (up, down):  9.117E-02 0.000E+00

     total cpu time spent up to now is     1780.5 secs

     total energy              =   -3711.10766284 Ry
     Harris-Foulkes estimate   =   -3711.10766287 Ry
     estimated scf accuracy    <       0.00000090 Ry

     iteration # 33     ecut=    60.00 Ry     beta= 0.50
     Davidson diagonalization with overlap
     ethr =  1.97E-10,  avg # of iterations =  3.3

     negative rho (up, down):  9.115E-02 0.000E+00

     total cpu time spent up to now is     1833.0 secs

     total energy              =   -3711.10766291 Ry
     Harris-Foulkes estimate   =   -3711.10766289 Ry
     estimated scf accuracy    <       0.00000017 Ry

     iteration # 34     ecut=    60.00 Ry     beta= 0.50
     Davidson diagonalization with overlap
     ethr =  3.74E-11,  avg # of iterations =  3.2

     negative rho (up, down):  9.111E-02 0.000E+00

     total cpu time spent up to now is     1885.8 secs

     total energy              =   -3711.10766297 Ry
     Harris-Foulkes estimate   =   -3711.10766292 Ry
     estimated scf accuracy    <       0.00000011 Ry

     iteration # 35     ecut=    60.00 Ry     beta= 0.50
     Davidson diagonalization with overlap
     ethr =  2.41E-11,  avg # of iterations =  1.0

     negative rho (up, down):  9.111E-02 0.000E+00

     total cpu time spent up to now is     1930.6 secs

     total energy              =   -3711.10766298 Ry
     Harris-Foulkes estimate   =   -3711.10766297 Ry
     estimated scf accuracy    <       0.00000003 Ry

     iteration # 36     ecut=    60.00 Ry     beta= 0.50
     Davidson diagonalization with overlap
     ethr =  7.53E-12,  avg # of iterations =  2.1

     negative rho (up, down):  9.113E-02 0.000E+00

     total cpu time spent up to now is     1978.4 secs

     total energy              =   -3711.10766294 Ry
     Harris-Foulkes estimate   =   -3711.10766298 Ry
     estimated scf accuracy    <       0.00000002 Ry

     iteration # 37     ecut=    60.00 Ry     beta= 0.50
     Davidson diagonalization with overlap
     ethr =  5.45E-12,  avg # of iterations =  1.3

     negative rho (up, down):  9.113E-02 0.000E+00

     total cpu time spent up to now is     2023.9 secs

     total energy              =   -3711.10766294 Ry
     Harris-Foulkes estimate   =   -3711.10766295 Ry
     estimated scf accuracy    <       0.00000003 Ry

     iteration # 38     ecut=    60.00 Ry     beta= 0.50
     Davidson diagonalization with overlap
     ethr =  5.45E-12,  avg # of iterations =  1.0

     negative rho (up, down):  9.113E-02 0.000E+00

     total cpu time spent up to now is     2067.6 secs

     End of self-consistent calculation

          k = 0.0000 0.0000 0.0000 ( 72781 PWs)   bands (ev):

   -41.3527 -38.9848 -38.2079 -35.8351 -23.1733 -23.0281 -22.9962 -22.8679
   -22.7625 -22.6894 -22.6089 -22.5610 -21.4511 -21.3886 -21.2356 -20.0627
   -20.0267 -19.9484 -18.6830 -18.5788 -18.2111 -17.1831 -17.0478 -16.8648
   -16.2762 -15.7968 -15.5936 -15.5549 -15.1687 -15.1229 -15.0544 -15.0067
   -14.9609 -14.8403 -14.7846 -14.7385 -14.6617 -14.6338 -14.5787 -14.4983
   -14.3000 -14.2829 -14.2365 -14.1737 -14.1679 -14.1612 -14.1063 -14.0938
   -14.0701 -13.8969 -13.8960 -13.7975 -13.7507 -13.4383  -8.5098  -8.4009
    -8.2342  -8.1474  -8.1258  -8.0457  -8.0397  -8.0241  -7.9614  -7.9360
    -7.9075  -7.8270  -7.8181  -7.8112  -7.7710  -7.7696  -7.7545  -7.6695
    -7.6377  -7.6194  -7.5690  -7.5360  -7.4145  -7.3766  -3.6353  -3.1645
    -2.9964  -2.9952  -2.8407  -2.7099  -2.5816  -2.4279  -2.3531  -2.3506
    -2.3151  -2.2654  -2.2380  -2.2224  -2.2029  -2.0667  -2.0660  -2.0182
    -1.9809  -1.8451  -1.8120  -1.8030  -1.7113  -1.7079  -1.6901  -1.6282
    -1.5672  -1.5103  -1.3536  -1.3443  -1.3388  -1.3132  -1.2854  -1.2060
    -1.1109  -1.1006  -1.0992  -1.0933  -1.0863  -1.0632  -1.0579  -1.0562
    -1.0522  -1.0191  -0.9576  -0.9424  -0.8738  -0.8152  -0.7890  -0.7854
    -0.7371  -0.6955  -0.5033  -0.4962  -0.4415  -0.4343  -0.4083  -0.3678
    -0.3638  -0.3412  -0.3371  -0.3152  -0.3108  -0.2240  -0.2132  -0.1952
    -0.1792  -0.1571  -0.1492  -0.1344  -0.1276  -0.1221  -0.1093  -0.0749
    -0.0710  -0.0701  -0.0025  -0.0022   0.0881   0.0939   0.1181   0.1205
     0.1295   0.1332   0.1592   0.1920   0.2281   0.2333   0.2348   0.2363
     0.3020   0.3226   0.3456   0.3827   0.3945   0.4048   0.4181   0.4217
     0.4275   0.4665   0.5367   0.5860   0.5873   0.6300   0.7083   0.8013
     0.8618   0.8796   0.8982   0.9145   0.9385   0.9648   1.0540   1.0771
     1.0816   1.0901   1.0939   1.1030   1.1102   1.1860   1.2149   1.2211
     1.2624   1.2771   1.2951   1.3011   1.4533   1.4622   1.5076   1.5104
     1.5154   1.5891   1.6117   1.6605   1.6637   1.6653   1.7068   1.7333
     1.7541   1.7985   1.8808   1.8964   1.9105   1.9369   1.9881   2.0888
     2.1165   2.1286   2.1331   2.1479   2.2155   2.2451   2.3058   2.3434
     2.3517   2.4282   2.4564   2.5106   2.5623   2.7469   2.8739   3.3876
     4.1295   4.2011   5.0989   5.2203   5.2458   5.2772   5.5035   5.5331
     5.9289   6.3437   6.4645   6.5130   6.5823   6.6998   6.7699   6.7988
     7.0824   7.1522   7.1785   7.2451   7.2817   7.2954   7.2960   7.4313
     7.6487   7.6545   7.9412   7.9913   8.0190   8.1805   8.2352   8.3611
     8.3751   8.4914

          k = 0.0000 0.2618 0.0000 ( 72741 PWs)   bands (ev):

   -41.3506 -38.9834 -38.2052 -35.8334 -23.1498 -23.0092 -22.9717 -22.8488
   -22.7389 -22.6644 -22.5901 -22.5419 -21.4464 -21.3848 -21.2759 -20.0593
   -20.0245 -19.9706 -18.6443 -18.5716 -18.3220 -17.1536 -17.0435 -16.9308
   -16.2250 -15.7595 -15.5474 -15.4875 -15.1099 -15.0707 -15.0573 -14.9516
   -14.9162 -14.8017 -14.7473 -14.7366 -14.6249 -14.5750 -14.5617 -14.4607
   -14.2788 -14.2574 -14.2314 -14.2024 -14.1646 -14.1517 -14.1127 -14.1081
   -14.0753 -13.9530 -13.9001 -13.8105 -13.7941 -13.4681  -8.5190  -8.3913
    -8.2276  -8.1389  -8.1299  -8.0816  -8.0588  -8.0474  -8.0303  -8.0020
    -7.9503  -7.9430  -7.9240  -7.8767  -7.8186  -7.7850  -7.7415  -7.7326
    -7.6801  -7.6621  -7.6582  -7.6552  -7.6274  -7.5827  -3.7673  -3.2647
    -3.1764  -3.0581  -2.8437  -2.7425  -2.6630  -2.5121  -2.4706  -2.3988
    -2.3652  -2.3135  -2.2927  -2.2405  -2.2371  -2.2349  -2.2150  -2.1617
    -2.0629  -2.0530  -2.0274  -1.9364  -1.8827  -1.8104  -1.7917  -1.7123
    -1.6365  -1.6303  -1.5461  -1.5286  -1.5279  -1.5140  -1.5065  -1.4737
    -1.4391  -1.4301  -1.4255  -1.2133  -1.1505  -1.1343  -1.0546  -1.0304
    -1.0049  -0.9832  -0.9583  -0.8860  -0.8828  -0.8337  -0.8293  -0.7550
    -0.6890  -0.6477  -0.6405  -0.6361  -0.5262  -0.5176  -0.4784  -0.4506
    -0.4481  -0.4173  -0.4111  -0.3621  -0.3547  -0.3207  -0.3097  -0.2771
    -0.2215  -0.2046  -0.1804  -0.1473  -0.1289  -0.1171  -0.0841  -0.0265
     0.0304   0.0312   0.0564   0.0581   0.0627   0.0631   0.1261   0.1416
     0.1563   0.1571   0.1963   0.2019   0.2074   0.2101   0.2327   0.2620
     0.2746   0.3070   0.3401   0.3417   0.3714   0.3960   0.5063   0.5380
     0.5645   0.5683   0.5790   0.6590   0.7163   0.7735   0.8116   0.8685
     0.8735   0.8803   0.9367   0.9660   1.0174   1.0334   1.0601   1.0828
     1.1363   1.1801   1.1947   1.1992   1.2355   1.2710   1.2736   1.3092
     1.3256   1.3327   1.3734   1.4001   1.4051   1.4332   1.4350   1.4674
     1.5259   1.5550   1.5903   1.6428   1.6433   1.6558   1.7094   1.7603
     1.7716   1.8027   1.8473   1.8597   1.8654   1.9363   2.0636   2.0866
     2.2187   2.2596   2.2874   2.3560   2.4323   2.5282   2.6802   2.7297
     2.7927   2.8223   2.8372   2.8720   2.8836   3.0691   3.1559   3.4647
     4.1450   4.3356   5.1076   5.3351   5.4817   5.5599   5.6338   5.6625
     6.1394   6.2859   6.3151   6.5478   6.8204   6.8278   6.9856   7.0179
     7.0997   7.1265   7.2251   7.3157   7.3713   7.4635   7.6098   7.6396
     7.6727   7.7915   7.8643   8.1184   8.1852   8.3328   8.3965   8.5757
     8.5850   8.7036

          k = 0.0000 0.5236 0.0000 ( 72651 PWs)   bands (ev):

   -41.3456 -38.9801 -38.1987 -35.8293 -23.0921 -22.9630 -22.9111 -22.8020
   -22.6809 -22.6027 -22.5439 -22.4951 -21.4584 -21.3758 -21.3471 -20.0665
   -20.0191 -20.0080 -18.5622 -18.5541 -18.5446 -17.0835 -17.0706 -17.0330
   -16.0885 -15.6672 -15.5409 -15.2471 -15.1256 -14.9576 -14.8733 -14.8073
   -14.8028 -14.7867 -14.7366 -14.7081 -14.6220 -14.4589 -14.4031 -14.3680
   -14.3479 -14.2727 -14.1994 -14.1522 -14.1388 -14.1218 -14.1013 -14.0932
   -14.0913 -14.0364 -13.9401 -13.9243 -13.7901 -13.5537  -8.5968  -8.4588
    -8.4151  -8.3790  -8.3629  -8.2556  -8.1908  -8.1702  -8.1587  -8.1200
    -8.1192  -8.0296  -8.0143  -8.0000  -7.9846  -7.9383  -7.8887  -7.8851
    -7.7836  -7.7636  -7.7630  -7.7242  -7.6030  -7.5929  -4.2001  -3.6567
    -3.5042  -3.3032  -2.9661  -2.9589  -2.8979  -2.8510  -2.7500  -2.6945
    -2.6848  -2.6411  -2.5841  -2.4765  -2.4337  -2.4008  -2.3593  -2.3193
    -2.3120  -2.2872  -2.2800  -2.2499  -2.2167  -2.2102  -2.2064  -2.1490
    -2.1290  -2.0967  -1.9119  -1.8567  -1.8063  -1.7591  -1.7304  -1.7112
    -1.5239  -1.4602  -1.3666  -1.3592  -1.3355  -1.2165  -1.1808  -1.1074
    -1.0930  -1.0620  -1.0065  -0.9820  -0.9771  -0.9646  -0.9059  -0.8844
    -0.8449  -0.8409  -0.8086  -0.7831  -0.7373  -0.6948  -0.6888  -0.6801
    -0.6742  -0.6396  -0.6394  -0.5912  -0.5664  -0.5499  -0.5183  -0.4749
    -0.4686  -0.4337  -0.3967  -0.3574  -0.3073  -0.2831  -0.0704  -0.0592
    -0.0262  -0.0104   0.0768   0.0844   0.1172   0.1233   0.1781   0.1824
     0.1893   0.2072   0.2343   0.2565   0.2870   0.3992   0.4471   0.4702
     0.5060   0.5850   0.6644   0.7093   0.7830   0.7944   0.8078   0.8735
     0.8932   0.9208   0.9466   0.9551   0.9938   1.0191   1.0198   1.0394
     1.0638   1.1042   1.1281   1.1339   1.1572   1.1779   1.2003   1.2263
     1.2467   1.2569   1.2677   1.2733   1.2780   1.3225   1.3228   1.3675
     1.4135   1.4573   1.4932   1.5283   1.5405   1.5457   1.5723   1.6221
     1.6778   1.6961   1.7042   1.7083   1.7260   1.7572   1.8087   1.8175
     1.8251   1.8621   1.9524   1.9799   1.9898   1.9989   2.0525   2.0749
     2.2810   2.3249   2.3888   2.5426   2.7511   2.9532   2.9919   3.0564
     3.1342   3.3344   3.3918   3.4738   3.6395   3.7033   3.8263   4.0425
     4.2049   4.6484   4.8612   5.2792   5.7473   5.9019   5.9432   6.3854
     6.4678   6.5038   6.5247   6.6314   6.6460   6.8367   6.9154   6.9782
     7.1890   7.6052   7.6840   7.7881   7.9243   8.0033   8.0250   8.1611
     8.2925   8.3024   8.3932   8.4861   8.5169   8.5967   8.7031   8.7327
     8.8781   8.9544

          k = 0.0000 0.7854 0.0000 ( 72634 PWs)   bands (ev):

   -41.3406 -38.9768 -38.1921 -35.8251 -23.0327 -22.9155 -22.8488 -22.7540
   -22.6213 -22.5390 -22.4966 -22.4473 -21.5281 -21.3667 -21.3568 -20.1091
   -20.0137 -20.0088 -18.7711 -18.5367 -18.4387 -17.2055 -17.0226 -16.9972
   -15.9128 -15.5715 -15.5713 -15.1993 -15.0314 -14.8991 -14.8191 -14.7759
   -14.6962 -14.6397 -14.6392 -14.6283 -14.6037 -14.4687 -14.2988 -14.2867
   -14.2755 -14.2548 -14.2418 -14.1819 -14.0911 -14.0881 -14.0557 -14.0506
   -14.0309 -14.0277 -14.0047 -13.9575 -13.8136 -13.6736  -8.9499  -8.8101
    -8.6612  -8.5506  -8.5477  -8.5260  -8.5181  -8.3374  -8.2775  -8.2447
    -8.2412  -8.1945  -8.1255  -8.0834  -8.0467  -7.8728  -7.8719  -7.8327
    -7.8179  -7.7884  -7.7640  -7.7378  -7.4824  -7.4791  -4.6671  -4.1411
    -3.7854  -3.7067  -3.3787  -3.3431  -3.2737  -3.2218  -3.1065  -3.0397
    -3.0008  -2.9840  -2.9754  -2.9097  -2.8595  -2.8414  -2.7298  -2.5610
    -2.4647  -2.4505  -2.4478  -2.3555  -2.3235  -2.3151  -2.2656  -2.2590
    -2.2564  -2.1710  -2.0019  -1.9389  -1.8267  -1.8101  -1.7776  -1.7586
    -1.6787  -1.6338  -1.6040  -1.5942  -1.5494  -1.3151  -1.3125  -1.2920
    -1.2248  -1.1414  -1.1376  -1.1127  -1.0942  -1.0891  -1.0504  -1.0322
    -1.0157  -0.9869  -0.9528  -0.9374  -0.9197  -0.9146  -0.8967  -0.8571
    -0.8437  -0.8219  -0.8119  -0.8063  -0.7642  -0.7368  -0.7174  -0.6782
    -0.6719  -0.6708  -0.4726  -0.3292  -0.3049  -0.2633  -0.2545  -0.1079
    -0.0585   0.0710   0.1022   0.1650   0.1763   0.1902   0.2148   0.2148
     0.2617   0.3746   0.3991   0.4106   0.4622   0.5340   0.6579   0.6657
     0.7388   0.7420   0.8596   0.8833   0.8907   0.9196   0.9514   0.9823
     1.0186   1.0425   1.0760   1.0801   1.1386   1.1707   1.2107   1.2215
     1.2237   1.2503   1.2645   1.2962   1.3374   1.3414   1.3548   1.4185
     1.4491   1.4956   1.5000   1.5127   1.5226   1.5446   1.5581   1.6097
     1.6173   1.6383   1.6456   1.6704   1.7006   1.7059   1.7281   1.7815
     1.8090   1.8151   1.8516   1.8583   1.9020   1.9134   1.9314   2.0862
     2.0992   2.1188   2.1207   2.1332   2.1506   2.1925   2.2947   2.3156
     2.3318   2.3567   2.4068   2.8009   2.8341   2.9042   2.9095   3.0260
     3.0859   3.4084   3.8145   3.9634   4.0000   4.3492   4.3870   4.4139
     4.6459   4.7111   4.9049   5.1737   5.4876   5.6558   5.9738   6.1057
     6.2066   6.6272   6.8480   6.9796   7.1804   7.3156   7.3995   7.4304
     7.7030   7.8289   7.8992   8.1763   8.2657   8.3399   8.4577   8.5827
     8.6433   8.6741   8.6936   8.7336   8.8271   8.9252   8.9510   9.0258
     9.0788   9.1435

          k = 0.0000-1.0472 0.0000 ( 72746 PWs)   bands (ev):

   -41.3385 -38.9755 -38.1894 -35.8234 -23.0077 -22.8955 -22.8224 -22.7338
   -22.5962 -22.5121 -22.4766 -22.4272 -21.5652 -21.3629 -21.3515 -20.1309
   -20.0115 -20.0046 -18.8517 -18.5295 -18.3914 -17.2559 -17.0184 -16.9614
   -15.7970 -15.6281 -15.5304 -15.2337 -15.0384 -14.8662 -14.8363 -14.7576
   -14.6727 -14.6107 -14.5592 -14.5235 -14.4834 -14.4421 -14.4023 -14.3159
   -14.2928 -14.2393 -14.1743 -14.1170 -14.0625 -14.0565 -14.0563 -14.0380
   -14.0301 -13.9875 -13.9774 -13.9415 -13.9140 -13.7223  -9.1029  -8.9634
    -8.7781  -8.6948  -8.6711  -8.6694  -8.5438  -8.3951  -8.3406  -8.3190
    -8.2813  -8.2001  -8.1193  -8.1110  -8.0568  -7.8812  -7.8415  -7.8271
    -7.8264  -7.8178  -7.7254  -7.7113  -7.4340  -7.4251  -4.8554  -4.3433
    -3.8993  -3.8931  -3.5690  -3.5127  -3.4714  -3.4314  -3.2534  -3.2088
    -3.2079  -3.1433  -3.1398  -3.0909  -3.0369  -2.9992  -2.7585  -2.5899
    -2.5837  -2.4859  -2.3648  -2.3458  -2.3314  -2.3307  -2.2832  -2.2436
    -2.1813  -2.1609  -2.0638  -2.0370  -2.0259  -1.8553  -1.8531  -1.8037
    -1.7453  -1.7203  -1.6917  -1.5821  -1.4411  -1.4122  -1.3830  -1.3181
    -1.2623  -1.2538  -1.1925  -1.1862  -1.1739  -1.1678  -1.1454  -1.1443
    -1.0283  -1.0224  -1.0214  -1.0202  -1.0190  -0.9851  -0.9491  -0.9287
    -0.9253  -0.9229  -0.8990  -0.8767  -0.8641  -0.8065  -0.7629  -0.6946
    -0.6811  -0.5998  -0.5081  -0.3544  -0.3144  -0.2904  -0.2385  -0.1847
    -0.1191   0.0909   0.1125   0.1573   0.1665   0.2039   0.2152   0.2227
     0.2985   0.4482   0.4723   0.4747   0.5056   0.6401   0.7499   0.7772
     0.7819   0.7826   0.8799   0.8882   0.8951   0.9114   0.9394   1.0885
     1.1061   1.1144   1.1514   1.1660   1.2166   1.2302   1.2395   1.2474
     1.2823   1.2830   1.2862   1.3053   1.3154   1.3641   1.3928   1.4469
     1.5134   1.5154   1.5926   1.5978   1.6327   1.6421   1.6587   1.6718
     1.7163   1.7181   1.7876   1.7951   1.8037   1.8439   1.8733   1.8734
     1.9842   2.0024   2.0311   2.0457   2.0675   2.0757   2.1058   2.1166
     2.1527   2.2019   2.2035   2.2222   2.2315   2.3032   2.3357   2.3638
     2.3827   2.5201   2.5641   2.5691   2.6843   2.7353   2.9010   2.9853
     3.1602   3.3863   3.8648   4.0904   4.1938   4.5560   4.6247   4.6308
     4.6334   4.7620   4.8801   5.2173   5.3785   5.5485   5.7344   5.8829
     6.3338   6.5150   7.0040   7.1747   7.3979   7.5284   7.7128   7.7904
     7.8501   7.8708   8.1069   8.1357   8.2749   8.2790   8.5189   8.5211
     8.6693   8.7180   8.8337   8.8843   8.8964   9.0242   9.0919   9.1322
     9.1368   9.2811

          k = 0.1250 0.0000 0.0000 ( 72743 PWs)   bands (ev):

   -41.3527 -38.9848 -38.2079 -35.8351 -23.1699 -23.0318 -22.9918 -22.8727
   -22.7592 -22.6847 -22.6125 -22.5660 -21.4512 -21.3878 -21.2356 -20.0626
   -20.0279 -19.9484 -18.6823 -18.5756 -18.2111 -17.1860 -17.0598 -16.8648
   -16.2667 -15.8225 -15.5661 -15.5363 -15.1542 -15.1154 -15.0543 -14.9923
   -14.9649 -14.8326 -14.7783 -14.7510 -14.7086 -14.6415 -14.5854 -14.4651
   -14.3231 -14.2785 -14.2247 -14.1776 -14.1678 -14.1619 -14.1082 -14.0981
   -14.0749 -13.9145 -13.8914 -13.7776 -13.7573 -13.4439  -8.5118  -8.4063
    -8.2365  -8.1372  -8.1299  -8.0323  -8.0320  -8.0285  -7.9660  -7.9411
    -7.8993  -7.8352  -7.8259  -7.8177  -7.7795  -7.7477  -7.7396  -7.6789
    -7.6301  -7.6107  -7.5708  -7.5412  -7.4230  -7.3864  -3.6128  -3.1297
    -2.9904  -2.9637  -2.8763  -2.6745  -2.5613  -2.4545  -2.3586  -2.3494
    -2.3147  -2.2840  -2.2277  -2.2188  -2.2097  -2.0881  -2.0564  -2.0159
    -1.9952  -1.8541  -1.8526  -1.7557  -1.7291  -1.6906  -1.6833  -1.6291
    -1.5529  -1.5297  -1.3668  -1.3368  -1.3052  -1.2854  -1.2299  -1.1943
    -1.1198  -1.1173  -1.0986  -1.0976  -1.0945  -1.0871  -1.0838  -1.0624
    -1.0557  -1.0328  -0.9643  -0.9050  -0.8537  -0.8008  -0.7942  -0.7717
    -0.7166  -0.7057  -0.5727  -0.4995  -0.4869  -0.4835  -0.4710  -0.3738
    -0.3645  -0.3478  -0.3339  -0.3217  -0.3071  -0.2432  -0.2405  -0.2154
    -0.1521  -0.1466  -0.1408  -0.1313  -0.1213  -0.1155  -0.0945  -0.0907
    -0.0757  -0.0721  -0.0033   0.0496   0.0861   0.0879   0.0957   0.1219
     0.1235   0.1263   0.1324   0.1573   0.1919   0.2413   0.2519   0.2719
     0.3168   0.3339   0.3495   0.3692   0.3828   0.3995   0.4303   0.4447
     0.4642   0.4983   0.5324   0.5758   0.5899   0.6094   0.7284   0.7841
     0.8222   0.8547   0.9128   0.9221   0.9372   0.9627   1.0115   1.0337
     1.0562   1.0931   1.1112   1.1204   1.1499   1.1782   1.2022   1.2717
     1.2737   1.3049   1.3096   1.3178   1.4087   1.4518   1.4971   1.5269
     1.5932   1.5934   1.6162   1.6551   1.6667   1.6887   1.7158   1.7245
     1.7501   1.7657   1.8759   1.8932   1.9021   1.9237   1.9898   2.0444
     2.0972   2.1230   2.1298   2.1493   2.2328   2.2793   2.3043   2.3403
     2.3571   2.4351   2.4646   2.5091   2.5792   2.7410   2.8757   3.3170
     4.1849   4.2403   5.1490   5.2493   5.2607   5.2752   5.5111   5.5523
     5.9665   6.3388   6.4421   6.5664   6.5970   6.6401   6.7861   6.8289
     6.8521   6.8688   7.1220   7.1791   7.2883   7.4321   7.6109   7.6586
     7.6891   7.7105   7.9246   8.0143   8.0202   8.2134   8.2680   8.3751
     8.4137   8.5082

          k = 0.1250 0.2618 0.0000 ( 72721 PWs)   bands (ev):

   -41.3506 -38.9834 -38.2052 -35.8334 -23.1466 -23.0127 -22.9674 -22.8533
   -22.7358 -22.6599 -22.5935 -22.5467 -21.4465 -21.3841 -21.2759 -20.0593
   -20.0257 -19.9706 -18.6436 -18.5684 -18.3220 -17.1564 -17.0549 -16.9307
   -16.2159 -15.7845 -15.5300 -15.4608 -15.0971 -15.0721 -15.0489 -14.9397
   -14.9200 -14.7950 -14.7443 -14.7426 -14.6348 -14.6290 -14.5636 -14.4219
   -14.2794 -14.2744 -14.2342 -14.1932 -14.1652 -14.1536 -14.1121 -14.1116
   -14.0794 -13.9634 -13.9003 -13.8141 -13.7770 -13.4729  -8.5204  -8.3948
    -8.2295  -8.1776  -8.1449  -8.1311  -8.0580  -8.0401  -8.0117  -7.9862
    -7.9852  -7.9305  -7.8872  -7.8302  -7.8295  -7.7995  -7.7776  -7.7704
    -7.7275  -7.6918  -7.6056  -7.5982  -7.5831  -7.5437  -3.7421  -3.2287
    -3.1875  -3.0229  -2.8503  -2.7058  -2.6908  -2.4973  -2.4772  -2.4001
    -2.3571  -2.3172  -2.2892  -2.2471  -2.2443  -2.2218  -2.1802  -2.1662
    -2.0778  -2.0525  -2.0268  -1.9321  -1.9109  -1.8755  -1.7844  -1.7096
    -1.6367  -1.6209  -1.5418  -1.5352  -1.5164  -1.5055  -1.4956  -1.4788
    -1.4748  -1.4058  -1.3587  -1.2247  -1.1523  -1.1426  -1.1033  -1.0628
    -1.0269  -0.9688  -0.9577  -0.8857  -0.8587  -0.8546  -0.8036  -0.8021
    -0.7597  -0.7167  -0.6975  -0.6311  -0.5566  -0.5069  -0.4906  -0.4627
    -0.4331  -0.4266  -0.4082  -0.3560  -0.3417  -0.3042  -0.2907  -0.2661
    -0.2095  -0.2000  -0.1553  -0.1518  -0.1377  -0.1194  -0.0829  -0.0506
     0.0284   0.0328   0.0356   0.0451   0.0472   0.0780   0.1225   0.1232
     0.1694   0.1722   0.1882   0.1910   0.2072   0.2083   0.2306   0.2601
     0.2723   0.3126   0.3386   0.3489   0.3638   0.3984   0.4767   0.5177
     0.5548   0.5754   0.6548   0.6614   0.7329   0.7978   0.8118   0.8363
     0.8931   0.9133   0.9511   0.9626   0.9902   1.0245   1.0556   1.1047
     1.1268   1.1573   1.1639   1.1663   1.2430   1.2710   1.2721   1.2818
     1.3432   1.3453   1.3685   1.4061   1.4159   1.4274   1.4690   1.4864
     1.5542   1.5819   1.5873   1.6440   1.6484   1.6574   1.6813   1.7439
     1.7669   1.7720   1.8420   1.8765   1.9669   2.0149   2.0236   2.0723
     2.1214   2.3021   2.3272   2.3949   2.4868   2.5208   2.6766   2.7336
     2.7966   2.8259   2.8358   2.8724   2.8829   3.0611   3.1517   3.4020
     4.2139   4.3552   5.1073   5.3353   5.5194   5.5712   5.6389   5.6888
     6.1729   6.2727   6.3184   6.5554   6.7661   6.8199   6.8824   6.9295
     7.0466   7.1594   7.2346   7.2923   7.3997   7.5160   7.6453   7.7738
     7.7993   7.8674   7.9026   8.1341   8.1970   8.3645   8.4268   8.5560
     8.6265   8.7070

          k = 0.1250 0.5236 0.0000 ( 72666 PWs)   bands (ev):

   -41.3456 -38.9801 -38.1987 -35.8293 -23.0892 -22.9660 -22.9074 -22.8059
   -22.6782 -22.5987 -22.5468 -22.4993 -21.4584 -21.3750 -21.3471 -20.0665
   -20.0203 -20.0079 -18.5622 -18.5510 -18.5441 -17.0851 -17.0716 -17.0431
   -16.0807 -15.6892 -15.5270 -15.2227 -15.1239 -14.9500 -14.8701 -14.8030
   -14.8018 -14.7881 -14.7369 -14.7027 -14.6219 -14.4601 -14.4514 -14.3819
   -14.3054 -14.2739 -14.1980 -14.1700 -14.1373 -14.1210 -14.1030 -14.0930
   -14.0892 -14.0389 -13.9451 -13.9225 -13.7807 -13.5561  -8.6115  -8.4773
    -8.4489  -8.3628  -8.3206  -8.2359  -8.2104  -8.1798  -8.1775  -8.1588
    -8.1265  -8.0825  -8.0257  -7.9604  -7.9192  -7.9030  -7.8858  -7.8332
    -7.8231  -7.8195  -7.7734  -7.7556  -7.5552  -7.5496  -4.1693  -3.6211
    -3.5191  -3.2663  -2.9683  -2.9666  -2.8624  -2.8476  -2.7452  -2.6915
    -2.6789  -2.6589  -2.5790  -2.4784  -2.4311  -2.4018  -2.3590  -2.3208
    -2.3078  -2.2825  -2.2757  -2.2405  -2.2174  -2.2080  -2.2054  -2.1479
    -2.1282  -2.0638  -1.9519  -1.8474  -1.8042  -1.7861  -1.7529  -1.7074
    -1.5270  -1.4921  -1.3623  -1.3432  -1.3236  -1.2935  -1.2365  -1.1239
    -1.0964  -1.0807  -1.0582  -1.0137  -0.9835  -0.9625  -0.9416  -0.8921
    -0.8387  -0.8351  -0.8084  -0.7989  -0.7488  -0.7323  -0.7209  -0.6607
    -0.6562  -0.6327  -0.5933  -0.5922  -0.5698  -0.5501  -0.5149  -0.4950
    -0.4619  -0.4467  -0.3941  -0.3908  -0.2968  -0.2764  -0.0931  -0.0333
    -0.0227  -0.0141   0.0333   0.1030   0.1073   0.1244   0.1615   0.1645
     0.1888   0.2053   0.2535   0.2793   0.3099   0.3927   0.4331   0.4626
     0.5495   0.5904   0.6597   0.7212   0.7388   0.7502   0.7874   0.8785
     0.8882   0.9029   0.9627   0.9748   0.9992   1.0139   1.0330   1.0572
     1.0806   1.0955   1.1151   1.1469   1.1563   1.1647   1.1970   1.2040
     1.2365   1.2460   1.2801   1.3139   1.3230   1.3430   1.3474   1.3550
     1.4319   1.4497   1.4910   1.5173   1.5189   1.5579   1.5649   1.6167
     1.6590   1.7027   1.7058   1.7193   1.7391   1.7721   1.7882   1.8219
     1.9061   1.9430   1.9783   1.9889   1.9899   2.0323   2.0405   2.1460
     2.1734   2.4453   2.4706   2.5574   2.7700   2.9544   2.9930   3.0591
     3.1380   3.3174   3.3618   3.4755   3.6000   3.6713   3.7973   4.0104
     4.2690   4.6578   4.8661   5.2849   5.7539   5.8882   5.9344   6.4009
     6.4838   6.5112   6.5289   6.6358   6.6534   6.8554   6.8825   7.0013
     7.1832   7.4381   7.7332   7.8401   7.9663   8.0628   8.1418   8.2115
     8.2906   8.3192   8.3925   8.4293   8.5078   8.6176   8.7164   8.7557
     8.8498   8.9617

          k = 0.1250 0.7854 0.0000 ( 72652 PWs)   bands (ev):

   -41.3406 -38.9768 -38.1921 -35.8251 -23.0303 -22.9180 -22.8456 -22.7573
   -22.6191 -22.5357 -22.4990 -22.4508 -21.5281 -21.3660 -21.3568 -20.1091
   -20.0150 -20.0086 -18.7711 -18.5337 -18.4382 -17.2055 -17.0320 -16.9993
   -15.9074 -15.5921 -15.5559 -15.1988 -15.0156 -14.8823 -14.8123 -14.7761
   -14.6914 -14.6464 -14.6393 -14.6277 -14.6042 -14.4689 -14.3130 -14.3014
   -14.2849 -14.2488 -14.2351 -14.1738 -14.0979 -14.0869 -14.0581 -14.0566
   -14.0282 -14.0269 -14.0068 -13.9610 -13.8122 -13.6735  -8.9377  -8.8004
    -8.6272  -8.5384  -8.5170  -8.5096  -8.5085  -8.3404  -8.2866  -8.2339
    -8.2033  -8.1933  -8.1305  -8.1263  -8.0477  -7.9106  -7.8792  -7.8537
    -7.8461  -7.7983  -7.7789  -7.7400  -7.4992  -7.4942  -4.6310  -4.1043
    -3.8061  -3.6720  -3.3876  -3.3454  -3.2453  -3.2242  -3.1150  -3.0225
    -2.9898  -2.9838  -2.9729  -2.9122  -2.8610  -2.8434  -2.7160  -2.5501
    -2.5082  -2.4356  -2.4316  -2.3505  -2.3251  -2.3179  -2.2586  -2.2553
    -2.2366  -2.1644  -1.9957  -1.9197  -1.8558  -1.8407  -1.7908  -1.7623
    -1.7189  -1.6774  -1.6139  -1.5872  -1.5676  -1.3438  -1.3159  -1.2697
    -1.2148  -1.1782  -1.1411  -1.1200  -1.1116  -1.0975  -1.0698  -1.0650
    -1.0467  -1.0183  -0.9540  -0.9323  -0.8969  -0.8947  -0.8667  -0.8525
    -0.8474  -0.8303  -0.8077  -0.7885  -0.7717  -0.7390  -0.7209  -0.6808
    -0.6604  -0.6373  -0.5948  -0.3390  -0.2912  -0.2704  -0.2465  -0.0542
     0.0017   0.0579   0.0676   0.1304   0.1446   0.2013   0.2279   0.2443
     0.2947   0.3697   0.3794   0.4544   0.4549   0.5305   0.5991   0.6381
     0.7545   0.7697   0.8372   0.8732   0.8832   0.9489   0.9831   0.9958
     1.0049   1.0223   1.0665   1.0719   1.1277   1.1596   1.1616   1.2005
     1.2418   1.2661   1.2808   1.2985   1.3237   1.3672   1.3926   1.4063
     1.4127   1.4256   1.4934   1.5316   1.5503   1.5792   1.5824   1.6308
     1.6439   1.6558   1.6626   1.6779   1.7028   1.7231   1.7588   1.7976
     1.8190   1.8350   1.8456   1.8733   1.8992   1.9216   2.0053   2.0399
     2.0884   2.1079   2.1376   2.1418   2.2024   2.2040   2.2643   2.3480
     2.3802   2.3881   2.4703   2.8028   2.8041   2.9092   2.9148   3.0311
     3.1008   3.4040   3.8111   3.9181   3.9637   4.2850   4.3560   4.4254
     4.5984   4.7151   4.9205   5.1717   5.5233   5.6307   6.0291   6.1428
     6.2097   6.6546   6.8193   6.9764   7.1493   7.2824   7.3828   7.3998
     7.6447   7.6971   7.8623   8.2244   8.2876   8.4201   8.4825   8.6078
     8.6724   8.6842   8.7112   8.7625   8.8589   8.9512   8.9786   9.0437
     9.0873   9.1562

          k = 0.1250-1.0472 0.0000 ( 72726 PWs)   bands (ev):

   -41.3385 -38.9755 -38.1894 -35.8234 -23.0055 -22.8978 -22.8195 -22.7369
   -22.5941 -22.5089 -22.4788 -22.4305 -21.5652 -21.3622 -21.3515 -20.1309
   -20.0127 -20.0044 -18.8516 -18.5265 -18.3909 -17.2559 -17.0274 -16.9634
   -15.7943 -15.6243 -15.5334 -15.2371 -15.0271 -14.8558 -14.8125 -14.7560
   -14.6598 -14.6322 -14.5725 -14.5163 -14.4838 -14.4416 -14.3954 -14.3086
   -14.3040 -14.2568 -14.1865 -14.1217 -14.0601 -14.0560 -14.0543 -14.0389
   -14.0291 -13.9883 -13.9797 -13.9454 -13.9093 -13.7259  -9.0733  -8.9332
    -8.7485  -8.6657  -8.6413  -8.6389  -8.5419  -8.3642  -8.3342  -8.3135
    -8.2987  -8.1964  -8.1460  -8.1222  -8.0579  -7.9135  -7.8791  -7.8615
    -7.8297  -7.8149  -7.7551  -7.7281  -7.4736  -7.4694  -4.8174  -4.3054
    -3.9224  -3.8588  -3.5696  -3.5254  -3.4444  -3.4336  -3.2640  -3.2074
    -3.2061  -3.1425  -3.1239  -3.0927  -3.0414  -2.9896  -2.7417  -2.5694
    -2.5640  -2.4657  -2.3816  -2.3482  -2.3289  -2.3257  -2.2835  -2.2446
    -2.2215  -2.1555  -2.1265  -2.0593  -1.9915  -1.8572  -1.8457  -1.7731
    -1.7152  -1.6960  -1.6941  -1.6011  -1.5502  -1.4760  -1.3932  -1.3174
    -1.2892  -1.2499  -1.2263  -1.1848  -1.1838  -1.1722  -1.1510  -1.1460
    -1.0636  -1.0373  -1.0051  -0.9976  -0.9935  -0.9472  -0.9312  -0.9277
    -0.9240  -0.9143  -0.9012  -0.8630  -0.8552  -0.8115  -0.7674  -0.6996
    -0.6701  -0.6564  -0.5743  -0.3254  -0.3056  -0.2918  -0.2499  -0.0944
    -0.0726   0.0642   0.0862   0.1320   0.1372   0.1880   0.2321   0.2832
     0.3202   0.4625   0.4756   0.4829   0.5225   0.6020   0.6424   0.7352
     0.8034   0.8304   0.8932   0.9045   0.9093   0.9193   0.9321   1.0839
     1.0945   1.0970   1.1506   1.1533   1.1660   1.1688   1.2303   1.2609
     1.2751   1.2992   1.3115   1.3187   1.3195   1.3873   1.4195   1.4815
     1.5139   1.5184   1.5672   1.6078   1.6455   1.6460   1.6545   1.7265
     1.7282   1.7708   1.7842   1.7924   1.8381   1.8549   1.8689   1.9054
     1.9833   2.0329   2.0473   2.0580   2.0815   2.0884   2.1114   2.1480
     2.1566   2.1765   2.1916   2.2321   2.2638   2.2992   2.3424   2.3717
     2.3913   2.5128   2.5579   2.5732   2.6959   2.7461   2.9126   2.9559
     3.1678   3.3907   3.8617   4.0654   4.1388   4.4771   4.5508   4.6147
     4.6831   4.7808   4.8165   5.2070   5.4167   5.5252   5.8025   5.9510
     6.3180   6.5454   6.9608   7.1858   7.2945   7.5006   7.6205   7.7623
     7.7834   7.8747   8.0942   8.1065   8.1141   8.2095   8.5785   8.6589
     8.7224   8.7805   8.9042   8.9452   8.9852   9.0213   9.1509   9.1580
     9.1701   9.2691

          k = 0.2500 0.0000 0.0000 ( 72711 PWs)   bands (ev):

   -41.3527 -38.9848 -38.2079 -35.8351 -23.1608 -23.0415 -22.9791 -22.8861
   -22.7504 -22.6712 -22.6219 -22.5802 -21.4513 -21.3861 -21.2356 -20.0624
   -20.0310 -19.9484 -18.6805 -18.5678 -18.2111 -17.1932 -17.0882 -16.8648
   -16.2407 -15.8793 -15.4997 -15.4922 -15.1188 -15.0961 -15.0527 -14.9772
   -14.9517 -14.8295 -14.8098 -14.7676 -14.7533 -14.6607 -14.5972 -14.4183
   -14.3825 -14.2648 -14.1958 -14.1829 -14.1727 -14.1609 -14.1125 -14.1055
   -14.0858 -13.9511 -13.8924 -13.7726 -13.7327 -13.4594  -8.5169  -8.4177
    -8.2414  -8.1377  -8.1117  -8.0390  -8.0113  -7.9988  -7.9780  -7.9505
    -7.8756  -7.8582  -7.8368  -7.8367  -7.7868  -7.7132  -7.7056  -7.7051
    -7.6088  -7.5858  -7.5768  -7.5563  -7.4465  -7.4142  -3.5518  -3.0290
    -2.9776  -2.9588  -2.8695  -2.5774  -2.5233  -2.5113  -2.3780  -2.3661
    -2.3252  -2.3148  -2.2374  -2.2097  -2.1837  -2.1457  -2.0837  -2.0299
    -2.0093  -1.8903  -1.8710  -1.7609  -1.6868  -1.6478  -1.6378  -1.6221
    -1.6080  -1.4486  -1.3617  -1.3563  -1.3313  -1.2321  -1.2050  -1.1652
    -1.1527  -1.1299  -1.1192  -1.1144  -1.0960  -1.0918  -1.0603  -1.0538
    -1.0458  -1.0010  -0.9474  -0.8812  -0.8234  -0.7946  -0.7814  -0.7600
    -0.7326  -0.7235  -0.6617  -0.5996  -0.5739  -0.4964  -0.4770  -0.4445
    -0.3937  -0.3817  -0.3664  -0.3327  -0.3129  -0.3005  -0.2978  -0.2666
    -0.2556  -0.1618  -0.1410  -0.1327  -0.1202  -0.1153  -0.1047  -0.0840
    -0.0771   0.0036   0.0256   0.0514   0.0645   0.0981   0.1146   0.1207
     0.1259   0.1372   0.1494   0.1526   0.1846   0.2582   0.2642   0.3346
     0.3362   0.3463   0.3490   0.3517   0.3795   0.3875   0.4409   0.4766
     0.5198   0.5237   0.5574   0.5591   0.5856   0.6594   0.7292   0.7479
     0.7859   0.8366   0.8727   0.8797   0.9080   0.9324   0.9650   1.0026
     1.0534   1.0687   1.1240   1.1621   1.1706   1.1953   1.2388   1.2623
     1.3039   1.3160   1.3561   1.4109   1.4310   1.4434   1.4620   1.5548
     1.5590   1.5822   1.6345   1.6663   1.6707   1.6724   1.6802   1.7397
     1.7602   1.7662   1.8468   1.8691   1.8883   1.9196   1.9679   2.0164
     2.0820   2.0823   2.1158   2.1881   2.2631   2.3005   2.3332   2.3454
     2.3779   2.4657   2.4873   2.5059   2.6259   2.7186   2.8715   3.1630
     4.2300   4.4094   5.2356   5.2576   5.2898   5.3737   5.4761   5.6715
     6.0764   6.3363   6.4002   6.4014   6.4781   6.5784   6.6205   6.7310
     6.9778   7.0073   7.0656   7.1805   7.2991   7.4206   7.7017   7.7702
     7.8609   7.9747   8.0026   8.0230   8.1253   8.2343   8.2995   8.3568
     8.4196   8.6015

          k = 0.2500 0.2618 0.0000 ( 72704 PWs)   bands (ev):

   -41.3506 -38.9834 -38.2052 -35.8334 -23.1380 -23.0219 -22.9554 -22.8661
   -22.7275 -22.6471 -22.6023 -22.5602 -21.4466 -21.3823 -21.2759 -20.0591
   -20.0288 -19.9706 -18.6419 -18.5606 -18.3220 -17.1632 -17.0819 -16.9305
   -16.1912 -15.8389 -15.4965 -15.3886 -15.0752 -15.0617 -15.0301 -14.9315
   -14.9063 -14.7827 -14.7688 -14.7434 -14.7206 -14.6436 -14.5611 -14.3758
   -14.3358 -14.2634 -14.2395 -14.1717 -14.1648 -14.1585 -14.1177 -14.1105
   -14.0871 -13.9909 -13.9044 -13.8212 -13.7387 -13.4859  -8.5240  -8.4066
    -8.2360  -8.2278  -8.1852  -8.1650  -8.1116  -8.0502  -8.0303  -7.9637
    -7.9380  -7.9274  -7.8654  -7.8472  -7.8162  -7.8131  -7.7827  -7.7728
    -7.7707  -7.7168  -7.5445  -7.5259  -7.5217  -7.4875  -3.6722  -3.2256
    -3.1247  -2.9233  -2.8622  -2.7420  -2.6053  -2.5185  -2.4725  -2.4037
    -2.3381  -2.3226  -2.2869  -2.2646  -2.2628  -2.1792  -2.1770  -2.1259
    -2.0871  -2.0458  -2.0247  -2.0139  -1.9661  -1.9175  -1.7776  -1.7025
    -1.6567  -1.5872  -1.5511  -1.5359  -1.5191  -1.5036  -1.4831  -1.4783
    -1.4161  -1.3331  -1.3303  -1.2844  -1.2486  -1.1518  -1.1477  -1.1166
    -1.0795  -1.0276  -0.9829  -0.9060  -0.8910  -0.8630  -0.8134  -0.8065
    -0.7948  -0.7263  -0.7220  -0.6751  -0.6320  -0.5696  -0.5107  -0.4772
    -0.4340  -0.4288  -0.4218  -0.4146  -0.3204  -0.2864  -0.2603  -0.2424
    -0.1930  -0.1887  -0.1702  -0.1557  -0.1461  -0.1131  -0.1058  -0.0563
    -0.0316   0.0096   0.0279   0.0462   0.0482   0.0692   0.1078   0.1243
     0.1641   0.1746   0.1956   0.2040   0.2166   0.2411   0.2482   0.2673
     0.2807   0.3244   0.3394   0.3589   0.3995   0.4115   0.4598   0.4766
     0.5068   0.5791   0.6413   0.7502   0.7775   0.8129   0.8153   0.8822
     0.9026   0.9336   0.9628   0.9798   1.0054   1.0158   1.0311   1.0581
     1.0929   1.1141   1.1196   1.1556   1.2101   1.2567   1.2756   1.2802
     1.3179   1.3840   1.3854   1.4025   1.4476   1.4854   1.5192   1.5419
     1.5432   1.5537   1.5929   1.6117   1.6294   1.6507   1.6769   1.7372
     1.7732   1.8060   1.8283   1.9210   1.9570   2.0247   2.0668   2.1019
     2.2000   2.2587   2.4063   2.4428   2.5214   2.6585   2.6632   2.7443
     2.8074   2.8264   2.8379   2.8722   2.8796   3.0306   3.1199   3.2798
     4.3112   4.4593   5.0988   5.3107   5.5489   5.6280   5.7205   5.7648
     6.2368   6.2728   6.3427   6.5368   6.5705   6.6292   6.6956   7.0406
     7.0739   7.1410   7.3090   7.3450   7.3699   7.5799   7.7461   7.9546
     7.9734   8.0191   8.0615   8.1639   8.2914   8.4277   8.4823   8.5241
     8.5890   8.7466

          k = 0.2500 0.5236 0.0000 ( 72642 PWs)   bands (ev):

   -41.3456 -38.9801 -38.1987 -35.8293 -23.0818 -22.9739 -22.8969 -22.8169
   -22.6711 -22.5875 -22.5543 -22.5111 -21.4585 -21.3733 -21.3472 -20.0664
   -20.0233 -20.0078 -18.5621 -18.5435 -18.5426 -17.0898 -17.0738 -17.0663
   -16.0599 -15.7347 -15.5032 -15.1564 -15.1196 -14.9332 -14.8612 -14.8035
   -14.7914 -14.7884 -14.7387 -14.6883 -14.6222 -14.5553 -14.4285 -14.3905
   -14.2869 -14.2757 -14.2156 -14.1854 -14.1332 -14.1190 -14.1074 -14.0925
   -14.0836 -14.0455 -13.9557 -13.9199 -13.7594 -13.5622  -8.6298  -8.4899
    -8.4843  -8.3629  -8.3522  -8.2312  -8.2305  -8.1974  -8.1941  -8.1847
    -8.1314  -8.0504  -8.0313  -7.9580  -7.9449  -7.9104  -7.8801  -7.8147
    -7.7952  -7.7859  -7.7722  -7.7420  -7.5175  -7.5018  -4.0831  -3.5677
    -3.5205  -3.1644  -3.0022  -2.9677  -2.8437  -2.7676  -2.7547  -2.7198
    -2.6828  -2.6064  -2.5620  -2.4859  -2.4208  -2.4062  -2.3569  -2.3222
    -2.3027  -2.2744  -2.2621  -2.2247  -2.2135  -2.2022  -2.1948  -2.1440
    -2.1202  -2.0475  -1.9791  -1.9608  -1.8346  -1.7457  -1.7343  -1.6936
    -1.6010  -1.5380  -1.5168  -1.3936  -1.3267  -1.2832  -1.2263  -1.2186
    -1.1770  -1.1173  -1.0580  -1.0506  -1.0490  -1.0230  -0.9877  -0.9472
    -0.9153  -0.8680  -0.8251  -0.7882  -0.7590  -0.7421  -0.7106  -0.6894
    -0.6341  -0.6145  -0.5989  -0.5691  -0.5383  -0.5348  -0.5268  -0.5019
    -0.4873  -0.4402  -0.3954  -0.3806  -0.2688  -0.2608  -0.1624  -0.0716
    -0.0494  -0.0273  -0.0018   0.0439   0.0752   0.1224   0.1368   0.2121
     0.2296   0.2750   0.2907   0.3573   0.3669   0.3834   0.4089   0.4475
     0.5936   0.6422   0.6504   0.6719   0.6982   0.7371   0.7545   0.8354
     0.8674   0.9186   0.9462   0.9609   0.9721   0.9960   1.0024   1.0236
     1.0737   1.0840   1.1003   1.1249   1.1526   1.1878   1.2462   1.2744
     1.2751   1.2850   1.3124   1.3376   1.3553   1.3697   1.4014   1.4107
     1.4251   1.4443   1.4708   1.4846   1.5400   1.5592   1.5797   1.6006
     1.6021   1.6373   1.7176   1.7376   1.7579   1.8240   1.8412   1.9187
     1.9386   1.9506   1.9687   1.9803   1.9978   2.0767   2.0893   2.2300
     2.3961   2.4152   2.6530   2.7505   2.8675   2.9571   2.9991   3.0653
     3.1592   3.2370   3.2907   3.4781   3.5334   3.5735   3.7067   3.9185
     4.4007   4.6830   4.8777   5.2837   5.7485   5.9000   5.9051   6.4415
     6.5259   6.5281   6.5359   6.6450   6.6669   6.8214   6.9122   7.0567
     7.1468   7.2243   7.8693   7.9639   8.0680   8.0840   8.1919   8.2421
     8.2942   8.3719   8.3992   8.5161   8.5586   8.6553   8.7269   8.8031
     8.8349   8.9840

          k = 0.2500 0.7854 0.0000 ( 72670 PWs)   bands (ev):

   -41.3406 -38.9768 -38.1921 -35.8252 -23.0241 -22.9246 -22.8367 -22.7666
   -22.6133 -22.5261 -22.5051 -22.4608 -21.5281 -21.3643 -21.3569 -20.1091
   -20.0179 -20.0083 -18.7710 -18.5263 -18.4369 -17.2055 -17.0544 -17.0045
   -15.8935 -15.6166 -15.5449 -15.1979 -14.9757 -14.8321 -14.7927 -14.7877
   -14.6761 -14.6654 -14.6352 -14.6266 -14.6028 -14.4695 -14.3835 -14.3331
   -14.2692 -14.2322 -14.2161 -14.1712 -14.1166 -14.0834 -14.0801 -14.0593
   -14.0249 -14.0221 -14.0111 -13.9692 -13.8091 -13.6734  -8.8946  -8.7605
    -8.5518  -8.5129  -8.4719  -8.4715  -8.4012  -8.3993  -8.3309  -8.2576
    -8.1780  -8.1334  -8.1219  -8.1180  -8.0470  -8.0050  -7.9712  -7.9374
    -7.8504  -7.8350  -7.7949  -7.7457  -7.5546  -7.5508  -4.5299  -4.0017
    -3.8702  -3.5780  -3.4289  -3.3427  -3.2305  -3.1728  -3.1425  -2.9914
    -2.9850  -2.9658  -2.9343  -2.9193  -2.8648  -2.8493  -2.6718  -2.6286
    -2.5121  -2.3849  -2.3543  -2.3507  -2.3317  -2.3184  -2.2586  -2.2506
    -2.1770  -2.1343  -2.0545  -1.9923  -1.9224  -1.9008  -1.8382  -1.7775
    -1.7456  -1.6920  -1.6021  -1.5575  -1.5373  -1.4920  -1.3607  -1.3282
    -1.2471  -1.2289  -1.2120  -1.2027  -1.1455  -1.1133  -1.0900  -1.0779
    -1.0704  -1.0041  -0.9497  -0.9456  -0.8944  -0.8841  -0.8758  -0.8561
    -0.8166  -0.8020  -0.7905  -0.7655  -0.7472  -0.7432  -0.7255  -0.6768
    -0.6671  -0.6211  -0.6061  -0.3728  -0.2888  -0.2716  -0.2177  -0.1110
    -0.0059   0.0244   0.0601   0.1390   0.1973   0.2448   0.2575   0.2666
     0.3072   0.3349   0.4245   0.4551   0.5104   0.5534   0.5759   0.5789
     0.7751   0.7977   0.8262   0.8551   0.8795   0.9478   0.9534   0.9891
     1.0064   1.0378   1.0505   1.0678   1.1026   1.1243   1.1960   1.1998
     1.2336   1.2767   1.2816   1.2944   1.3550   1.3569   1.3631   1.3907
     1.4295   1.4589   1.4912   1.5052   1.5611   1.5822   1.5974   1.6309
     1.6424   1.6452   1.6643   1.6818   1.7182   1.7320   1.7553   1.7691
     1.8023   1.8596   1.8698   1.8955   1.8987   1.9503   2.0520   2.0725
     2.0856   2.1664   2.1777   2.2259   2.2551   2.2668   2.3246   2.3720
     2.3999   2.6237   2.6724   2.7603   2.8088   2.9270   2.9444   3.0466
     3.1728   3.3871   3.7364   3.8180   3.9181   4.0956   4.1855   4.4286
     4.5084   4.7451   4.9592   5.1626   5.5448   5.6579   6.1316   6.1855
     6.3375   6.7055   6.7741   6.9443   7.0440   7.1703   7.2935   7.3042
     7.4805   7.6425   7.8742   8.0898   8.3936   8.4805   8.5427   8.6356
     8.6664   8.7379   8.7992   8.8887   8.9211   9.0317   9.0538   9.1106
     9.1355   9.1694

          k = 0.2500-1.0472 0.0000 ( 72644 PWs)   bands (ev):

   -41.3385 -38.9755 -38.1894 -35.8234 -22.9998 -22.9038 -22.8113 -22.7453
   -22.5889 -22.5001 -22.4844 -22.4396 -21.5652 -21.3606 -21.3516 -20.1309
   -20.0156 -20.0042 -18.8515 -18.5192 -18.3897 -17.2560 -17.0490 -16.9682
   -15.7878 -15.6138 -15.5419 -15.2454 -14.9947 -14.8257 -14.7617 -14.7479
   -14.6701 -14.6249 -14.6095 -14.5076 -14.4846 -14.4402 -14.3761 -14.3351
   -14.3064 -14.2883 -14.2180 -14.1398 -14.0545 -14.0532 -14.0447 -14.0414
   -14.0270 -13.9906 -13.9856 -13.9568 -13.8969 -13.7356  -8.9889  -8.8464
    -8.6633  -8.5824  -8.5556  -8.5501  -8.5359  -8.4038  -8.3321  -8.2744
    -8.2442  -8.2291  -8.1859  -8.1307  -8.0640  -8.0043  -7.9758  -7.9598
    -7.8754  -7.8360  -7.8072  -7.7361  -7.5903  -7.5805  -4.7109  -4.2002
    -3.9927  -3.7660  -3.5954  -3.5432  -3.4393  -3.3754  -3.2975  -3.2048
    -3.1997  -3.1502  -3.0971  -3.0669  -3.0543  -2.9579  -2.6885  -2.5259
    -2.4889  -2.4569  -2.4420  -2.4098  -2.3555  -2.3280  -2.2830  -2.2636
    -2.2442  -2.1672  -2.1277  -2.0452  -1.9053  -1.8769  -1.8297  -1.7932
    -1.7390  -1.7200  -1.6596  -1.6437  -1.6066  -1.5961  -1.5594  -1.4150
    -1.3212  -1.2495  -1.2361  -1.2181  -1.1866  -1.1804  -1.1532  -1.1217
    -1.0937  -1.0637  -1.0158  -0.9676  -0.9612  -0.9609  -0.9501  -0.9396
    -0.8980  -0.8929  -0.8371  -0.8355  -0.8261  -0.8175  -0.7660  -0.7193
    -0.7165  -0.6247  -0.5717  -0.3489  -0.2896  -0.2823  -0.2300  -0.1212
    -0.0091   0.0452   0.0667   0.1083   0.2198   0.2340   0.2547   0.2645
     0.3894   0.4411   0.4579   0.4896   0.5688   0.6056   0.6363   0.6629
     0.8352   0.8744   0.8968   0.9226   0.9239   0.9464   0.9990   1.0189
     1.0381   1.1018   1.1060   1.1190   1.1331   1.1524   1.1695   1.2741
     1.2921   1.3058   1.3132   1.3664   1.4113   1.4145   1.4282   1.4582
     1.4675   1.5227   1.5350   1.5447   1.5669   1.6446   1.6473   1.6783
     1.7416   1.7732   1.7814   1.8017   1.8237   1.8531   1.9398   2.0233
     2.0383   2.0415   2.0516   2.0763   2.0768   2.0945   2.1026   2.1285
     2.1371   2.1669   2.2918   2.3098   2.3617   2.3968   2.4162   2.4923
     2.4930   2.5409   2.5489   2.5873   2.7235   2.8236   2.8756   2.9798
     3.1993   3.3994   3.8323   3.9129   4.0904   4.2494   4.3386   4.5911
     4.6304   4.7501   4.8622   5.1817   5.4329   5.5638   5.9951   6.1446
     6.2757   6.6255   6.8964   7.0265   7.1034   7.3719   7.5187   7.5264
     7.7883   7.8295   7.9108   8.0686   8.0757   8.1792   8.6976   8.7238
     8.7789   8.8844   9.0199   9.0926   9.1109   9.1818   9.2000   9.2151
     9.2793   9.3212

          k = 0.3750 0.0000 0.0000 ( 72766 PWs)   bands (ev):

   -41.3527 -38.9848 -38.2079 -35.8351 -23.1500 -23.0530 -22.9610 -22.9050
   -22.7402 -22.6511 -22.6328 -22.6012 -21.4513 -21.3843 -21.2356 -20.0621
   -20.0342 -19.9484 -18.6788 -18.5597 -18.2111 -17.2002 -17.1158 -16.8648
   -16.2077 -15.9364 -15.4691 -15.3973 -15.0889 -15.0846 -15.0448 -14.9973
   -14.8954 -14.8934 -14.8241 -14.7795 -14.7613 -14.6832 -14.5866 -14.4574
   -14.3892 -14.2483 -14.1875 -14.1804 -14.1711 -14.1402 -14.1162 -14.1108
   -14.0948 -14.0043 -13.8952 -13.7868 -13.6888 -13.4787  -8.5221  -8.4277
    -8.2455  -8.1433  -8.0838  -8.0502  -7.9907  -7.9804  -7.9595  -7.9586
    -7.8911  -7.8655  -7.8426  -7.8407  -7.7936  -7.7426  -7.6769  -7.6708
    -7.5871  -7.5785  -7.5782  -7.5478  -7.4793  -7.4550  -3.4742  -3.0485
    -2.9630  -2.8738  -2.7331  -2.5621  -2.5012  -2.4938  -2.4526  -2.4090
    -2.3493  -2.2951  -2.2780  -2.2245  -2.1998  -2.1796  -2.0924  -2.0073
    -2.0009  -1.8904  -1.8868  -1.7841  -1.6798  -1.6638  -1.6403  -1.6325
    -1.6028  -1.4423  -1.3643  -1.3288  -1.3253  -1.2042  -1.1636  -1.1335
    -1.1219  -1.1210  -1.0939  -1.0904  -1.0823  -1.0574  -1.0566  -1.0531
    -1.0037  -0.9787  -0.9774  -0.9247  -0.8625  -0.8432  -0.8055  -0.7607
    -0.7079  -0.6967  -0.6644  -0.6225  -0.5943  -0.5862  -0.5811  -0.5144
    -0.5015  -0.4751  -0.3943  -0.3806  -0.3667  -0.3248  -0.2998  -0.2776
    -0.2288  -0.1959  -0.1609  -0.1493  -0.1335  -0.1017  -0.0919  -0.0852
    -0.0735  -0.0330   0.0512   0.0575   0.0714   0.1047   0.1185   0.1319
     0.1462   0.1724   0.2127   0.2136   0.2230   0.2753   0.2966   0.3030
     0.3215   0.3480   0.3557   0.3619   0.3893   0.4278   0.4351   0.4583
     0.5018   0.5315   0.5750   0.5785   0.6025   0.6779   0.7162   0.7438
     0.7855   0.8133   0.8308   0.8595   0.8632   0.9024   0.9973   1.0117
     1.0429   1.0515   1.1099   1.1719   1.2177   1.2240   1.2384   1.2758
     1.3315   1.3493   1.3696   1.3983   1.4017   1.4126   1.5207   1.5253
     1.5573   1.5949   1.6068   1.6119   1.6767   1.6839   1.7114   1.7272
     1.7451   1.7773   1.7939   1.8098   1.8426   1.8481   2.0119   2.0232
     2.0459   2.1095   2.1570   2.2340   2.2920   2.2966   2.3266   2.3752
     2.3965   2.4732   2.5332   2.5884   2.6730   2.6919   2.8466   2.9912
     4.2627   4.6145   5.1254   5.2662   5.4155   5.4944   5.5873   5.8131
     6.0542   6.1305   6.2263   6.3656   6.3673   6.5951   6.6365   6.9218
     6.9761   7.0711   7.1819   7.2006   7.2566   7.5575   7.6970   7.7507
     7.8811   7.9024   8.0062   8.0258   8.0707   8.2727   8.3339   8.4312
     8.5156   8.6972

          k = 0.3750 0.2618 0.0000 ( 72708 PWs)   bands (ev):

   -41.3506 -38.9834 -38.2052 -35.8334 -23.1277 -23.0327 -22.9382 -22.8839
   -22.7179 -22.6279 -22.6125 -22.5801 -21.4466 -21.3806 -21.2759 -20.0588
   -20.0319 -19.9706 -18.6403 -18.5527 -18.3220 -17.1699 -17.1083 -16.9304
   -16.1600 -15.8930 -15.4696 -15.2944 -15.0740 -15.0371 -15.0070 -14.9506
   -14.8587 -14.8322 -14.8010 -14.7620 -14.7305 -14.6603 -14.5363 -14.4070
   -14.3497 -14.2543 -14.2440 -14.1687 -14.1646 -14.1348 -14.1189 -14.1077
   -14.0944 -14.0300 -13.9121 -13.8264 -13.7015 -13.5017  -8.5274  -8.4236
    -8.2503  -8.2456  -8.2234  -8.1904  -8.1383  -8.0616  -8.0532  -7.9801
    -7.9064  -7.9031  -7.8945  -7.8819  -7.8247  -7.7975  -7.7838  -7.7617
    -7.7305  -7.7276  -7.5020  -7.4774  -7.4732  -7.4484  -3.5768  -3.2924
    -2.9661  -2.8674  -2.7864  -2.7758  -2.6123  -2.4972  -2.4764  -2.4077
    -2.3342  -2.3185  -2.3003  -2.2951  -2.2651  -2.1925  -2.1817  -2.1454
    -2.0865  -2.0456  -2.0287  -2.0062  -1.9448  -1.8782  -1.7725  -1.6944
    -1.6774  -1.6231  -1.5595  -1.5560  -1.5300  -1.5238  -1.4937  -1.4835
    -1.4521  -1.4009  -1.3382  -1.2810  -1.2174  -1.1954  -1.1278  -1.1238
    -1.1045  -1.0482  -0.9994  -0.9802  -0.9595  -0.8590  -0.8537  -0.7984
    -0.7951  -0.7935  -0.7215  -0.6602  -0.6326  -0.5994  -0.5407  -0.5218
    -0.5040  -0.4589  -0.4141  -0.3854  -0.3543  -0.2872  -0.2853  -0.2417
    -0.2132  -0.1982  -0.1953  -0.1708  -0.1670  -0.1309  -0.0981  -0.0784
    -0.0146  -0.0062   0.0144   0.0603   0.0682   0.0805   0.1045   0.1481
     0.1573   0.2037   0.2165   0.2400   0.2465   0.2558   0.2773   0.2868
     0.3005   0.3391   0.3473   0.3848   0.3982   0.4171   0.4498   0.4513
     0.5026   0.5468   0.5976   0.7142   0.7935   0.8227   0.8737   0.9005
     0.9181   0.9262   0.9455   0.9861   0.9959   1.0252   1.0517   1.0619
     1.0928   1.1207   1.1237   1.1532   1.1939   1.2501   1.2724   1.2860
     1.3526   1.3853   1.4072   1.4304   1.4580   1.4840   1.4963   1.5090
     1.5168   1.5266   1.5670   1.5915   1.6286   1.6434   1.6673   1.7299
     1.7967   1.8004   1.8424   1.8861   2.0118   2.0555   2.1037   2.1566
     2.1750   2.3728   2.3878   2.5822   2.6087   2.6332   2.7605   2.7854
     2.8071   2.8254   2.8600   2.8703   2.8911   2.9677   3.0325   3.1797
     4.3492   4.6515   5.0459   5.2545   5.5186   5.7948   5.8592   5.8801
     6.2017   6.2589   6.3410   6.3583   6.4436   6.5900   6.6834   6.9446
     7.1368   7.1473   7.2974   7.5185   7.5474   7.7644   7.8024   7.9273
     8.0288   8.0949   8.1079   8.1927   8.3307   8.4093   8.4792   8.5215
     8.5931   8.7270

          k = 0.3750 0.5236 0.0000 ( 72641 PWs)   bands (ev):

   -41.3456 -38.9801 -38.1987 -35.8293 -23.0731 -22.9830 -22.8821 -22.8322
   -22.6630 -22.5706 -22.5629 -22.5284 -21.4585 -21.3716 -21.3472 -20.0662
   -20.0263 -20.0077 -18.5619 -18.5412 -18.5358 -17.0954 -17.0914 -17.0731
   -16.0345 -15.7784 -15.4857 -15.1153 -15.0694 -14.9249 -14.8478 -14.8135
   -14.7834 -14.7763 -14.7443 -14.6783 -14.6393 -14.6230 -14.3971 -14.3906
   -14.3112 -14.2741 -14.2611 -14.1682 -14.1288 -14.1167 -14.1125 -14.0919
   -14.0756 -14.0543 -13.9662 -13.9184 -13.7396 -13.5692  -8.6199  -8.5076
    -8.4825  -8.4486  -8.3629  -8.3449  -8.2027  -8.1962  -8.1932  -8.1260
    -8.1038  -8.0712  -8.0606  -8.0264  -7.9395  -7.9119  -7.8768  -7.7888
    -7.7829  -7.7709  -7.6925  -7.6547  -7.5205  -7.5045  -3.9618  -3.6529
    -3.3756  -3.0823  -3.0201  -2.9684  -2.8515  -2.7953  -2.7377  -2.6915
    -2.6527  -2.5295  -2.5052  -2.4788  -2.4232  -2.3924  -2.3500  -2.3234
    -2.2990  -2.2661  -2.2610  -2.2545  -2.1968  -2.1794  -2.1730  -2.1452
    -2.1399  -2.1383  -2.0598  -1.9400  -1.8192  -1.8100  -1.7149  -1.6740
    -1.6063  -1.5845  -1.5673  -1.5361  -1.4506  -1.3448  -1.2656  -1.2315
    -1.1873  -1.1650  -1.1309  -1.1066  -1.0849  -1.0511  -1.0137  -0.9832
    -0.9151  -0.8392  -0.8311  -0.8236  -0.7918  -0.7895  -0.7026  -0.6876
    -0.6195  -0.6058  -0.5925  -0.5611  -0.5510  -0.5421  -0.5050  -0.4839
    -0.4743  -0.4172  -0.3943  -0.3760  -0.2834  -0.2398  -0.2211  -0.1250
    -0.0966  -0.0914  -0.0490   0.0402   0.0658   0.1211   0.1923   0.2585
     0.2847   0.3273   0.3424   0.3694   0.3956   0.3997   0.4729   0.4786
     0.5877   0.6126   0.6279   0.6628   0.6967   0.7222   0.7849   0.7910
     0.8525   0.8925   0.9104   0.9495   0.9512   0.9570   0.9889   0.9907
     1.0291   1.0343   1.0505   1.1270   1.1772   1.2192   1.2520   1.2604
     1.2991   1.3344   1.3687   1.3878   1.3989   1.4240   1.4296   1.4466
     1.4662   1.4759   1.4788   1.4932   1.4978   1.5313   1.5631   1.6001
     1.6078   1.6732   1.6948   1.7737   1.7816   1.8098   1.8740   1.8867
     1.9034   1.9513   1.9951   2.0046   2.0208   2.0327   2.1798   2.2638
     2.4940   2.7622   2.8317   2.9160   2.9608   3.0298   3.0513   3.0650
     3.0709   3.2039   3.2832   3.3861   3.4799   3.5020   3.5522   3.7623
     4.5231   4.7182   4.8858   5.2503   5.7429   5.8536   5.9641   6.4896
     6.5294   6.5436   6.5845   6.6552   6.6669   6.7878   6.9884   6.9976
     7.1050   7.1752   7.9576   8.0484   8.1091   8.1486   8.2303   8.2341
     8.3556   8.3656   8.4598   8.6159   8.6564   8.7108   8.7395   8.8776
     8.9673   8.9844

          k = 0.3750 0.7854 0.0000 ( 72690 PWs)   bands (ev):

   -41.3406 -38.9768 -38.1921 -35.8252 -23.0170 -22.9321 -22.8245 -22.7791
   -22.6067 -22.5120 -22.5118 -22.4755 -21.5281 -21.3626 -21.3570 -20.1091
   -20.0207 -20.0083 -18.7709 -18.5188 -18.4356 -17.2054 -17.0765 -17.0096
   -15.8777 -15.6387 -15.5382 -15.1969 -14.9257 -14.8210 -14.7634 -14.7583
   -14.6942 -14.6554 -14.6310 -14.6247 -14.5918 -14.4880 -14.4447 -14.3784
   -14.2431 -14.2072 -14.1871 -14.1854 -14.1435 -14.1125 -14.0781 -14.0639
   -14.0222 -14.0156 -14.0151 -13.9773 -13.8064 -13.6733  -8.8148  -8.6791
    -8.5375  -8.5257  -8.4258  -8.4067  -8.3912  -8.3814  -8.3190  -8.2541
    -8.1690  -8.1460  -8.1393  -8.1218  -8.0968  -8.0167  -7.9725  -7.9541
    -7.9399  -7.8540  -7.7879  -7.7537  -7.6553  -7.6479  -4.3895  -3.9744
    -3.8604  -3.5103  -3.4557  -3.3380  -3.2375  -3.1902  -3.0891  -2.9947
    -2.9561  -2.9551  -2.9299  -2.8689  -2.8571  -2.8370  -2.7340  -2.5924
    -2.4472  -2.3895  -2.3717  -2.3305  -2.3249  -2.2813  -2.2605  -2.2387
    -2.2113  -2.1052  -2.0782  -2.0470  -2.0430  -1.9022  -1.8067  -1.7845
    -1.7442  -1.7013  -1.6885  -1.6144  -1.5498  -1.5232  -1.4627  -1.4204
    -1.3801  -1.2644  -1.2257  -1.2134  -1.1587  -1.1374  -1.1203  -1.0953
    -1.0711  -1.0232  -1.0023  -0.9252  -0.9182  -0.8833  -0.8594  -0.8555
    -0.8394  -0.8007  -0.7646  -0.7532  -0.7248  -0.7106  -0.7018  -0.6438
    -0.6025  -0.5820  -0.5053  -0.4236  -0.3502  -0.3014  -0.1742  -0.1495
    -0.0827  -0.0335   0.0952   0.1262   0.2110   0.2534   0.2562   0.2999
     0.3791   0.3929   0.4146   0.4854   0.5021   0.5679   0.6158   0.7072
     0.7304   0.7841   0.8154   0.8554   0.8591   0.8939   0.9493   0.9923
     1.0106   1.0179   1.0293   1.0320   1.1414   1.1631   1.1661   1.2272
     1.2435   1.2778   1.2924   1.3134   1.3314   1.3543   1.3838   1.4171
     1.4243   1.4581   1.5045   1.5416   1.5500   1.5661   1.5826   1.5892
     1.6230   1.6249   1.6650   1.6827   1.6904   1.7092   1.7341   1.7526
     1.7678   1.8663   1.8746   1.8756   1.9290   1.9466   2.0022   2.0249
     2.0553   2.2037   2.2587   2.2603   2.2897   2.3024   2.3478   2.5811
     2.5909   2.7461   2.8138   2.8969   2.9297   2.9397   3.0678   3.1600
     3.3167   3.4187   3.5150   3.7526   3.8253   3.8900   3.9212   4.1522
     4.5936   4.7651   5.0070   5.1429   5.4857   5.8222   6.0882   6.4171
     6.5684   6.6015   6.8324   6.8793   6.9372   6.9847   7.1015   7.2157
     7.4452   7.5352   7.9131   8.0262   8.4967   8.5218   8.5935   8.6213
     8.6985   8.7379   8.7795   8.8873   8.9473   9.0825   9.1119   9.1531
     9.2083   9.2471

[...]
    -2.8647  -2.8062  -2.7810  -2.7782  -2.6416  -2.5813  -2.4089  -2.3919
    -2.3429  -2.3364  -2.3293  -2.2771  -2.2641  -2.2201  -2.2056  -2.1769
    -2.0391  -2.0310  -2.0192  -1.9595  -1.9183  -1.8213  -1.7846  -1.7484
    -1.6904  -1.6484  -1.6244  -1.5699  -1.5424  -1.5279  -1.5257  -1.4897
    -1.4895  -1.4203  -1.3601  -1.2024  -1.1866  -1.1743  -1.0954  -1.0852
    -1.0688  -1.0499  -1.0479  -1.0358  -1.0039  -0.9501  -0.8960  -0.8404
    -0.7915  -0.7392  -0.7223  -0.6094  -0.5918  -0.5837  -0.5761  -0.5410
    -0.5386  -0.5281  -0.4220  -0.3936  -0.3576  -0.3179  -0.2448  -0.2429
    -0.2281  -0.2262  -0.2055  -0.1927  -0.1526  -0.1257  -0.1214  -0.0631
    -0.0100   0.0006   0.0079   0.0691   0.0787   0.0827   0.1087   0.1315
     0.1552   0.2270   0.2349   0.2444   0.2640   0.2928   0.3037   0.3103
     0.3260   0.3278   0.3403   0.3820   0.3925   0.4107   0.4397   0.4511
     0.4797   0.5364   0.5954   0.7032   0.8001   0.8298   0.8383   0.8918
     0.9199   0.9222   0.9497   0.9680   0.9908   1.0001   1.0278   1.1077
     1.1186   1.1431   1.1537   1.1912   1.2385   1.2770   1.2855   1.2992
     1.3027   1.3481   1.4264   1.4424   1.4554   1.4590   1.4617   1.4728
     1.5076   1.5395   1.5767   1.5971   1.6259   1.6561   1.6580   1.6602
     1.7926   1.8051   1.8299   1.8972   2.0726   2.0767   2.0965   2.1315
     2.2444   2.3050   2.4714   2.5862   2.6869   2.7001   2.7792   2.7884
     2.7895   2.8129   2.8775   2.8800   2.8968   2.9413   2.9837   3.1241
     4.3610   4.7950   4.9537   5.2311   5.5073   5.9105   5.9999   6.0173
     6.0806   6.0960   6.1825   6.3702   6.5496   6.6100   6.7240   6.8382
     7.0068   7.1435   7.5789   7.6338   7.6971   7.8036   7.8244   7.8534
     7.8600   8.0325   8.0721   8.1822   8.3041   8.4225   8.4813   8.5968
     8.7390   8.7511

          k =-0.5000 0.5236 0.0000 ( 72634 PWs)   bands (ev):

   -41.3456 -38.9801 -38.1987 -35.8293 -23.0689 -22.9874 -22.8719 -22.8426
   -22.6592 -22.5669 -22.5546 -22.5446 -21.4585 -21.3708 -21.3473 -20.0662
   -20.0275 -20.0077 -18.5619 -18.5406 -18.5325 -17.1016 -17.0970 -17.0734
   -16.0217 -15.7977 -15.4795 -15.1135 -15.0132 -14.9359 -14.8357 -14.8243
   -14.7786 -14.7662 -14.7505 -14.7025 -14.6485 -14.6255 -14.3989 -14.3509
   -14.3243 -14.3217 -14.2561 -14.1611 -14.1276 -14.1151 -14.1147 -14.0915
   -14.0686 -14.0615 -13.9708 -13.9178 -13.7316 -13.5724  -8.5822  -8.5607
    -8.4702  -8.4485  -8.4194  -8.3630  -8.1928  -8.1664  -8.1592  -8.1389
    -8.1385  -8.1254  -8.0459  -8.0429  -7.9168  -7.8824  -7.8494  -7.8386
    -7.7788  -7.7717  -7.6318  -7.5681  -7.5524  -7.5445  -3.8721  -3.7281
    -3.2509  -3.1732  -2.9686  -2.9160  -2.8885  -2.8202  -2.7451  -2.6947
    -2.5842  -2.5322  -2.4925  -2.4524  -2.3860  -2.3510  -2.3295  -2.3212
    -2.3093  -2.2984  -2.2606  -2.2556  -2.2207  -2.1914  -2.1687  -2.1677
    -2.1554  -2.1389  -2.1203  -1.9430  -1.8291  -1.7831  -1.7083  -1.6327
    -1.6200  -1.6168  -1.5841  -1.5621  -1.5080  -1.4226  -1.3668  -1.2329
    -1.2279  -1.1462  -1.1352  -1.1130  -1.0498  -1.0311  -1.0109  -0.9671
    -0.9506  -0.9131  -0.8292  -0.8242  -0.8119  -0.7989  -0.6958  -0.6477
    -0.6404  -0.6135  -0.5760  -0.5647  -0.5528  -0.5380  -0.4841  -0.4518
    -0.4512  -0.4288  -0.4033  -0.3897  -0.3471  -0.2067  -0.1988  -0.1776
    -0.1349  -0.0904  -0.0756   0.0317   0.0791   0.1138   0.2348   0.2979
     0.3084   0.3293   0.3487   0.3688   0.3716   0.4703   0.4771   0.5608
     0.5784   0.5922   0.5993   0.6122   0.7123   0.7202   0.7726   0.8217
     0.8613   0.8660   0.8837   0.9261   0.9479   0.9480   0.9696   0.9759
     1.0141   1.0167   1.0335   1.1228   1.1946   1.2523   1.2526   1.2570
     1.3181   1.3367   1.3590   1.3709   1.4118   1.4211   1.4350   1.4487
     1.4698   1.4845   1.4961   1.5105   1.5262   1.5277   1.5843   1.6304
     1.6379   1.6664   1.7054   1.7719   1.7814   1.8259   1.8360   1.8487
     1.9241   1.9410   1.9914   2.0121   2.0355   2.0731   2.1594   2.2050
     2.7756   2.8229   2.8805   2.9273   2.9580   3.0587   3.0744   3.1051
     3.1571   3.1607   3.2581   3.3415   3.4759   3.4847   3.5065   3.5876
     4.5729   4.7423   4.8847   5.2232   5.7543   5.8219   5.9988   6.5154
     6.5248   6.5438   6.6284   6.6466   6.6614   6.7945   6.8975   7.0593
     7.1060   7.1670   7.9158   8.0594   8.1727   8.1882   8.2056   8.3237
     8.3410   8.4495   8.5645   8.5712   8.6551   8.7838   8.8050   8.8527
     8.9342   8.9429

          k =-0.5000 0.7854 0.0000 ( 72674 PWs)   bands (ev):

   -41.3406 -38.9768 -38.1921 -35.8252 -23.0136 -22.9356 -22.8166 -22.7871
   -22.6037 -22.5152 -22.4987 -22.4887 -21.5281 -21.3619 -21.3571 -20.1091
   -20.0218 -20.0083 -18.7709 -18.5157 -18.4351 -17.2054 -17.0856 -17.0118
   -15.8704 -15.6481 -15.5358 -15.1966 -14.8843 -14.8578 -14.7315 -14.7258
   -14.7119 -14.6396 -14.6325 -14.6229 -14.5844 -14.5351 -14.4325 -14.4159
   -14.2136 -14.2122 -14.1817 -14.1688 -14.1582 -14.1430 -14.0736 -14.0681
   -14.0195 -14.0181 -14.0122 -13.9810 -13.8053 -13.6733  -8.7344  -8.6395
    -8.5752  -8.5366  -8.5209  -8.3697  -8.3099  -8.2796  -8.2644  -8.2600
    -8.2593  -8.1724  -8.1588  -8.1525  -8.0787  -8.0780  -8.0285  -7.8902
    -7.8402  -7.8282  -7.8147  -7.7618  -7.7488  -7.7268  -4.2948  -4.0543
    -3.7625  -3.5825  -3.3666  -3.3541  -3.2380  -3.2309  -3.0318  -3.0206
    -2.9430  -2.9420  -2.9258  -2.8706  -2.8611  -2.8353  -2.6982  -2.5127
    -2.5101  -2.4325  -2.3787  -2.3643  -2.3087  -2.2623  -2.2583  -2.2204
    -2.2074  -2.1703  -2.0611  -2.0114  -1.9316  -1.9145  -1.8362  -1.8360
    -1.8184  -1.7187  -1.6906  -1.6640  -1.6151  -1.5674  -1.4765  -1.3856
    -1.3729  -1.2587  -1.2386  -1.2190  -1.2085  -1.2059  -1.1222  -1.1126
    -1.0705  -1.0096  -0.9698  -0.9068  -0.9009  -0.8995  -0.8910  -0.8679
    -0.8454  -0.8000  -0.7623  -0.7610  -0.7080  -0.7012  -0.6490  -0.6097
    -0.5837  -0.5710  -0.4593  -0.4289  -0.4205  -0.2784  -0.2410  -0.1153
    -0.1017   0.0136   0.0336   0.1489   0.1540   0.1944   0.3346   0.3451
     0.3503   0.3985   0.4526   0.4779   0.5483   0.5966   0.6944   0.7029
     0.7246   0.7555   0.7574   0.8544   0.8802   0.8982   0.9316   0.9707
     1.0135   1.0148   1.0434   1.0722   1.0746   1.1617   1.1877   1.2230
     1.2397   1.2729   1.2737   1.3091   1.3595   1.4084   1.4284   1.4306
     1.4511   1.4522   1.4816   1.5040   1.5484   1.5501   1.5693   1.5863
     1.6099   1.6115   1.6319   1.6670   1.6756   1.7086   1.7448   1.7617
     1.7775   1.8567   1.8672   1.8776   1.9496   1.9632   1.9773   1.9883
     2.0186   2.2416   2.2523   2.2616   2.2956   2.2976   2.3675   2.5062
     2.7942   2.8191   2.9286   2.9430   2.9753   2.9916   3.1450   3.3479
     3.3906   3.4264   3.5372   3.5602   3.7708   3.8039   3.8135   3.8973
     4.6386   4.7608   5.0367   5.1249   5.4617   5.9273   6.0709   6.4960
     6.6638   6.7051   6.8126   6.8390   6.8704   6.8947   6.9463   7.1912
     7.4399   7.4668   7.9415   8.0084   8.5295   8.5850   8.5944   8.6375
     8.6649   8.7650   8.7756   8.8301   8.9525   9.0354   9.0984   9.1919
     9.1942   9.3678

          k =-0.5000-1.0472 0.0000 ( 72660 PWs)   bands (ev):

   -41.3385 -38.9755 -38.1894 -35.8235 -22.9903 -22.9137 -22.7933 -22.7637
   -22.5802 -22.4934 -22.4751 -22.4651 -21.5651 -21.3581 -21.3518 -20.1309
   -20.0195 -20.0040 -18.8514 -18.5087 -18.3881 -17.2561 -17.0792 -16.9750
   -15.7782 -15.5906 -15.5622 -15.2575 -14.9070 -14.8415 -14.7229 -14.7220
   -14.6825 -14.6079 -14.5609 -14.5053 -14.4864 -14.4382 -14.4179 -14.4016
   -14.3158 -14.2973 -14.2306 -14.1965 -14.0488 -14.0481 -14.0381 -14.0271
   -14.0119 -13.9955 -13.9947 -13.9894 -13.8760 -13.7530  -8.7565  -8.6446
    -8.5786  -8.5285  -8.5279  -8.4224  -8.3470  -8.3309  -8.2920  -8.2765
    -8.2566  -8.2534  -8.2503  -8.2300  -8.1512  -8.1487  -8.0464  -8.0023
    -7.9600  -7.9594  -7.8418  -7.8255  -7.7901  -7.7416  -4.4669  -4.1860
    -3.9637  -3.7437  -3.5643  -3.5531  -3.4435  -3.3986  -3.2483  -3.2200
    -3.1758  -3.1751  -3.1027  -3.0826  -2.9135  -2.8204  -2.7511  -2.7056
    -2.5185  -2.4095  -2.3879  -2.3616  -2.3314  -2.2771  -2.2666  -2.2331
    -2.1916  -2.1473  -2.1108  -2.0775  -1.9923  -1.9757  -1.9334  -1.8931
    -1.8640  -1.7114  -1.7015  -1.6534  -1.6449  -1.6049  -1.5101  -1.5081
    -1.5044  -1.3090  -1.2866  -1.2645  -1.2491  -1.2289  -1.2266  -1.2087
    -1.1084  -1.0374  -0.9918  -0.9911  -0.9574  -0.9508  -0.9484  -0.8824
    -0.8693  -0.8527  -0.8394  -0.7783  -0.7714  -0.7685  -0.6845  -0.6341
    -0.5980  -0.5971  -0.4803  -0.4571  -0.3762  -0.3029  -0.2576  -0.0974
    -0.0875   0.0643   0.0835   0.1790   0.1983   0.2139   0.3527   0.3615
     0.3668   0.4124   0.4314   0.5812   0.5853   0.7479   0.7728   0.7774
     0.8113   0.8195   0.8355   0.9177   0.9536   1.0025   1.0106   1.0485
     1.0591   1.0851   1.1154   1.1773   1.1903   1.2145   1.2174   1.2333
     1.2454   1.2523   1.2646   1.2837   1.2971   1.3265   1.3293   1.4042
     1.4622   1.5150   1.5341   1.5598   1.5965   1.6453   1.6526   1.6938
     1.7114   1.7166   1.7402   1.7691   1.8004   1.8236   1.8308   1.8768
     1.8982   1.9473   2.0039   2.0508   2.0586   2.0737   2.0774   2.1240
     2.1294   2.2833   2.4216   2.4305   2.4585   2.4696   2.5242   2.5919
     2.6067   2.7061   2.7444   2.7644   3.0148   3.0239   3.1893   3.3630
     3.4458   3.5056   3.5455   3.6402   3.7696   3.8633   3.8960   4.0890
     4.6765   4.8253   4.9725   5.1439   5.3182   5.8744   6.2051   6.4884
     6.6052   6.6520   6.7586   6.8286   6.8352   6.8691   6.9527   7.4882
     7.6488   7.7927   7.9943   8.0135   8.0844   8.1268   8.6788   8.8078
     8.8226   8.9882   9.0952   9.2766   9.3154   9.3415   9.3638   9.4094
     9.4336   9.4516

     the Fermi energy is     2.6019 ev

!    total energy              =   -3711.10766293 Ry
     Harris-Foulkes estimate   =   -3711.10766294 Ry
     estimated scf accuracy    <          6.4E-09 Ry

     The total energy is the sum of the following terms:

     one-electron contribution =  -60422.09080051 Ry
     hartree contribution      =   30512.34293563 Ry
     xc contribution           =   -1263.31315920 Ry
     ewald contribution        =   27461.96711588 Ry
     smearing contrib. (-TS)   =      -0.01375473 Ry

     convergence has been achieved in  38 iterations

     negative rho (up, down):  9.113E-02 0.000E+00

     Forces acting on atoms (cartesian axes, Ry/au):

     atom    1 type  4   force =    -0.00000652    0.00000000   -0.00012719
     atom    2 type  4   force =     0.00000652    0.00000000   -0.00012719
     atom    3 type  3   force =    -0.00001661    0.00000000   -0.00008493
     atom    4 type  3   force =     0.00001661    0.00000000   -0.00008493
     atom    5 type  4   force =    -0.00000250    0.00000000   -0.00007136
     atom    6 type  4   force =     0.00000250    0.00000000   -0.00007136
     atom    7 type  1   force =     0.00000000    0.00000000   -0.00011534
     atom    8 type  1   force =     0.00000000    0.00000000   -0.00010249
     atom    9 type  3   force =     0.00002326    0.00000000   -0.00002616
     atom   10 type  3   force =    -0.00002326    0.00000000   -0.00002616
     atom   11 type  4   force =     0.00000000    0.00000000    0.00013253
     atom   12 type  4   force =    -0.00000351    0.00000000    0.00005887
     atom   13 type  4   force =     0.00000351    0.00000000    0.00005887
     atom   14 type  4   force =     0.00000000    0.00000000    0.00018240
     atom   15 type  2   force =     0.00000000    0.00000000   -0.00051003
     atom   16 type  5   force =     0.00000000    0.00000000   -0.00077163
     atom   17 type  4   force =     0.00009413    0.00000000    0.00082834
     atom   18 type  4   force =    -0.00009413    0.00000000    0.00082834
     atom   19 type  4   force =     0.00000000    0.00000000    0.00091916
     atom   20 type  4   force =     0.00000000    0.00000000    0.00117425
     atom   21 type  3   force =    -0.00004216    0.00000000   -0.00118457
     atom   22 type  3   force =     0.00004216    0.00000000   -0.00118457
     atom   23 type  1   force =     0.00000000    0.00000000   -0.00216966
     atom   24 type  1   force =     0.00000000    0.00000000   -0.00227665
     atom   25 type  4   force =    -0.00024194    0.00000000    0.00400300
     atom   26 type  4   force =     0.00024194    0.00000000    0.00400300
     atom   27 type  4   force =    -0.00044282    0.00000000    0.00470794
     atom   28 type  4   force =     0.00044282    0.00000000    0.00470794
     atom   29 type  3   force =     0.00179972    0.00000000   -0.00914821
     atom   30 type  3   force =    -0.00179972    0.00000000   -0.00914821
     atom   31 type  4   force =    -0.00060786    0.00000000    0.01380351
     atom   32 type  4   force =     0.00060786    0.00000000    0.01380351
     atom   33 type  1   force =     0.00000000    0.00000000   -0.02406534
     atom   34 type  1   force =     0.00000000    0.00000000   -0.01837229
     atom   35 type  3   force =    -0.00023845    0.00000000    0.00839026
     atom   36 type  3   force =     0.00023845    0.00000000    0.00839026
     atom   37 type  4   force =     0.00000000    0.00000000    0.05591988
     atom   38 type  4   force =     0.00000000    0.00000000    0.06980016
     atom   39 type  4   force =     0.02071235    0.00000000    0.06722252
     atom   40 type  4   force =    -0.02071235    0.00000000    0.06722252
     atom   41 type  5   force =     0.00000000    0.00000000   -0.13512421
     atom   42 type  2   force =     0.00000000    0.00000000   -0.07795987
     atom   43 type  4   force =     0.00000000    0.00000000    0.01778538
     atom   44 type  4   force =    -0.00177140    0.00000000    0.00792258
     atom   45 type  4   force =     0.00177140    0.00000000    0.00792258
     atom   46 type  4   force =     0.00000000    0.00000000    0.01700200
     atom   47 type  3   force =    -0.00095653    0.00000000   -0.01793658
     atom   48 type  3   force =     0.00095653    0.00000000   -0.01793658
     atom   49 type  1   force =     0.00000000    0.00000000   -0.02356401
     atom   50 type  1   force =     0.00000000    0.00000000   -0.02915264
     atom   51 type  4   force =     0.00121662    0.00000000   -0.00323995
     atom   52 type  4   force =    -0.00121662    0.00000000   -0.00323995
     atom   53 type  3   force =    -0.00025377    0.00000000    0.00078595
     atom   54 type  3   force =     0.00025377    0.00000000    0.00078595
     atom   55 type  4   force =     0.00009773    0.00000000   -0.00026982
     atom   56 type  4   force =    -0.00009773    0.00000000   -0.00026982

     Total force =     0.216221     Total SCF correction =     0.000410


     Computing stress (Cartesian axis) and pressure


     negative rho (up, down):  9.113E-02 0.000E+00
          total   stress  (Ry/bohr**3)                   (kbar)     P=       -8.03
  -0.00002465   0.00000000   0.00000000           -3.63        0.00        0.00
   0.00000000  -0.00000654   0.00000000            0.00       -0.96        0.00
   0.00000000   0.00000000  -0.00013265            0.00        0.00      -19.51

 
     init_run     :     26.24s CPU     27.41s WALL (       1 calls)
     electrons    :   1954.57s CPU   2038.92s WALL (       1 calls)
     forces       :     10.71s CPU     11.41s WALL (       1 calls)
     stress       :    108.52s CPU    110.33s WALL (       1 calls)

     Called by init_run:
     wfcinit      :     21.62s CPU     22.09s WALL (       1 calls)
     potinit      :      1.10s CPU      1.12s WALL (       1 calls)
     hinit0       :      1.67s CPU      1.70s WALL (       1 calls)

     Called by electrons:
     c_bands      :   1623.34s CPU   1662.69s WALL (      38 calls)
     sum_band     :    249.06s CPU    274.32s WALL (      38 calls)
     v_of_rho     :      5.22s CPU      5.30s WALL (      39 calls)
     newd         :     37.33s CPU     57.18s WALL (      39 calls)
     mix_rho      :     40.25s CPU     40.59s WALL (      38 calls)

     Called by c_bands:
     init_us_2    :     19.42s CPU     19.54s WALL (    1975 calls)
     cegterg      :   1543.97s CPU   1582.05s WALL (     950 calls)

     Called by sum_band:
     sum_band:bec :      1.17s CPU      1.19s WALL (     950 calls)
     addusdens    :     35.37s CPU     58.07s WALL (      38 calls)

     Called by *egterg:
     h_psi        :    761.00s CPU    775.30s WALL (    4695 calls)
     s_psi        :    108.09s CPU    108.66s WALL (    4695 calls)
     g_psi        :      1.65s CPU      1.67s WALL (    3720 calls)
     cdiaghg      :    328.58s CPU    329.90s WALL (    4670 calls)

     Called by h_psi:
     h_psi:calbec :    122.81s CPU    123.37s WALL (    4695 calls)
     vloc_psi     :    526.08s CPU    532.69s WALL (    4695 calls)
     add_vuspsi   :    108.54s CPU    109.10s WALL (    4695 calls)

     General routines
     calbec       :    191.08s CPU    191.90s WALL (    5770 calls)
     fft          :      4.62s CPU      4.65s WALL (     530 calls)
     ffts         :     20.36s CPU     20.54s WALL (   21634 calls)
     fftw         :    597.93s CPU    605.35s WALL ( 1340588 calls)
     interpolate  :      0.38s CPU      0.39s WALL (      39 calls)
 
     Parallel routines
     fft_scatt_xy :     71.16s CPU     72.05s WALL ( 1362752 calls)
     fft_scatt_yz :    360.44s CPU    365.02s WALL ( 1362752 calls)
 
     PWSCF        :  35m 1.29s CPU  36m29.46s WALL

 
   This run was terminated on:  10:42:12  28May2021            

=------------------------------------------------------------------------------=
   JOB DONE.
=------------------------------------------------------------------------------=
[1622212932.445589] [holy7c06205:206630:0]          mpool.c:43   UCX  WARN  object 0x3d35cc0 was not returned to mpool ucp_requests
[1622212932.460168] [holy7c06206:174950:0]          mpool.c:43   UCX  WARN  object 0x2b5d780 was not returned to mpool ucp_requests
[1622212932.447248] [holy7c06205:206626:0]          mpool.c:43   UCX  WARN  object 0x3680300 was not returned to mpool ucp_requests
[1622212932.444878] [holy7c06205:206628:0]          mpool.c:43   UCX  WARN  object 0x3012600 was not returned to mpool ucp_requests
[1622212932.444900] [holy7c06205:206628:0]          mpool.c:43   UCX  WARN  object 0x3012d00 was not returned to mpool ucp_requests
[1622212932.461542] [holy7c06206:174954:0]          mpool.c:43   UCX  WARN  object 0x37514c0 was not returned to mpool ucp_requests
[1622212932.460203] [holy7c06206:174952:0]          mpool.c:43   UCX  WARN  object 0x43b2d80 was not returned to mpool ucp_requests
[1622212932.460227] [holy7c06206:174952:0]          mpool.c:43   UCX  WARN  object 0x43b32c0 was not returned to mpool ucp_requests
[1622212932.461984] [holy7c06206:174955:0]          mpool.c:43   UCX  WARN  object 0x3b57f40 was not returned to mpool ucp_requests
[1622212932.465546] [holy7c06202:167661:0]          mpool.c:43   UCX  WARN  object 0x3304480 was not returned to mpool ucp_requests
[1622212932.465626] [holy7c06202:167665:0]          mpool.c:43   UCX  WARN  object 0x479fc00 was not returned to mpool ucp_requests
[1622212932.463840] [holy7c06202:167666:0]          mpool.c:43   UCX  WARN  object 0x4569940 was not returned to mpool ucp_requests
[1622212932.463908] [holy7c06202:167660:0]          mpool.c:43   UCX  WARN  object 0x29cfd00 was not returned to mpool ucp_requests
[1622212932.464782] [holy7c06202:167662:0]          mpool.c:43   UCX  WARN  object 0x3f06840 was not returned to mpool ucp_requests
[1622212932.464807] [holy7c06202:167662:0]          mpool.c:43   UCX  WARN  object 0x3f06d80 was not returned to mpool ucp_requests
[1622212932.464017] [holy7c06202:167667:0]          mpool.c:43   UCX  WARN  object 0x3a7f540 was not returned to mpool ucp_requests
[1622212932.464041] [holy7c06202:167667:0]          mpool.c:43   UCX  WARN  object 0x3a7fa80 was not returned to mpool ucp_requests
