
     Program PWSCF v.6.5 starts on 25May2021 at 14:23:51 

     This program is part of the open-source Quantum ESPRESSO suite
     for quantum simulation of materials; please cite
         "P. Giannozzi et al., J. Phys.:Condens. Matter 21 395502 (2009);
         "P. Giannozzi et al., J. Phys.:Condens. Matter 29 465901 (2017);
          URL http://www.quantum-espresso.org", 
     in publications or presentations arising from this work. More details at
     http://www.quantum-espresso.org/quote

     Parallel version (MPI), running on    32 processors

     MPI processes distributed on     9 nodes
     R & G space division:  proc/nbgrp/npool/nimage =      32
     Reading input from YCBCO50_212_BaO_cleave_0.5_sep.pwi
Warning: card &IONS ignored
Warning: card     ION_DYNAMICS = 'BFGS' ignored
Warning: card / ignored
Warning: card &CELL ignored
Warning: card     CELL_DYNAMICS = 'BFGS' ignored
Warning: card     PRESS_CONV_THR = 5 ignored
Warning: card / ignored

     Current dimensions of program PWSCF are:
     Max number of different atomic species (ntypx) = 10
     Max number of k-points (npk) =  40000
     Max angular momentum in pseudopotentials (lmaxx) =  3

     Subspace diagonalization in iterative solution of the eigenvalue problem:
     one sub-group per band group will be used
     scalapack distributed-memory algorithm (size of sub-group:  5*  5 procs)

     Message from routine setup:
     using ibrav=0 with symmetry is DISCOURAGED, use correct ibrav instead
 
     Parallelization info
     --------------------
     sticks:   dense  smooth     PW     G-vecs:    dense   smooth      PW
     Min         188      62     17                89868    17286    2577
     Max         189      63     18                89896    17331    2618
     Sum        6019    2003    565              2876277   553869   83293
 


     bravais-lattice index     =            0
     lattice parameter (alat)  =      14.8133  a.u.
     unit-cell volume          =    8816.2533 (a.u.)^3
     number of atoms/cell      =           56
     number of atomic types    =            5
     number of electrons       =       456.00
     number of Kohn-Sham states=          274
     kinetic-energy cutoff     =      60.0000  Ry
     charge density cutoff     =     720.0000  Ry
     convergence threshold     =      1.0E-08
     mixing beta               =       0.5000
     number of iterations used =           10  local-TF  mixing
     Exchange-correlation= SLA PW PBE PBE
                           (   1   4   3   4   0   0   0)

     celldm(1)=  14.813271  celldm(2)=   0.000000  celldm(3)=   0.000000
     celldm(4)=   0.000000  celldm(5)=   0.000000  celldm(6)=   0.000000

     crystal axes: (cart. coord. in units of alat)
               a(1) = (   1.000000   0.000000   0.000000 )  
               a(2) = (   0.000000   0.477453   0.000000 )  
               a(3) = (   0.000000   0.000000   5.680686 )  

     reciprocal axes: (cart. coord. in units 2 pi/alat)
               b(1) = (  1.000000  0.000000  0.000000 )  
               b(2) = (  0.000000  2.094448  0.000000 )  
               b(3) = (  0.000000  0.000000  0.176035 )  


     PseudoPot. # 1 for Ba read from file:
     ./pseudo/Ba.pbe-nsp-van.UPF
     MD5 check sum: 2b9c31dd849566dd297d80989662b7a0
     Pseudo is Ultrasoft + core correction, Zval = 10.0
     Generated by new atomic code, or converted to UPF format
     Using radial grid of  907 points,  6 beta functions with: 
                l(1) =   0
                l(2) =   0
                l(3) =   1
                l(4) =   1
                l(5) =   2
                l(6) =   2
     Q(r) pseudized with  6 coefficients,  rinner =    1.200   1.200   1.200
                                                       1.200   1.200

     PseudoPot. # 2 for Ca read from file:
     ./pseudo/Ca.pbe-nsp-van.UPF
     MD5 check sum: 6471098428ff4fa451746d08035ff179
     Pseudo is Ultrasoft + core correction, Zval = 10.0
     Generated by new atomic code, or converted to UPF format
     Using radial grid of  845 points,  6 beta functions with: 
                l(1) =   0
                l(2) =   0
                l(3) =   1
                l(4) =   1
                l(5) =   2
                l(6) =   2
     Q(r) pseudized with  6 coefficients,  rinner =    1.200   1.200   1.200
                                                       1.200   1.200

     PseudoPot. # 3 for Cu read from file:
     ./pseudo/Cu.pbe-n-van_ak.UPF
     MD5 check sum: 34e3282627ffb533726feb647e090d62
     Pseudo is Ultrasoft + core correction, Zval = 11.0
     Generated by new atomic code, or converted to UPF format
     Using radial grid of  867 points,  6 beta functions with: 
                l(1) =   0
                l(2) =   0
                l(3) =   1
                l(4) =   1
                l(5) =   2
                l(6) =   2
     Q(r) pseudized with  8 coefficients,  rinner =    1.400   1.400   1.400
                                                       1.400   1.400

     PseudoPot. # 4 for O  read from file:
     ./pseudo/O.pbe-van_ak.UPF
     MD5 check sum: 783ce7fe4c79b6a4916957118fed0856
     Pseudo is Ultrasoft, Zval =  6.0
     Generated by new atomic code, or converted to UPF format
     Using radial grid of  737 points,  4 beta functions with: 
                l(1) =   0
                l(2) =   0
                l(3) =   1
                l(4) =   1
     Q(r) pseudized with  8 coefficients,  rinner =    0.800   0.800   0.800


     PseudoPot. # 5 for Y  read from file:
     ./pseudo/Y.pbe-nsp-van.UPF
     MD5 check sum: 4412fed3ab108fed87a1b7d6a69a4a38
     Pseudo is Ultrasoft + core correction, Zval = 11.0
     Generated by new atomic code, or converted to UPF format
     Using radial grid of  885 points,  6 beta functions with: 
                l(1) =   0
                l(2) =   0
                l(3) =   1
                l(4) =   1
                l(5) =   2
                l(6) =   2
     Q(r) pseudized with  6 coefficients,  rinner =    1.200   1.200   1.200
                                                       1.200   1.200

     atomic species   valence    mass     pseudopotential
        Ba            10.00   137.32700     Ba( 1.00)
        Ca            10.00    40.07800     Ca( 1.00)
        Cu            11.00    63.54600     Cu( 1.00)
        O              6.00    15.99900     O ( 1.00)
        Y             11.00    88.90584     Y ( 1.00)

      4 Sym. Ops. (no inversion) found ( 2 have fractional translation)



   Cartesian axes

     site n.     atom                  positions (alat units)
         1           O   tau(   1) = (  -0.0008343   0.2387265  -0.0222443  )
         2           O   tau(   2) = (   0.5008340   0.2387265  -0.0222443  )
         3           Cu  tau(   3) = (   0.5017257   0.0000000   0.0109608  )
         4           Cu  tau(   4) = (  -0.0017260   0.0000000   0.0109608  )
         5           O   tau(   5) = (  -0.0028933   0.0000000   0.2506504  )
         6           O   tau(   6) = (   0.5028929   0.0000000   0.2506504  )
         7           Ba  tau(   7) = (   0.7499995   0.2387265   0.2749435  )
         8           Ba  tau(   8) = (   0.2499998   0.2387265   0.2755214  )
         9           Cu  tau(   9) = (   0.4980963   0.0000000   0.5208446  )
        10           Cu  tau(  10) = (   0.0019033   0.0000000   0.5208446  )
        11           O   tau(  11) = (   0.2499998   0.0000000   0.5341884  )
        12           O   tau(  12) = (   0.5083351   0.2387265   0.5569851  )
        13           O   tau(  13) = (  -0.0083354   0.2387265   0.5569851  )
        14           O   tau(  14) = (   0.7499995   0.0000000   0.5573831  )
        15           Ca  tau(  15) = (   0.2499998   0.2387265   0.7436937  )
        16           Y   tau(  16) = (   0.7499995   0.2387265   0.7469544  )
        17           O   tau(  17) = (  -0.0063798   0.2387265   0.9248530  )
        18           O   tau(  18) = (   0.5063794   0.2387265   0.9248530  )
        19           O   tau(  19) = (   0.7499995   0.0000000   0.9338544  )
        20           O   tau(  20) = (   0.2499998   0.0000000   0.9461329  )
        21           Cu  tau(  21) = (   0.0015717   0.0000000   0.9686860  )
        22           Cu  tau(  22) = (   0.4984280   0.0000000   0.9686860  )
        23           Ba  tau(  23) = (   0.2499998   0.2387265   1.2085224  )
        24           Ba  tau(  24) = (   0.7499995   0.2387265   1.2233294  )
        25           O   tau(  25) = (   0.0063772   0.0000000   1.2547537  )
        26           O   tau(  26) = (   0.4936224   0.0000000   1.2547537  )
        27           O   tau(  27) = (   0.5384045   0.2387265   1.4952521  )
        28           O   tau(  28) = (  -0.0384049   0.2387265   1.4952521  )
        29           Cu  tau(  29) = (   0.5006120   0.0000000   1.4952546  )
        30           Cu  tau(  30) = (  -0.0006123   0.0000000   1.4952546  )
        31           O   tau(  31) = (   0.4936212   0.0000000   1.7357531  )
        32           O   tau(  32) = (   0.0063785   0.0000000   1.7357531  )
        33           Ba  tau(  33) = (   0.7499995   0.2387265   1.7671824  )
        34           Ba  tau(  34) = (   0.2499998   0.2387265   1.7819920  )
        35           Cu  tau(  35) = (   0.4984280   0.0000000   2.0856081  )
        36           Cu  tau(  36) = (   0.0015717   0.0000000   2.0856081  )
        37           O   tau(  37) = (   0.2499998   0.0000000   2.1081663  )
        38           O   tau(  38) = (   0.7499995   0.0000000   2.1204360  )
        39           O   tau(  39) = (   0.5063781   0.2387265   2.1294411  )
        40           O   tau(  40) = (  -0.0063785   0.2387265   2.1294411  )
        41           Y   tau(  41) = (   0.7499995   0.2387265   2.3073347  )
        42           Ca  tau(  42) = (   0.2499998   0.2387265   2.3106043  )
        43           O   tau(  43) = (   0.7499995   0.0000000   2.4969021  )
        44           O   tau(  44) = (  -0.0083354   0.2387265   2.4973040  )
        45           O   tau(  45) = (   0.5083351   0.2387265   2.4973040  )
        46           O   tau(  46) = (   0.2499998   0.0000000   2.5201020  )
        47           Cu  tau(  47) = (   0.0019059   0.0000000   2.5334356  )
        48           Cu  tau(  48) = (   0.4980938   0.0000000   2.5334356  )
        49           Ba  tau(  49) = (   0.2499998   0.2387265   2.7787753  )
        50           Ba  tau(  50) = (   0.7499995   0.2387265   2.7793174  )
        51           O   tau(  51) = (  -0.0028895   0.0000000   2.8036246  )
        52           O   tau(  52) = (   0.5028891   0.0000000   2.8036246  )
        53           Cu  tau(  53) = (   0.5017844   0.0000000   3.0433091  )
        54           Cu  tau(  54) = (  -0.0017847   0.0000000   3.0433091  )
        55           O   tau(  55) = (   0.5008990   0.2387265   3.0765155  )
        56           O   tau(  56) = (  -0.0008994   0.2387265   3.0765155  )

     number of k points=    25  Gaussian smearing, width (Ry)=  0.0100
                       cart. coord. in units 2pi/alat
        k(    1) = (   0.0000000   0.0000000   0.0000000), wk =   0.0312500
        k(    2) = (   0.0000000   0.2618060   0.0000000), wk =   0.0625000
        k(    3) = (   0.0000000   0.5236121   0.0000000), wk =   0.0625000
        k(    4) = (   0.0000000   0.7854181   0.0000000), wk =   0.0625000
        k(    5) = (   0.0000000  -1.0472241   0.0000000), wk =   0.0312500
        k(    6) = (   0.1250000   0.0000000   0.0000000), wk =   0.0625000
        k(    7) = (   0.1250000   0.2618060   0.0000000), wk =   0.1250000
        k(    8) = (   0.1250000   0.5236121   0.0000000), wk =   0.1250000
        k(    9) = (   0.1250000   0.7854181   0.0000000), wk =   0.1250000
        k(   10) = (   0.1250000  -1.0472241   0.0000000), wk =   0.0625000
        k(   11) = (   0.2500000   0.0000000   0.0000000), wk =   0.0625000
        k(   12) = (   0.2500000   0.2618060   0.0000000), wk =   0.1250000
        k(   13) = (   0.2500000   0.5236121   0.0000000), wk =   0.1250000
        k(   14) = (   0.2500000   0.7854181   0.0000000), wk =   0.1250000
        k(   15) = (   0.2500000  -1.0472241   0.0000000), wk =   0.0625000
        k(   16) = (   0.3750000   0.0000000   0.0000000), wk =   0.0625000
        k(   17) = (   0.3750000   0.2618060   0.0000000), wk =   0.1250000
        k(   18) = (   0.3750000   0.5236121   0.0000000), wk =   0.1250000
        k(   19) = (   0.3750000   0.7854181   0.0000000), wk =   0.1250000
        k(   20) = (   0.3750000  -1.0472241   0.0000000), wk =   0.0625000
        k(   21) = (  -0.5000000   0.0000000   0.0000000), wk =   0.0312500
        k(   22) = (  -0.5000000   0.2618060   0.0000000), wk =   0.0625000
        k(   23) = (  -0.5000000   0.5236121   0.0000000), wk =   0.0625000
        k(   24) = (  -0.5000000   0.7854181   0.0000000), wk =   0.0625000
        k(   25) = (  -0.5000000  -1.0472241   0.0000000), wk =   0.0312500

     Dense  grid:  2876277 G-vectors     FFT dimensions: ( 128,  64, 720)

     Smooth grid:   553869 G-vectors     FFT dimensions: (  80,  36, 432)

     Estimated max dynamical RAM per process >     833.65 MB

     Estimated total dynamical RAM >      26.05 GB

     Initial potential from superposition of free atoms

     starting charge  455.69457, renormalised to  456.00000

     negative rho (up, down):  9.323E-02 0.000E+00
     Starting wfcs are  396 randomized atomic wfcs

     total cpu time spent up to now is       26.9 secs

     Self-consistent Calculation

     iteration #  1     ecut=    60.00 Ry     beta= 0.50
     Davidson diagonalization with overlap
     ethr =  1.00E-02,  avg # of iterations =  2.0

     negative rho (up, down):  8.627E-02 0.000E+00

     total cpu time spent up to now is       73.4 secs

     total energy              =   -3708.43721174 Ry
     Harris-Foulkes estimate   =   -3716.44840684 Ry
     estimated scf accuracy    <      29.84644402 Ry

     iteration #  2     ecut=    60.00 Ry     beta= 0.50
     Davidson diagonalization with overlap
     ethr =  6.55E-03,  avg # of iterations =  2.0

     negative rho (up, down):  8.606E-02 0.000E+00

     total cpu time spent up to now is      119.9 secs

     total energy              =   -3711.19457458 Ry
     Harris-Foulkes estimate   =   -3712.38603442 Ry
     estimated scf accuracy    <       7.99924551 Ry

     iteration #  3     ecut=    60.00 Ry     beta= 0.50
     Davidson diagonalization with overlap
     ethr =  1.75E-03,  avg # of iterations =  1.5

     negative rho (up, down):  8.660E-02 0.000E+00

     total cpu time spent up to now is      164.0 secs

     total energy              =   -3711.67867943 Ry
     Harris-Foulkes estimate   =   -3711.99790837 Ry
     estimated scf accuracy    <       5.28835112 Ry

     iteration #  4     ecut=    60.00 Ry     beta= 0.50
     Davidson diagonalization with overlap
     ethr =  1.16E-03,  avg # of iterations =  1.0

     negative rho (up, down):  8.764E-02 0.000E+00

     total cpu time spent up to now is      206.4 secs

     total energy              =   -3711.73785824 Ry
     Harris-Foulkes estimate   =   -3711.85867799 Ry
     estimated scf accuracy    <       0.62287805 Ry

     iteration #  5     ecut=    60.00 Ry     beta= 0.50
     Davidson diagonalization with overlap
     ethr =  1.37E-04,  avg # of iterations =  6.7

     negative rho (up, down):  8.841E-02 0.000E+00

     total cpu time spent up to now is      278.8 secs

     total energy              =   -3711.79739130 Ry
     Harris-Foulkes estimate   =   -3711.84046697 Ry
     estimated scf accuracy    <       2.66132489 Ry

     iteration #  6     ecut=    60.00 Ry     beta= 0.50
     Davidson diagonalization with overlap
     ethr =  1.37E-04,  avg # of iterations =  1.4

     negative rho (up, down):  8.928E-02 0.000E+00

     total cpu time spent up to now is      322.8 secs

     total energy              =   -3711.78757738 Ry
     Harris-Foulkes estimate   =   -3711.80767922 Ry
     estimated scf accuracy    <       1.20015992 Ry

     iteration #  7     ecut=    60.00 Ry     beta= 0.50
     Davidson diagonalization with overlap
     ethr =  1.37E-04,  avg # of iterations =  1.0

     negative rho (up, down):  8.999E-02 0.000E+00

     total cpu time spent up to now is      365.2 secs

     total energy              =   -3711.77521842 Ry
     Harris-Foulkes estimate   =   -3711.79381255 Ry
     estimated scf accuracy    <       1.32588721 Ry

     iteration #  8     ecut=    60.00 Ry     beta= 0.50
     Davidson diagonalization with overlap
     ethr =  1.37E-04,  avg # of iterations =  1.0

     negative rho (up, down):  9.039E-02 0.000E+00

     total cpu time spent up to now is      407.7 secs

     total energy              =   -3711.77151431 Ry
     Harris-Foulkes estimate   =   -3711.78260941 Ry
     estimated scf accuracy    <       0.88210956 Ry

     iteration #  9     ecut=    60.00 Ry     beta= 0.50
     Davidson diagonalization with overlap
     ethr =  1.37E-04,  avg # of iterations =  1.0

     negative rho (up, down):  9.048E-02 0.000E+00

     total cpu time spent up to now is      450.0 secs

     total energy              =   -3711.76371090 Ry
     Harris-Foulkes estimate   =   -3711.77487651 Ry
     estimated scf accuracy    <       0.33317970 Ry

     iteration # 10     ecut=    60.00 Ry     beta= 0.50
     Davidson diagonalization with overlap
     ethr =  7.31E-05,  avg # of iterations =  3.1

     negative rho (up, down):  9.034E-02 0.000E+00

     total cpu time spent up to now is      498.0 secs

     total energy              =   -3711.75527184 Ry
     Harris-Foulkes estimate   =   -3711.76579288 Ry
     estimated scf accuracy    <       0.18787624 Ry

     iteration # 11     ecut=    60.00 Ry     beta= 0.50
     Davidson diagonalization with overlap
     ethr =  4.12E-05,  avg # of iterations =  9.1

     negative rho (up, down):  9.013E-02 0.000E+00

     total cpu time spent up to now is      565.4 secs

     total energy              =   -3711.75540460 Ry
     Harris-Foulkes estimate   =   -3711.75763602 Ry
     estimated scf accuracy    <       0.06821813 Ry

     iteration # 12     ecut=    60.00 Ry     beta= 0.50
     Davidson diagonalization with overlap
     c_bands:  1 eigenvalues not converged
     ethr =  1.50E-05,  avg # of iterations =  5.4

     negative rho (up, down):  9.050E-02 0.000E+00

     total cpu time spent up to now is      619.8 secs

     total energy              =   -3711.75438772 Ry
     Harris-Foulkes estimate   =   -3711.75606786 Ry
     estimated scf accuracy    <       0.05338848 Ry

     iteration # 13     ecut=    60.00 Ry     beta= 0.50
     Davidson diagonalization with overlap
     ethr =  1.17E-05,  avg # of iterations =  2.4

     negative rho (up, down):  1.072E-01 0.000E+00

     total cpu time spent up to now is      665.6 secs

     total energy              =   -3711.75146933 Ry
     Harris-Foulkes estimate   =   -3711.75467772 Ry
     estimated scf accuracy    <       0.04068105 Ry

     iteration # 14     ecut=    60.00 Ry     beta= 0.50
     Davidson diagonalization with overlap
     ethr =  8.92E-06,  avg # of iterations =  9.0

     negative rho (up, down):  1.149E-01 0.000E+00

     total cpu time spent up to now is      733.2 secs

     total energy              =   -3711.75015043 Ry
     Harris-Foulkes estimate   =   -3711.75189727 Ry
     estimated scf accuracy    <       0.02780903 Ry

     iteration # 15     ecut=    60.00 Ry     beta= 0.50
     Davidson diagonalization with overlap
     c_bands:  1 eigenvalues not converged
     ethr =  6.10E-06,  avg # of iterations =  7.1

     negative rho (up, down):  1.197E-01 0.000E+00

     total cpu time spent up to now is      792.7 secs

     total energy              =   -3711.74837641 Ry
     Harris-Foulkes estimate   =   -3711.75039852 Ry
     estimated scf accuracy    <       0.02872725 Ry

     iteration # 16     ecut=    60.00 Ry     beta= 0.50
     Davidson diagonalization with overlap
     ethr =  6.10E-06,  avg # of iterations =  8.5

     negative rho (up, down):  1.349E-01 0.000E+00

     total cpu time spent up to now is      858.1 secs

     total energy              =   -3711.74684057 Ry
     Harris-Foulkes estimate   =   -3711.74860830 Ry
     estimated scf accuracy    <       0.01401964 Ry

     iteration # 17     ecut=    60.00 Ry     beta= 0.50
     Davidson diagonalization with overlap
     c_bands:  1 eigenvalues not converged
     c_bands:  1 eigenvalues not converged
     ethr =  3.07E-06,  avg # of iterations = 13.0

     negative rho (up, down):  1.287E-01 0.000E+00

     total cpu time spent up to now is      941.7 secs

     total energy              =   -3711.74618021 Ry
     Harris-Foulkes estimate   =   -3711.74697001 Ry
     estimated scf accuracy    <       0.00855900 Ry

     iteration # 18     ecut=    60.00 Ry     beta= 0.50
     Davidson diagonalization with overlap
     ethr =  1.88E-06,  avg # of iterations =  8.8

     negative rho (up, down):  1.199E-01 0.000E+00

     total cpu time spent up to now is     1008.8 secs

     total energy              =   -3711.74560750 Ry
     Harris-Foulkes estimate   =   -3711.74623965 Ry
     estimated scf accuracy    <       0.00354821 Ry

     iteration # 19     ecut=    60.00 Ry     beta= 0.50
     Davidson diagonalization with overlap
     ethr =  7.78E-07,  avg # of iterations = 10.0

     negative rho (up, down):  1.020E-01 0.000E+00

     total cpu time spent up to now is     1080.4 secs

     total energy              =   -3711.74533650 Ry
     Harris-Foulkes estimate   =   -3711.74571117 Ry
     estimated scf accuracy    <       0.00438399 Ry

     iteration # 20     ecut=    60.00 Ry     beta= 0.50
     Davidson diagonalization with overlap
     c_bands:  1 eigenvalues not converged
     c_bands:  1 eigenvalues not converged
     c_bands:  1 eigenvalues not converged
     c_bands:  1 eigenvalues not converged
     c_bands:  1 eigenvalues not converged
     c_bands:  1 eigenvalues not converged
     c_bands:  1 eigenvalues not converged
     c_bands:  1 eigenvalues not converged
     c_bands:  1 eigenvalues not converged
     c_bands:  1 eigenvalues not converged
     ethr =  7.78E-07,  avg # of iterations = 14.6

     negative rho (up, down):  9.626E-02 0.000E+00

     total cpu time spent up to now is     1166.5 secs

     total energy              =   -3711.74532136 Ry
     Harris-Foulkes estimate   =   -3711.74543786 Ry
     estimated scf accuracy    <       0.00226894 Ry

     iteration # 21     ecut=    60.00 Ry     beta= 0.50
     Davidson diagonalization with overlap
     c_bands:  1 eigenvalues not converged
     ethr =  4.98E-07,  avg # of iterations =  6.0

     negative rho (up, down):  9.196E-02 0.000E+00

     total cpu time spent up to now is     1223.5 secs

     total energy              =   -3711.74535877 Ry
     Harris-Foulkes estimate   =   -3711.74535739 Ry
     estimated scf accuracy    <       0.00029609 Ry

     iteration # 22     ecut=    60.00 Ry     beta= 0.50
     Davidson diagonalization with overlap
     c_bands:  1 eigenvalues not converged
     c_bands:  1 eigenvalues not converged
     c_bands:  2 eigenvalues not converged
     ethr =  6.49E-08,  avg # of iterations = 10.8

     negative rho (up, down):  9.143E-02 0.000E+00

     total cpu time spent up to now is     1294.5 secs

     total energy              =   -3711.74537180 Ry
     Harris-Foulkes estimate   =   -3711.74536432 Ry
     estimated scf accuracy    <       0.00013950 Ry

     iteration # 23     ecut=    60.00 Ry     beta= 0.50
     Davidson diagonalization with overlap
     c_bands:  1 eigenvalues not converged
     ethr =  3.06E-08,  avg # of iterations =  6.3

     negative rho (up, down):  9.192E-02 0.000E+00

     total cpu time spent up to now is     1351.1 secs

     total energy              =   -3711.74537193 Ry
     Harris-Foulkes estimate   =   -3711.74537546 Ry
     estimated scf accuracy    <       0.00011334 Ry

     iteration # 24     ecut=    60.00 Ry     beta= 0.50
     Davidson diagonalization with overlap
     ethr =  2.49E-08,  avg # of iterations =  1.1

     negative rho (up, down):  9.192E-02 0.000E+00

     total cpu time spent up to now is     1393.6 secs

     total energy              =   -3711.74537173 Ry
     Harris-Foulkes estimate   =   -3711.74537309 Ry
     estimated scf accuracy    <       0.00003451 Ry

     iteration # 25     ecut=    60.00 Ry     beta= 0.50
     Davidson diagonalization with overlap
     ethr =  7.57E-09,  avg # of iterations =  1.0

     negative rho (up, down):  9.182E-02 0.000E+00

     total cpu time spent up to now is     1435.6 secs

     total energy              =   -3711.74537299 Ry
     Harris-Foulkes estimate   =   -3711.74537243 Ry
     estimated scf accuracy    <       0.00002134 Ry

     iteration # 26     ecut=    60.00 Ry     beta= 0.50
     Davidson diagonalization with overlap
     ethr =  4.68E-09,  avg # of iterations =  1.0

     negative rho (up, down):  9.229E-02 0.000E+00

     total cpu time spent up to now is     1477.6 secs

     total energy              =   -3711.74537129 Ry
     Harris-Foulkes estimate   =   -3711.74537338 Ry
     estimated scf accuracy    <       0.00001403 Ry

     iteration # 27     ecut=    60.00 Ry     beta= 0.50
     Davidson diagonalization with overlap
     ethr =  3.08E-09,  avg # of iterations =  1.9

     negative rho (up, down):  9.223E-02 0.000E+00

     total cpu time spent up to now is     1522.7 secs

     total energy              =   -3711.74537197 Ry
     Harris-Foulkes estimate   =   -3711.74537195 Ry
     estimated scf accuracy    <       0.00000386 Ry

     iteration # 28     ecut=    60.00 Ry     beta= 0.50
     Davidson diagonalization with overlap
     ethr =  8.46E-10,  avg # of iterations =  1.6

     negative rho (up, down):  9.216E-02 0.000E+00

     total cpu time spent up to now is     1566.5 secs

     total energy              =   -3711.74537214 Ry
     Harris-Foulkes estimate   =   -3711.74537207 Ry
     estimated scf accuracy    <       0.00000217 Ry

     iteration # 29     ecut=    60.00 Ry     beta= 0.50
     Davidson diagonalization with overlap
     ethr =  4.76E-10,  avg # of iterations =  1.0

     negative rho (up, down):  9.210E-02 0.000E+00

     total cpu time spent up to now is     1608.5 secs

     total energy              =   -3711.74537221 Ry
     Harris-Foulkes estimate   =   -3711.74537218 Ry
     estimated scf accuracy    <       0.00000130 Ry

     iteration # 30     ecut=    60.00 Ry     beta= 0.50
     Davidson diagonalization with overlap
     ethr =  2.86E-10,  avg # of iterations =  1.0

     negative rho (up, down):  9.223E-02 0.000E+00

     total cpu time spent up to now is     1650.5 secs

     total energy              =   -3711.74537199 Ry
     Harris-Foulkes estimate   =   -3711.74537224 Ry
     estimated scf accuracy    <       0.00000038 Ry

     iteration # 31     ecut=    60.00 Ry     beta= 0.50
     Davidson diagonalization with overlap
     ethr =  8.38E-11,  avg # of iterations =  1.2

     negative rho (up, down):  9.224E-02 0.000E+00

     total cpu time spent up to now is     1693.1 secs

     total energy              =   -3711.74537199 Ry
     Harris-Foulkes estimate   =   -3711.74537201 Ry
     estimated scf accuracy    <       0.00000013 Ry

     iteration # 32     ecut=    60.00 Ry     beta= 0.50
     Davidson diagonalization with overlap
     ethr =  2.90E-11,  avg # of iterations =  1.2

     negative rho (up, down):  9.225E-02 0.000E+00

     total cpu time spent up to now is     1735.5 secs

     total energy              =   -3711.74537198 Ry
     Harris-Foulkes estimate   =   -3711.74537200 Ry
     estimated scf accuracy    <       0.00000008 Ry

     iteration # 33     ecut=    60.00 Ry     beta= 0.50
     Davidson diagonalization with overlap
     ethr =  1.77E-11,  avg # of iterations =  1.1

     negative rho (up, down):  9.225E-02 0.000E+00

     total cpu time spent up to now is     1778.0 secs

     total energy              =   -3711.74537198 Ry
     Harris-Foulkes estimate   =   -3711.74537198 Ry
     estimated scf accuracy    <       0.00000003 Ry

     iteration # 34     ecut=    60.00 Ry     beta= 0.50
     Davidson diagonalization with overlap
     ethr =  6.16E-12,  avg # of iterations =  1.4

     negative rho (up, down):  9.225E-02 0.000E+00

     total cpu time spent up to now is     1821.3 secs

     total energy              =   -3711.74537198 Ry
     Harris-Foulkes estimate   =   -3711.74537198 Ry
     estimated scf accuracy    <       0.00000002 Ry

     iteration # 35     ecut=    60.00 Ry     beta= 0.50
     Davidson diagonalization with overlap
     ethr =  4.08E-12,  avg # of iterations =  1.0

     negative rho (up, down):  9.224E-02 0.000E+00

     total cpu time spent up to now is     1862.7 secs

     End of self-consistent calculation

          k = 0.0000 0.0000 0.0000 ( 69231 PWs)   bands (ev):

   -37.9965 -37.8721 -35.6232 -35.4740 -22.9652 -22.7921 -22.7831 -22.7550
   -22.6638 -22.6550 -22.5166 -22.3638 -18.4719 -18.3676 -18.3266 -18.2511
   -17.9996 -17.8814 -16.9714 -16.8362 -16.8006 -16.6977 -16.6528 -16.5113
   -15.3838 -15.2691 -14.9565 -14.9313 -14.8427 -14.6939 -14.6269 -14.5517
   -14.5279 -14.4579 -14.4508 -14.4291 -14.3709 -14.3013 -14.2780 -14.1038
   -14.0745 -14.0219 -13.9715 -13.9668 -13.9598 -13.9545 -13.9511 -13.8571
   -13.8248 -13.7813 -13.6036 -13.5362 -13.4929 -13.3336  -8.2955  -8.0624
    -8.0298  -8.0178  -7.9213  -7.9117  -7.8489  -7.8416  -7.8335  -7.7767
    -7.7540  -7.7034  -7.6947  -7.6938  -7.6483  -7.6071  -7.5989  -7.5294
    -7.5066  -7.4654  -7.4567  -7.3907  -7.3198  -7.1683  -2.9588  -2.9411
    -2.7808  -2.5978  -2.1489  -2.1444  -2.0622  -2.0603  -2.0138  -1.9479
    -1.8786  -1.8764  -1.8286  -1.8078  -1.7782  -1.7690  -1.7136  -1.6647
    -1.6363  -1.6004  -1.5756  -1.5011  -1.4599  -1.4261  -1.4232  -1.3745
    -1.3013  -1.2152  -1.1190  -1.0775  -1.0223  -0.9213  -0.9027  -0.8989
    -0.8980  -0.8973  -0.8958  -0.8893  -0.8468  -0.8135  -0.7449  -0.7441
    -0.6874  -0.6727  -0.6702  -0.6688  -0.6502  -0.5592  -0.5274  -0.4946
    -0.4508  -0.2968  -0.2633  -0.2415  -0.2304  -0.2297  -0.1517  -0.1237
    -0.1116  -0.1099  -0.1069  -0.1055  -0.0968  -0.0820   0.0355   0.0555
     0.0737   0.0815   0.0822   0.0824   0.1200   0.1403   0.1842   0.1949
     0.2015   0.2037   0.2044   0.2258   0.2577   0.2955   0.2972   0.3346
     0.3346   0.3365   0.4099   0.4247   0.4406   0.4432   0.4486   0.5544
     0.5558   0.5917   0.6084   0.6110   0.6206   0.6272   0.6295   0.6885
     0.7553   0.7961   0.8379   0.8992   0.9267   1.0283   1.0612   1.0668
     1.0720   1.1238   1.1291   1.1472   1.1740   1.1919   1.2839   1.2915
     1.2934   1.2969   1.3160   1.3463   1.3578   1.4255   1.4374   1.4771
     1.4814   1.4901   1.5156   1.5668   1.6638   1.6739   1.6884   1.7171
     1.7571   1.7914   1.7926   1.7941   1.8426   1.8676   1.8739   1.9093
     1.9207   1.9394   2.0127   2.1278   2.1396   2.1485   2.1668   2.1800
     2.1909   2.3007   2.3276   2.3578   2.3748   2.4120   2.4767   2.5643
     2.6551   2.6611   2.6616   2.7387   2.9338   2.9590   5.2859   5.3106
     5.5927   6.0253   6.2353   6.4441   6.7109   6.7328   6.9021   7.3533
     7.3612   7.4411   7.4475   7.4479   7.6930   7.8679   8.1190   8.1875
     8.2302   8.2418   8.3015   8.3256   8.3351   8.4889   8.5861   8.6318
     8.6638   8.7019   8.7668   8.9758   9.0818   9.1518   9.2283   9.3038
     9.4048   9.4260

          k = 0.0000 0.2618 0.0000 ( 69249 PWs)   bands (ev):

   -37.9938 -37.8694 -35.6215 -35.4723 -22.9449 -22.7675 -22.7585 -22.7371
   -22.6447 -22.6359 -22.4931 -22.3450 -18.4332 -18.3603 -18.2878 -18.2439
   -18.1106 -17.9923 -16.9419 -16.8318 -16.7708 -16.7189 -16.6933 -16.5773
   -15.2778 -15.1672 -14.8999 -14.8746 -14.7750 -14.6465 -14.5884 -14.5261
   -14.5158 -14.4639 -14.4191 -14.3648 -14.3210 -14.2550 -14.2414 -14.0708
   -14.0680 -14.0303 -14.0210 -13.9600 -13.9512 -13.9492 -13.9453 -13.8947
   -13.8312 -13.7895 -13.6244 -13.5485 -13.5358 -13.3983  -8.2842  -8.0491
    -8.0232  -8.0120  -7.9345  -7.9252  -7.8549  -7.8185  -7.7979  -7.7900
    -7.7857  -7.7460  -7.7389  -7.7369  -7.7306  -7.7232  -7.7222  -7.6810
    -7.6725  -7.6641  -7.4938  -7.4327  -7.4088  -7.3811  -3.0577  -3.0276
    -2.8429  -2.6536  -2.2658  -2.2502  -2.1611  -2.1567  -2.1553  -2.0371
    -2.0323  -1.9774  -1.9649  -1.9087  -1.8915  -1.8703  -1.8333  -1.7838
    -1.7715  -1.7445  -1.6647  -1.5968  -1.5901  -1.5792  -1.5457  -1.4270
    -1.4004  -1.3631  -1.3425  -1.3412  -1.3191  -1.3126  -1.3107  -1.2797
    -1.2141  -1.1478  -1.0458  -0.9493  -0.9007  -0.7695  -0.7515  -0.7236
    -0.6801  -0.6410  -0.6261  -0.5440  -0.5394  -0.5126  -0.4859  -0.4733
    -0.4350  -0.3638  -0.3349  -0.3225  -0.3201  -0.2680  -0.2595  -0.2444
    -0.2288  -0.1504  -0.1493  -0.1061  -0.0913  -0.0728  -0.0671  -0.0229
     0.0278   0.0707   0.0841   0.0862   0.1192   0.1312   0.1794   0.1942
     0.2347   0.2397   0.2674   0.2701   0.3002   0.3597   0.3603   0.3733
     0.3949   0.4329   0.4422   0.4644   0.4657   0.4751   0.4946   0.5160
     0.5430   0.5633   0.6077   0.6097   0.6251   0.7397   0.7409   0.8072
     0.8518   0.9114   0.9220   0.9419   0.9549   1.0164   1.0771   1.0939
     1.1382   1.1710   1.1793   1.2242   1.2416   1.2585   1.2736   1.3038
     1.3184   1.3697   1.3725   1.4037   1.4164   1.4319   1.4797   1.5124
     1.5198   1.5548   1.5762   1.6070   1.6170   1.6723   1.7032   1.7118
     1.7121   1.7790   1.8011   1.8049   1.8508   1.8716   1.9027   1.9184
     1.9285   1.9676   1.9871   2.0404   2.0807   2.1260   2.1467   2.1533
     2.1814   2.3372   2.3418   2.5310   2.8847   2.8923   2.9403   2.9544
     3.0480   3.0521   3.0849   3.1302   3.2802   3.3192   5.6748   5.6902
     5.8364   6.3158   6.4452   6.5777   7.0299   7.0361   7.1715   7.1934
     7.1946   7.5789   7.6664   7.6742   7.8338   7.8480   7.9056   8.0717
     8.2940   8.3497   8.3537   8.4578   8.4932   8.6636   8.7879   8.7922
     8.8549   8.8910   8.8928   9.0692   9.2036   9.2726   9.3103   9.3493
     9.3825   9.4399

          k = 0.0000 0.5236 0.0000 ( 69175 PWs)   bands (ev):

   -37.9873 -37.8629 -35.6174 -35.4682 -22.8950 -22.7070 -22.6979 -22.6930
   -22.5978 -22.5891 -22.4351 -22.2988 -18.3507 -18.3429 -18.3336 -18.2317
   -18.2264 -18.1884 -16.8713 -16.8591 -16.8214 -16.7222 -16.6945 -16.6827
   -15.0380 -14.9439 -14.7505 -14.7236 -14.5920 -14.5905 -14.5299 -14.5149
   -14.4934 -14.4317 -14.4137 -14.2814 -14.1967 -14.1635 -14.1518 -14.1333
   -14.0661 -14.0304 -13.9809 -13.9786 -13.9379 -13.9346 -13.8982 -13.8967
   -13.8723 -13.7108 -13.6776 -13.6686 -13.5504 -13.5431  -8.2711  -8.2283
    -8.2109  -8.2020  -8.0847  -8.0515  -8.0435  -8.0092  -7.9864  -7.9756
    -7.9161  -7.9093  -7.9067  -7.8624  -7.8101  -7.8015  -7.7606  -7.7487
    -7.6810  -7.6728  -7.6459  -7.6455  -7.5157  -7.3462  -3.4476  -3.3852
    -3.0893  -2.8970  -2.7507  -2.7265  -2.5734  -2.4836  -2.4203  -2.3793
    -2.3789  -2.3650  -2.2224  -2.1973  -2.1960  -2.1603  -2.1549  -2.0990
    -2.0132  -2.0132  -2.0031  -2.0030  -1.8909  -1.8597  -1.8520  -1.8227
    -1.7025  -1.6414  -1.6019  -1.5564  -1.5123  -1.4797  -1.4762  -1.3416
    -1.3186  -1.2987  -1.1459  -1.1081  -0.9068  -0.8788  -0.8780  -0.8402
    -0.7638  -0.7632  -0.7627  -0.6645  -0.6482  -0.5810  -0.5790  -0.5715
    -0.5641  -0.4995  -0.4910  -0.4801  -0.4733  -0.4381  -0.4361  -0.4211
    -0.4186  -0.3571  -0.3471  -0.3376  -0.3159  -0.3041  -0.2798  -0.2664
    -0.2652  -0.1921  -0.1859  -0.1821  -0.0478   0.1387   0.1868   0.2395
     0.2806   0.2874   0.3009   0.3303   0.3461   0.3497   0.3909   0.4041
     0.4511   0.4947   0.5876   0.6345   0.6691   0.7004   0.7140   0.7555
     0.8371   0.8476   0.8744   0.9141   0.9247   0.9639   1.0924   1.1140
     1.1164   1.1593   1.1690   1.2599   1.2675   1.2760   1.2849   1.3034
     1.3328   1.3330   1.3348   1.3420   1.3540   1.3728   1.3863   1.4071
     1.4824   1.4912   1.5145   1.5255   1.5438   1.5473   1.5805   1.5842
     1.6425   1.6481   1.6686   1.6974   1.7317   1.7847   1.8074   1.8379
     1.8495   1.8946   1.8967   1.9409   1.9501   1.9852   2.0029   2.0262
     2.0457   2.0698   2.0901   2.0980   2.1321   2.1550   2.1560   2.1628
     2.2542   2.2609   2.4788   2.6371   3.1550   3.1601   3.1940   3.2007
     3.7576   3.8001   3.9088   3.9252   4.0377   4.1237   5.9606   6.5883
     6.5889   6.7084   6.7130   6.8533   7.0473   7.1277   7.1305   7.1913
     7.8437   7.8927   7.9392   8.1952   8.3539   8.4015   8.4315   8.5063
     8.5251   8.5604   8.6399   8.7288   8.7751   8.8217   8.8331   8.9180
     8.9795   9.0711   9.1616   9.1869   9.2588   9.3702   9.4801   9.5215
     9.5430   9.6647

          k = 0.0000 0.7854 0.0000 ( 69136 PWs)   bands (ev):

   -37.9808 -37.8563 -35.6133 -35.4641 -22.8441 -22.6479 -22.6446 -22.6355
   -22.5499 -22.5412 -22.3756 -22.2515 -18.5597 -18.4413 -18.3254 -18.2275
   -18.2090 -18.0812 -16.9936 -16.8508 -16.8110 -16.7855 -16.6722 -16.6135
   -14.8251 -14.7885 -14.6890 -14.5865 -14.5693 -14.5355 -14.4845 -14.4249
   -14.3658 -14.3587 -14.3562 -14.3341 -14.2564 -14.1573 -14.0854 -14.0671
   -14.0630 -13.9859 -13.9687 -13.8906 -13.8866 -13.8839 -13.8537 -13.8522
   -13.8358 -13.8034 -13.7203 -13.7018 -13.6416 -13.5264  -8.6627  -8.6060
    -8.5971  -8.3624  -8.3465  -8.3385  -8.2964  -8.2084  -7.9945  -7.9925
    -7.9898  -7.9796  -7.9316  -7.9207  -7.9111  -7.8793  -7.8707  -7.7830
    -7.6252  -7.5866  -7.5717  -7.5599  -7.5515  -7.2362  -3.9320  -3.8616
    -3.4935  -3.3010  -3.1592  -3.1359  -3.0808  -2.9602  -2.8918  -2.7762
    -2.7719  -2.7453  -2.7077  -2.7063  -2.5252  -2.5171  -2.3481  -2.2557
    -2.2245  -2.1970  -2.1199  -2.1175  -2.0530  -2.0511  -1.8830  -1.8631
    -1.8006  -1.7716  -1.7090  -1.6833  -1.6145  -1.5698  -1.5147  -1.4233
    -1.3822  -1.2208  -1.1192  -1.1044  -1.0820  -1.0673  -1.0136  -0.9722
    -0.9295  -0.9184  -0.9105  -0.8829  -0.8610  -0.8235  -0.7949  -0.7522
    -0.7417  -0.7025  -0.6821  -0.6633  -0.6528  -0.6201  -0.6075  -0.5990
    -0.5823  -0.5534  -0.5182  -0.5140  -0.5122  -0.5100  -0.4586  -0.3833
    -0.3377  -0.3216  -0.1248  -0.1235  -0.0532   0.1062   0.1574   0.1807
     0.2018   0.2388   0.2955   0.3029   0.3296   0.3817   0.4116   0.4598
     0.4960   0.6211   0.6595   0.7626   0.7662   0.8932   0.9165   0.9352
     0.9672   1.0088   1.0832   1.0880   1.1370   1.1441   1.1556   1.1752
     1.2555   1.3114   1.3316   1.3425   1.4097   1.4295   1.4356   1.4519
     1.4942   1.5007   1.5347   1.5394   1.5693   1.5957   1.6510   1.6707
     1.7201   1.7372   1.7481   1.7535   1.7699   1.7869   1.8120   1.8293
     1.8524   1.8526   1.8596   1.8835   1.9039   1.9131   1.9353   1.9996
     2.0173   2.0623   2.0788   2.0815   2.0999   2.1093   2.1252   2.1261
     2.1675   2.1910   2.3203   2.3355   2.3371   2.3502   2.4150   2.4518
     2.4718   2.5589   2.5602   2.5632   3.0002   3.0089   3.1057   3.1137
     4.1056   4.1069   4.5553   4.5722   4.6238   4.7152   5.7162   6.1774
     6.1811   6.7241   6.8428   7.3312   7.5173   7.5232   7.8606   7.9269
     8.1224   8.3925   8.4282   8.5525   8.6198   8.6327   8.7014   8.7224
     8.8393   8.8700   8.8953   8.9283   8.9647   9.0402   9.1408   9.1725
     9.3207   9.3719   9.4206   9.4351   9.4801   9.5490   9.5718   9.6883
     9.7097   9.7580

          k = 0.0000-1.0472 0.0000 ( 69278 PWs)   bands (ev):

   -37.9781 -37.8536 -35.6116 -35.4623 -22.8228 -22.6288 -22.6182 -22.6091
   -22.5297 -22.5210 -22.3505 -22.2316 -18.6403 -18.5218 -18.3182 -18.2018
   -18.1802 -18.0337 -17.0440 -16.9010 -16.8067 -16.7497 -16.6679 -16.5776
   -14.8326 -14.8037 -14.6271 -14.5456 -14.5344 -14.4641 -14.4159 -14.4073
   -14.4047 -14.3830 -14.2993 -14.2392 -14.1966 -14.1752 -14.1330 -14.0817
   -14.0282 -13.9322 -13.9298 -13.8971 -13.8540 -13.8530 -13.8528 -13.8344
   -13.8337 -13.8323 -13.7609 -13.7392 -13.6280 -13.4962  -8.8239  -8.7593
    -8.7504  -8.4792  -8.4653  -8.4572  -8.4477  -8.1857  -8.0912  -8.0168
    -7.9957  -7.9848  -7.9368  -7.9143  -7.9069  -7.9046  -7.8983  -7.7869
    -7.6326  -7.5967  -7.5309  -7.5072  -7.4989  -7.1880  -4.1343  -4.0639
    -3.6801  -3.4875  -3.3207  -3.2960  -3.2841  -3.1685  -3.0411  -3.0099
    -3.0035  -2.9379  -2.9364  -2.8924  -2.5539  -2.5462  -2.3816  -2.3698
    -2.3301  -2.2431  -2.1423  -2.1407  -2.0402  -2.0384  -1.8914  -1.8889
    -1.8630  -1.8531  -1.7931  -1.7832  -1.7376  -1.4842  -1.4549  -1.4196
    -1.2312  -1.2059  -1.1897  -1.1796  -1.1661  -1.1263  -1.1076  -1.0116
    -0.9889  -0.9677  -0.9609  -0.9567  -0.9445  -0.9351  -0.8972  -0.8934
    -0.8464  -0.7939  -0.7465  -0.7456  -0.7208  -0.7192  -0.7167  -0.7102
    -0.6389  -0.6380  -0.6179  -0.6039  -0.6031  -0.4941  -0.3966  -0.3336
    -0.3304  -0.3097  -0.0896  -0.0881  -0.0666   0.0266   0.0973   0.1169
     0.1501   0.1767   0.3041   0.3092   0.3514   0.3702   0.3717   0.4984
     0.5308   0.6577   0.6822   0.8020   0.8225   0.8450   0.9498   0.9870
     0.9897   0.9953   1.0367   1.1400   1.1750   1.2408   1.3015   1.3118
     1.3267   1.3580   1.4234   1.4733   1.4757   1.4922   1.4950   1.4989
     1.5182   1.5236   1.5314   1.5367   1.6360   1.6367   1.7094   1.7295
     1.7776   1.8148   1.8414   1.8503   1.8576   1.8784   1.9003   1.9254
     1.9285   2.0072   2.0155   2.0192   2.0264   2.0310   2.0515   2.0805
     2.0843   2.1269   2.2156   2.2199   2.2722   2.2816   2.2822   2.2972
     2.3113   2.3189   2.3196   2.3261   2.4747   2.5055   2.5381   2.5391
     2.5411   2.6378   2.7221   2.7235   2.7652   2.7788   2.9355   2.9453
     4.1511   4.1566   4.7625   4.7856   4.8331   4.9162   5.6291   5.9379
     5.9417   6.5870   6.7343   7.5899   7.8332   7.9166   7.9206   8.2544
     8.3382   8.4302   8.4692   8.4908   8.5018   8.5581   8.7946   8.9268
     8.9356   8.9759   8.9992   9.1161   9.1883   9.2318   9.3279   9.3387
     9.3406   9.3732   9.3765   9.5107   9.5120   9.6942   9.7184   9.7382
     9.7758   9.8788

          k = 0.1250 0.0000 0.0000 ( 69249 PWs)   bands (ev):

   -37.9965 -37.8721 -35.6232 -35.4740 -22.9634 -22.7876 -22.7786 -22.7571
   -22.6686 -22.6598 -22.5133 -22.3674 -18.4712 -18.3644 -18.3259 -18.2480
   -17.9996 -17.8814 -16.9744 -16.8482 -16.8037 -16.7099 -16.6528 -16.5113
   -15.3563 -15.2422 -14.9415 -14.9174 -14.8348 -14.6970 -14.6195 -14.5503
   -14.5405 -14.4974 -14.4699 -14.4365 -14.3864 -14.3164 -14.2467 -14.0940
   -14.0687 -14.0163 -13.9736 -13.9686 -13.9621 -13.9552 -13.9536 -13.8620
   -13.8131 -13.7808 -13.6043 -13.5371 -13.5014 -13.3433  -8.2988  -8.0696
    -8.0321  -8.0202  -7.9256  -7.9161  -7.8394  -7.8278  -7.8197  -7.7802
    -7.7481  -7.6999  -7.6951  -7.6864  -7.6486  -7.6137  -7.6055  -7.5359
    -7.4919  -7.4748  -7.4661  -7.3831  -7.3216  -7.1767  -2.9239  -2.9061
    -2.7477  -2.5632  -2.1449  -2.1398  -2.0807  -2.0778  -2.0102  -1.9449
    -1.9110  -1.8764  -1.8369  -1.8138  -1.8054  -1.7781  -1.7070  -1.6626
    -1.6438  -1.6382  -1.5830  -1.4864  -1.4810  -1.4331  -1.4203  -1.3752
    -1.3437  -1.2500  -1.0977  -1.0217  -0.9761  -0.9248  -0.8972  -0.8959
    -0.8955  -0.8945  -0.8936  -0.8933  -0.8283  -0.8197  -0.7624  -0.7099
    -0.6900  -0.6549  -0.6501  -0.6430  -0.6208  -0.5397  -0.5205  -0.5095
    -0.4442  -0.2834  -0.2830  -0.2762  -0.2452  -0.2412  -0.1605  -0.1576
    -0.1572  -0.1302  -0.1285  -0.1065  -0.1016  -0.0684  -0.0290   0.0597
     0.0683   0.0719   0.0744   0.0775   0.0910   0.1201   0.1639   0.1926
     0.2041   0.2158   0.2549   0.2701   0.2973   0.2977   0.2990   0.3341
     0.3357   0.3570   0.4046   0.4063   0.4476   0.4496   0.4875   0.5169
     0.5596   0.5899   0.6032   0.6041   0.6392   0.6454   0.6562   0.6697
     0.7843   0.7933   0.8190   0.8869   0.9255   1.0007   1.0321   1.0505
     1.0596   1.1224   1.1447   1.1577   1.1824   1.1959   1.2319   1.2519
     1.2672   1.2745   1.3220   1.3289   1.3648   1.3761   1.4609   1.4815
     1.4971   1.5193   1.5381   1.5845   1.6322   1.6599   1.6636   1.7003
     1.7677   1.7941   1.8000   1.8380   1.8541   1.8733   1.8870   1.9027
     1.9531   1.9784   2.0450   2.1155   2.1266   2.1352   2.1645   2.1774
     2.1954   2.2907   2.3241   2.3474   2.3600   2.3923   2.4866   2.5678
     2.6580   2.6695   2.6752   2.7365   2.9301   2.9527   5.3400   5.3593
     5.6422   6.0801   6.2774   6.4670   6.7663   6.7860   6.9392   6.9903
     6.9907   7.4566   7.6685   7.7898   7.8212   7.8564   8.0938   8.1716
     8.2313   8.2448   8.2891   8.3362   8.3504   8.5045   8.5508   8.6066
     8.6940   8.7426   8.7667   9.0020   9.0116   9.1414   9.2191   9.3008
     9.3595   9.4535

          k = 0.1250 0.2618 0.0000 ( 69223 PWs)   bands (ev):

   -37.9938 -37.8694 -35.6215 -35.4723 -22.9431 -22.7633 -22.7542 -22.7390
   -22.6492 -22.6405 -22.4899 -22.3484 -18.4325 -18.3572 -18.2870 -18.2408
   -18.1106 -17.9923 -16.9447 -16.8433 -16.7737 -16.7187 -16.7049 -16.5772
   -15.2511 -15.1414 -14.8869 -14.8629 -14.7682 -14.6491 -14.5820 -14.5324
   -14.5134 -14.4723 -14.4250 -14.4214 -14.3265 -14.2789 -14.2051 -14.0666
   -14.0651 -14.0233 -14.0226 -13.9606 -13.9518 -13.9509 -13.9484 -13.8982
   -13.8297 -13.7804 -13.6240 -13.5608 -13.5307 -13.4047  -8.2859  -8.0547
    -8.0251  -8.0140  -7.9406  -7.9313  -7.8875  -7.8539  -7.8534  -7.8456
    -7.7904  -7.7806  -7.7727  -7.6914  -7.6891  -7.6829  -7.6779  -7.6746
    -7.6261  -7.6177  -7.5305  -7.4777  -7.3587  -7.3354  -3.0216  -2.9912
    -2.8074  -2.6173  -2.2744  -2.2587  -2.1634  -2.1505  -2.1475  -2.0449
    -2.0382  -1.9796  -1.9680  -1.9126  -1.8984  -1.8753  -1.8399  -1.7975
    -1.7867  -1.7507  -1.6906  -1.6609  -1.6159  -1.5686  -1.5456  -1.4540
    -1.4114  -1.3530  -1.3382  -1.3326  -1.3134  -1.3127  -1.2872  -1.2536
    -1.1909  -1.1388  -1.0202  -0.9473  -0.9044  -0.7780  -0.7601  -0.7141
    -0.6740  -0.6444  -0.6080  -0.5623  -0.5514  -0.5292  -0.5139  -0.4961
    -0.4192  -0.3687  -0.3518  -0.3292  -0.3239  -0.2880  -0.2746  -0.2526
    -0.2434  -0.2042  -0.1487  -0.1298  -0.0736  -0.0656  -0.0483  -0.0051
     0.0364   0.0655   0.0804   0.0850   0.1138   0.1328   0.1561   0.1736
     0.2380   0.2473   0.2528   0.2822   0.2858   0.3725   0.3729   0.3879
     0.4012   0.4145   0.4561   0.4646   0.4661   0.4894   0.5002   0.5212
     0.5243   0.5658   0.5918   0.6192   0.6362   0.7211   0.7222   0.7967
     0.8533   0.9288   0.9399   0.9626   0.9725   1.0253   1.0633   1.1074
     1.1226   1.1646   1.1926   1.2071   1.2239   1.2684   1.2955   1.3225
     1.3296   1.3508   1.3750   1.3844   1.3901   1.4139   1.4813   1.4858
     1.4882   1.5006   1.5655   1.6148   1.6386   1.6779   1.6872   1.7129
     1.7202   1.7713   1.7922   1.8137   1.8282   1.8535   1.8779   1.8883
     1.9154   1.9657   2.0002   2.0769   2.1029   2.1315   2.1812   2.2236
     2.2416   2.3417   2.4446   2.5620   2.8813   2.8898   2.9434   2.9564
     3.0456   3.0572   3.0821   3.1275   3.2736   3.3122   5.7148   5.7271
     5.8712   6.3580   6.4709   6.6070   7.0229   7.0261   7.0834   7.0902
     7.2136   7.6129   7.7266   7.7422   7.8560   7.9128   7.9919   8.0448
     8.3056   8.3163   8.3830   8.4661   8.4996   8.6563   8.7621   8.7971
     8.8294   8.8483   8.9252   9.0928   9.1412   9.2088   9.2616   9.2918
     9.3961   9.4308

          k = 0.1250 0.5236 0.0000 ( 69170 PWs)   bands (ev):

   -37.9873 -37.8629 -35.6174 -35.4682 -22.8936 -22.7033 -22.6946 -22.6942
   -22.6018 -22.5931 -22.4324 -22.3017 -18.3507 -18.3397 -18.3330 -18.2316
   -18.2234 -18.1878 -16.8730 -16.8600 -16.8315 -16.7224 -16.6971 -16.6928
   -15.0135 -14.9217 -14.7432 -14.7184 -14.5897 -14.5867 -14.5280 -14.5165
   -14.4882 -14.4267 -14.4136 -14.2784 -14.2487 -14.1751 -14.1712 -14.0910
   -14.0677 -14.0415 -13.9985 -13.9793 -13.9347 -13.9330 -13.9008 -13.8997
   -13.8600 -13.7104 -13.6778 -13.6655 -13.5542 -13.5408  -8.2902  -8.2448
    -8.2380  -8.2359  -8.0411  -8.0103  -8.0061  -7.9970  -7.9742  -7.9643
    -7.9442  -7.9223  -7.9133  -7.8989  -7.8784  -7.8699  -7.7723  -7.6854
    -7.6490  -7.6289  -7.6209  -7.6206  -7.5702  -7.3084  -3.4120  -3.3495
    -3.0521  -2.8600  -2.7600  -2.7339  -2.5751  -2.4833  -2.4219  -2.3837
    -2.3738  -2.3590  -2.2198  -2.1982  -2.1968  -2.1589  -2.1547  -2.0964
    -2.0139  -2.0139  -2.0021  -2.0019  -1.8723  -1.8530  -1.8496  -1.7912
    -1.7399  -1.6885  -1.5887  -1.5786  -1.5462  -1.4759  -1.4584  -1.4028
    -1.3205  -1.2976  -1.1527  -1.1159  -0.9210  -0.8928  -0.8809  -0.8464
    -0.8009  -0.7749  -0.7273  -0.6570  -0.6477  -0.6334  -0.6137  -0.5766
    -0.5691  -0.5306  -0.5157  -0.5094  -0.4859  -0.4604  -0.4337  -0.4313
    -0.4284  -0.3959  -0.3526  -0.3352  -0.3300  -0.3023  -0.2858  -0.2548
    -0.2398  -0.1868  -0.1829  -0.1681  -0.0356   0.1727   0.2288   0.2324
     0.2404   0.2443   0.3053   0.3256   0.3356   0.3780   0.3861   0.4197
     0.4632   0.5184   0.5753   0.6108   0.6518   0.6888   0.7426   0.7652
     0.8367   0.8656   0.8805   0.9269   0.9404   0.9610   1.0734   1.0993
     1.1035   1.1740   1.1850   1.2134   1.2396   1.2439   1.2674   1.2825
     1.2866   1.3433   1.3542   1.3664   1.4074   1.4135   1.4251   1.4440
     1.4524   1.4624   1.5234   1.5400   1.5506   1.5576   1.5699   1.5782
     1.6477   1.6515   1.6671   1.7001   1.7265   1.7496   1.7656   1.8382
     1.8522   1.8970   1.9013   1.9093   1.9165   1.9308   1.9843   1.9968
     2.0480   2.0656   2.0899   2.1462   2.1465   2.2031   2.2228   2.2765
     2.3103   2.3576   2.6023   2.7012   3.1561   3.1612   3.1951   3.2023
     3.7593   3.7980   3.8772   3.8936   4.0097   4.0960   5.9931   6.6038
     6.6045   6.7162   6.7208   6.8689   7.0670   7.1432   7.1600   7.2142
     7.8912   7.9403   7.9804   8.2021   8.3200   8.3657   8.4169   8.4750
     8.4948   8.5655   8.6230   8.6769   8.7574   8.8007   8.8401   8.9064
     9.0192   9.0480   9.1351   9.2042   9.2559   9.3760   9.4629   9.4893
     9.5141   9.6670

          k = 0.1250 0.7854 0.0000 ( 69162 PWs)   bands (ev):

   -37.9808 -37.8563 -35.6133 -35.4641 -22.8430 -22.6491 -22.6415 -22.6323
   -22.5532 -22.5446 -22.3734 -22.2539 -18.5597 -18.4413 -18.3224 -18.2270
   -18.2060 -18.0807 -16.9935 -16.8508 -16.8204 -16.7876 -16.6817 -16.6158
   -14.8095 -14.7761 -14.6718 -14.5700 -14.5675 -14.5408 -14.4798 -14.4243
   -14.3625 -14.3557 -14.3551 -14.3349 -14.2563 -14.1567 -14.1009 -14.0897
   -14.0632 -13.9938 -13.9607 -13.9109 -13.8889 -13.8827 -13.8550 -13.8530
   -13.8316 -13.7996 -13.7169 -13.7055 -13.6395 -13.5332  -8.6500  -8.5963
    -8.5875  -8.3325  -8.3044  -8.2963  -8.2783  -8.2067  -8.0216  -7.9895
    -7.9792  -7.9714  -7.9279  -7.9256  -7.9211  -7.9170  -7.9126  -7.7856
    -7.6534  -7.6104  -7.5781  -7.5748  -7.5665  -7.2527  -3.8952  -3.8255
    -3.4587  -3.2670  -3.1733  -3.1485  -3.0788  -2.9622  -2.9003  -2.7751
    -2.7695  -2.7516  -2.7102  -2.7088  -2.5114  -2.5032  -2.3361  -2.2266
    -2.2105  -2.1677  -2.1214  -2.1181  -2.0519  -2.0498  -1.8890  -1.8617
    -1.7887  -1.7492  -1.7002  -1.6728  -1.6498  -1.5611  -1.5372  -1.4643
    -1.4191  -1.3028  -1.1364  -1.1169  -1.1011  -1.0679  -1.0045  -0.9790
    -0.9686  -0.9387  -0.9096  -0.9055  -0.8952  -0.8796  -0.8096  -0.7646
    -0.7482  -0.7278  -0.7008  -0.6819  -0.6548  -0.6455  -0.6165  -0.6049
    -0.5841  -0.5570  -0.5303  -0.5173  -0.5142  -0.4932  -0.4265  -0.3482
    -0.3404  -0.3110  -0.1353  -0.1344  -0.0345   0.1359   0.2114   0.2171
     0.2272   0.2636   0.2812   0.3041   0.3185   0.4071   0.4419   0.4516
     0.4735   0.5827   0.6662   0.7429   0.8104   0.8453   0.8701   0.9508
     1.0065   1.0486   1.0843   1.0912   1.1243   1.1644   1.1852   1.2058
     1.2356   1.2886   1.3407   1.3427   1.3821   1.4075   1.4184   1.4320
     1.4824   1.4971   1.5319   1.5601   1.5721   1.5924   1.6319   1.6616
     1.7045   1.7096   1.7223   1.7508   1.7896   1.8102   1.8195   1.8470
     1.8614   1.8780   1.8833   1.8962   1.9180   1.9271   1.9431   1.9710
     2.0136   2.0566   2.0651   2.0780   2.0845   2.1140   2.1542   2.1817
     2.2323   2.2529   2.3078   2.3170   2.3454   2.3456   2.4050   2.5172
     2.5498   2.5516   2.5677   2.6314   3.0023   3.0107   3.1109   3.1200
     4.0957   4.1233   4.4914   4.5090   4.5662   4.6577   5.7593   6.2326
     6.2362   6.7580   6.8707   7.2947   7.4843   7.4903   7.8520   7.9203
     8.0814   8.3371   8.4352   8.4481   8.5326   8.6526   8.6944   8.7379
     8.8501   8.9076   8.9143   8.9693   9.0179   9.1001   9.1584   9.1919
     9.3061   9.3741   9.4340   9.4692   9.5056   9.5472   9.6127   9.6627
     9.6795   9.7407

          k = 0.1250-1.0472 0.0000 ( 69250 PWs)   bands (ev):

   -37.9781 -37.8536 -35.6116 -35.4623 -22.8218 -22.6300 -22.6153 -22.6062
   -22.5327 -22.5241 -22.3484 -22.2338 -18.6403 -18.5218 -18.3152 -18.1989
   -18.1797 -18.0332 -17.0440 -16.9010 -16.8158 -16.7517 -16.6770 -16.5797
   -14.8213 -14.7922 -14.6034 -14.5447 -14.5125 -14.4513 -14.4408 -14.4275
   -14.3975 -14.3729 -14.2932 -14.2394 -14.1960 -14.1709 -14.1260 -14.0927
   -14.0456 -13.9380 -13.9270 -13.9050 -13.8669 -13.8529 -13.8525 -13.8356
   -13.8354 -13.8302 -13.7654 -13.7323 -13.6338 -13.5062  -8.7937  -8.7290
    -8.7201  -8.4499  -8.4348  -8.4266  -8.4185  -8.1857  -8.0677  -8.0485
    -7.9920  -7.9812  -7.9419  -7.9333  -7.9308  -7.9169  -7.9075  -7.7898
    -7.6649  -7.6094  -7.5564  -7.5510  -7.5427  -7.2272  -4.0964  -4.0269
    -3.6456  -3.4539  -3.3345  -3.3098  -3.2847  -3.1704  -3.0511  -3.0076
    -3.0021  -2.9406  -2.9391  -2.9018  -2.5371  -2.5292  -2.3549  -2.3545
    -2.3021  -2.2252  -2.1446  -2.1428  -2.0411  -2.0392  -1.8980  -1.8617
    -1.8612  -1.8364  -1.7764  -1.7555  -1.7225  -1.4932  -1.4571  -1.4442
    -1.3373  -1.2746  -1.2667  -1.1931  -1.1849  -1.1366  -1.1054  -1.0492
    -1.0407  -1.0186  -0.9778  -0.9716  -0.9415  -0.9247  -0.9214  -0.9155
    -0.8371  -0.8173  -0.8020  -0.7415  -0.7390  -0.7195  -0.7028  -0.6964
    -0.6457  -0.6379  -0.6080  -0.6019  -0.5990  -0.4884  -0.3770  -0.3406
    -0.3056  -0.2845  -0.1024  -0.1020  -0.0448   0.1041   0.1166   0.1747
     0.2136   0.2357   0.2747   0.2927   0.3375   0.3915   0.3953   0.4897
     0.5081   0.5849   0.7320   0.7748   0.8649   0.8717   0.8921   0.9509
     1.0150   1.0234   1.0819   1.1289   1.1735   1.2088   1.3013   1.3074
     1.3344   1.3626   1.3998   1.4395   1.4632   1.4916   1.4954   1.4966
     1.5077   1.5291   1.5412   1.5500   1.6283   1.6588   1.7115   1.7120
     1.7625   1.8162   1.8386   1.8545   1.8799   1.9014   1.9072   1.9370
     1.9412   1.9997   2.0148   2.0297   2.0461   2.0660   2.0836   2.1146
     2.1253   2.1355   2.2050   2.2219   2.2593   2.2789   2.2802   2.2934
     2.3063   2.3243   2.4069   2.4436   2.4532   2.4732   2.5109   2.5448
     2.5458   2.6261   2.7149   2.7163   2.7699   2.7826   2.9467   2.9579
     4.1291   4.1937   4.6837   4.7067   4.7596   4.8441   5.6702   6.0060
     6.0096   6.6233   6.7635   7.4872   7.8242   7.8281   7.8561   8.2317
     8.3136   8.3363   8.3364   8.4346   8.5065   8.5351   8.8334   8.9740
     9.0303   9.0915   9.1529   9.1774   9.1940   9.2334   9.3369   9.3574
     9.3772   9.3913   9.4426   9.5056   9.5683   9.6873   9.7397   9.7424
     9.7974   9.8634

          k = 0.2500 0.0000 0.0000 ( 69201 PWs)   bands (ev):

   -37.9965 -37.8721 -35.6232 -35.4740 -22.9588 -22.7750 -22.7659 -22.7621
   -22.6820 -22.6733 -22.5046 -22.3768 -18.4694 -18.3565 -18.3241 -18.2403
   -17.9996 -17.8813 -16.9815 -16.8766 -16.8110 -16.7385 -16.6528 -16.5113
   -15.2825 -15.1705 -14.9044 -14.8826 -14.8137 -14.7071 -14.6134 -14.6018
   -14.5652 -14.5447 -14.4993 -14.4546 -14.4205 -14.3353 -14.2034 -14.0799
   -14.0542 -14.0037 -13.9782 -13.9732 -13.9682 -13.9597 -13.9568 -13.8728
   -13.7859 -13.7737 -13.6053 -13.5514 -13.5144 -13.3679  -8.3066  -8.0849
    -8.0370  -8.0253  -7.9332  -7.9238  -7.8217  -7.7947  -7.7867  -7.7855
    -7.7322  -7.7095  -7.6715  -7.6627  -7.6514  -7.6327  -7.6244  -7.5535
    -7.5010  -7.4924  -7.4581  -7.3619  -7.3275  -7.2002  -2.8231  -2.8051
    -2.6533  -2.4641  -2.1625  -2.1529  -2.1169  -2.1134  -2.0011  -1.9898
    -1.9373  -1.9100  -1.8941  -1.8630  -1.8158  -1.7988  -1.7281  -1.6736
    -1.6621  -1.6569  -1.6007  -1.5802  -1.4365  -1.4190  -1.4069  -1.3869
    -1.3775  -1.3079  -1.0419  -0.9293  -0.9145  -0.9144  -0.8968  -0.8931
    -0.8927  -0.8885  -0.8786  -0.8671  -0.8209  -0.7598  -0.7510  -0.7025
    -0.6828  -0.5987  -0.5954  -0.5909  -0.5838  -0.5694  -0.5092  -0.4825
    -0.4567  -0.3516  -0.3420  -0.2725  -0.2658  -0.2530  -0.2333  -0.2079
    -0.1893  -0.1857  -0.1642  -0.1557  -0.1159  -0.0892  -0.0458  -0.0425
     0.0456   0.0611   0.0639   0.0666   0.0899   0.1042   0.1292   0.1901
     0.2297   0.2449   0.2998   0.3014   0.3229   0.3230   0.3480   0.3522
     0.3601   0.3682   0.3891   0.4020   0.4467   0.4700   0.4790   0.5594
     0.5612   0.5868   0.5908   0.5934   0.6343   0.6535   0.6885   0.7336
     0.7670   0.7829   0.8140   0.8550   0.9563   0.9654   1.0177   1.0196
     1.0525   1.0810   1.1115   1.1185   1.1387   1.1755   1.2052   1.2131
     1.2537   1.2789   1.3367   1.3485   1.3649   1.3752   1.4187   1.4679
     1.4832   1.5265   1.5303   1.6238   1.6324   1.6424   1.6499   1.6537
     1.7710   1.7985   1.8233   1.8554   1.8828   1.8878   1.8920   1.9200
     1.9781   1.9975   2.0395   2.0816   2.0916   2.1354   2.1846   2.1929
     2.2701   2.3105   2.3172   2.3288   2.3403   2.3438   2.5108   2.5766
     2.6744   2.6925   2.6988   2.7290   2.9136   2.9293   5.4862   5.4955
     5.7814   6.2377   6.3854   6.5220   6.6040   6.6053   6.9283   6.9448
     7.0526   7.4995   7.5758   7.6543   8.0458   8.0667   8.1022   8.1788
     8.2245   8.2342   8.3388   8.3513   8.4319   8.4516   8.4979   8.5856
     8.6353   8.8330   8.8541   8.9213   9.0819   9.1461   9.2430   9.3054
     9.3666   9.4939

          k = 0.2500 0.2618 0.0000 ( 69198 PWs)   bands (ev):

   -37.9938 -37.8694 -35.6215 -35.4723 -22.9388 -22.7512 -22.7437 -22.7421
   -22.6620 -22.6533 -22.4817 -22.3573 -18.4308 -18.3494 -18.2853 -18.2332
   -18.1105 -17.9923 -16.9515 -16.8703 -16.7808 -16.7322 -16.7185 -16.5770
   -15.1790 -15.0725 -14.8546 -14.8336 -14.7499 -14.6575 -14.5720 -14.5551
   -14.5243 -14.5122 -14.4888 -14.4368 -14.3558 -14.3057 -14.1623 -14.0648
   -14.0551 -14.0279 -14.0109 -13.9619 -13.9558 -13.9556 -13.9530 -13.9048
   -13.8260 -13.7549 -13.6224 -13.5860 -13.5270 -13.4202  -8.2901  -8.0726
    -8.0316  -8.0208  -7.9609  -7.9518  -7.9322  -7.9074  -7.8990  -7.8965
    -7.8270  -7.8180  -7.8012  -7.7087  -7.6359  -7.6290  -7.6098  -7.6013
    -7.5669  -7.5661  -7.5584  -7.5184  -7.2976  -7.2740  -2.9174  -2.8864
    -2.7064  -2.5136  -2.3094  -2.2923  -2.1821  -2.1298  -2.1280  -2.0689
    -2.0557  -1.9905  -1.9757  -1.9328  -1.9188  -1.8867  -1.8782  -1.8586
    -1.7940  -1.7852  -1.7579  -1.7331  -1.6589  -1.6309  -1.5608  -1.4985
    -1.3774  -1.3414  -1.3320  -1.3184  -1.3157  -1.3053  -1.2064  -1.1777
    -1.1361  -1.0942  -0.9744  -0.9292  -0.9018  -0.7908  -0.7773  -0.7117
    -0.6743  -0.6733  -0.6510  -0.6034  -0.5824  -0.5574  -0.5133  -0.4989
    -0.4863  -0.4528  -0.3910  -0.3828  -0.3437  -0.3138  -0.2890  -0.2631
    -0.2220  -0.2178  -0.1984  -0.1568  -0.0578  -0.0494  -0.0229   0.0126
     0.0392   0.0627   0.0858   0.0938   0.0985   0.1065   0.1384   0.1578
     0.2322   0.2367   0.2431   0.2599   0.2723   0.3507   0.4044   0.4060
     0.4099   0.4215   0.4633   0.4637   0.4780   0.4881   0.5220   0.5372
     0.5437   0.5835   0.6085   0.6361   0.6566   0.6823   0.7110   0.7844
     0.8400   0.9446   0.9653   0.9793   1.0052   1.0206   1.0645   1.0940
     1.1355   1.1960   1.2128   1.2228   1.2345   1.2424   1.2764   1.2980
     1.3101   1.3230   1.3334   1.3501   1.3838   1.4139   1.4205   1.4664
     1.4888   1.5184   1.5223   1.5944   1.6057   1.6724   1.6784   1.7390
     1.7475   1.7567   1.7690   1.7902   1.8217   1.8262   1.8555   1.8688
     1.9037   1.9210   1.9943   2.0279   2.0811   2.2042   2.2616   2.3492
     2.4058   2.4172   2.6269   2.6938   2.8682   2.8798   2.9523   2.9629
     3.0359   3.0692   3.0715   3.1171   3.2468   3.2856   5.8274   5.8335
     5.9665   6.4800   6.5392   6.6847   6.7413   6.7433   7.2359   7.2477
     7.3305   7.5793   7.6880   7.7663   7.9191   7.9563   8.1526   8.1594
     8.2990   8.3236   8.3931   8.4895   8.5354   8.6395   8.6712   8.7068
     8.8126   8.8802   8.9029   8.9829   9.0960   9.1429   9.2202   9.2724
     9.3130   9.3971

          k = 0.2500 0.5236 0.0000 ( 69170 PWs)   bands (ev):

   -37.9873 -37.8629 -35.6174 -35.4682 -22.8900 -22.6985 -22.6927 -22.6836
   -22.6128 -22.6042 -22.4253 -22.3093 -18.3506 -18.3322 -18.3316 -18.2316
   -18.2160 -18.1863 -16.8778 -16.8622 -16.8547 -16.7239 -16.7161 -16.7029
   -14.9475 -14.8635 -14.7274 -14.7074 -14.5838 -14.5763 -14.5252 -14.5186
   -14.4743 -14.4174 -14.4138 -14.3432 -14.2698 -14.2052 -14.1811 -14.0803
   -14.0762 -14.0626 -14.0272 -13.9678 -13.9313 -13.9285 -13.9049 -13.9038
   -13.8447 -13.7093 -13.6786 -13.6575 -13.5612 -13.5378  -8.3167  -8.2802
    -8.2716  -8.2412  -8.0705  -8.0271  -8.0185  -8.0129  -7.9897  -7.9791
    -7.9640  -7.9272  -7.9181  -7.8770  -7.8463  -7.8378  -7.7817  -7.7048
    -7.6512  -7.6024  -7.5818  -7.5734  -7.5385  -7.2703  -3.3113  -3.2490
    -2.9497  -2.7933  -2.7767  -2.7427  -2.5831  -2.4831  -2.4261  -2.3956
    -2.3570  -2.3427  -2.2096  -2.2022  -2.2006  -2.1544  -2.1528  -2.0836
    -2.0211  -2.0202  -1.9988  -1.9985  -1.8999  -1.8494  -1.8302  -1.8092
    -1.7615  -1.7301  -1.6957  -1.5799  -1.5288  -1.5177  -1.4460  -1.3962
    -1.3110  -1.3005  -1.1842  -1.1499  -0.9704  -0.9409  -0.9083  -0.8823
    -0.8378  -0.8108  -0.7870  -0.7660  -0.7323  -0.6710  -0.6419  -0.6338
    -0.6243  -0.5618  -0.5399  -0.5155  -0.5010  -0.4883  -0.4347  -0.4164
    -0.4125  -0.3990  -0.3558  -0.3331  -0.3219  -0.3131  -0.3070  -0.2360
    -0.2243  -0.1732  -0.1570  -0.1374  -0.0051   0.0864   0.1632   0.2052
     0.2226   0.2771   0.3012   0.3176   0.3301   0.3909   0.4367   0.4805
     0.4999   0.5489   0.5806   0.6178   0.6655   0.7030   0.7218   0.8255
     0.8534   0.8603   0.9392   0.9504   0.9619   0.9690   1.0201   1.0719
     1.0820   1.1605   1.1775   1.1804   1.1996   1.2080   1.2220   1.2327
     1.3023   1.3332   1.3506   1.3673   1.3820   1.4244   1.4638   1.4710
     1.5166   1.5326   1.5416   1.5511   1.5604   1.5732   1.5938   1.6055
     1.6254   1.6500   1.6660   1.6940   1.7093   1.7286   1.7452   1.7904
     1.8186   1.8426   1.8754   1.8889   1.9237   1.9341   1.9432   1.9628
     1.9870   2.0403   2.1122   2.1214   2.1377   2.2561   2.3036   2.4125
     2.6209   2.6362   2.8623   2.9329   3.1589   3.1638   3.2017   3.2118
     3.7599   3.7707   3.7921   3.8030   3.9217   4.0078   6.0778   6.6445
     6.6455   6.7341   6.7386   6.9011   7.1245   7.1939   7.2369   7.2701
     8.0103   8.0742   8.0886   8.1698   8.1953   8.2593   8.3914   8.4500
     8.4675   8.4967   8.5868   8.6231   8.6785   8.8295   8.8587   8.9242
     9.0316   9.0739   9.1601   9.1950   9.2581   9.3771   9.4067   9.4162
     9.4430   9.5606

          k = 0.2500 0.7854 0.0000 ( 69176 PWs)   bands (ev):

   -37.9808 -37.8563 -35.6133 -35.4641 -22.8402 -22.6522 -22.6326 -22.6234
   -22.5624 -22.5539 -22.3675 -22.2601 -18.5596 -18.4412 -18.3151 -18.2257
   -18.1988 -18.0794 -16.9935 -16.8508 -16.8428 -16.7928 -16.7042 -16.6211
   -14.7702 -14.7432 -14.6208 -14.5824 -14.5618 -14.5138 -14.4652 -14.4161
   -14.3541 -14.3514 -14.3459 -14.3367 -14.2559 -14.1704 -14.1536 -14.1229
   -14.0478 -14.0178 -13.9684 -13.9574 -13.8850 -13.8793 -13.8586 -13.8556
   -13.8206 -13.7911 -13.7209 -13.7044 -13.6343 -13.5519  -8.6056  -8.5564
    -8.5477  -8.2656  -8.2301  -8.1953  -8.1893  -8.1864  -8.1097  -8.0535
    -8.0449  -7.9737  -7.9636  -7.9511  -7.9287  -7.9190  -7.8633  -7.7863
    -7.7536  -7.6492  -7.6310  -7.6226  -7.5964  -7.3072  -3.7927  -3.7255
    -3.3641  -3.2193  -3.1954  -3.1702  -3.0742  -2.9674  -2.9267  -2.7849
    -2.7623  -2.7595  -2.7171  -2.7159  -2.4672  -2.4586  -2.2965  -2.1632
    -2.1456  -2.1319  -2.1261  -2.0762  -2.0472  -2.0431  -1.9101  -1.8582
    -1.7801  -1.7392  -1.7148  -1.7018  -1.6439  -1.6307  -1.5669  -1.5135
    -1.4588  -1.4071  -1.2846  -1.2417  -1.1531  -1.1171  -1.1097  -1.0476
    -1.0070  -0.9978  -0.9952  -0.9659  -0.9183  -0.8794  -0.8565  -0.8352
    -0.7372  -0.6792  -0.6740  -0.6647  -0.6427  -0.6329  -0.6082  -0.5964
    -0.5878  -0.5503  -0.5373  -0.5177  -0.5112  -0.4604  -0.4016  -0.3446
    -0.3198  -0.2983  -0.1687  -0.1666  -0.0154   0.0598   0.1317   0.2057
     0.2857   0.3273   0.3475   0.3886   0.4160   0.4305   0.4426   0.4742
     0.5266   0.5635   0.7017   0.7790   0.7901   0.8055   0.9197   1.0072
     1.0458   1.0771   1.0791   1.0856   1.1332   1.1984   1.2125   1.2503
     1.2611   1.2856   1.3135   1.3227   1.3267   1.3527   1.4073   1.4193
     1.4651   1.4950   1.5167   1.5556   1.5768   1.6102   1.6118   1.6427
     1.6455   1.6911   1.7151   1.7348   1.7858   1.7954   1.8239   1.8444
     1.8584   1.8751   1.8859   1.8998   1.9187   1.9313   1.9415   1.9750
     1.9792   2.0382   2.0470   2.0617   2.0663   2.0936   2.1380   2.1491
     2.2199   2.2267   2.3695   2.3701   2.4005   2.5271   2.5281   2.5651
     2.6076   2.6277   2.8340   2.8900   3.0091   3.0162   3.1483   3.1658
     4.0905   4.1411   4.3031   4.3220   4.3960   4.4867   5.8832   6.3889
     6.3923   6.8499   6.9418   7.1671   7.3731   7.3785   7.8273   7.9014
     7.9591   8.2094   8.2989   8.4668   8.4860   8.6551   8.6889   8.7509
     8.8503   8.9046   8.9748   9.0124   9.0467   9.2116   9.2663   9.2894
     9.3296   9.3660   9.4677   9.5094   9.5489   9.5629   9.6231   9.6350
     9.7211   9.8447

          k = 0.2500-1.0472 0.0000 ( 69140 PWs)   bands (ev):

   -37.9781 -37.8536 -35.6116 -35.4623 -22.8192 -22.6327 -22.6072 -22.5979
   -22.5412 -22.5326 -22.3431 -22.2394 -18.6402 -18.5217 -18.3079 -18.1917
   -18.1786 -18.0320 -17.0440 -16.9011 -16.8374 -16.7566 -16.6988 -16.5847
   -14.7888 -14.7587 -14.5529 -14.5389 -14.4949 -14.4632 -14.4547 -14.4167
   -14.3893 -14.3473 -14.2858 -14.2401 -14.1946 -14.1630 -14.1235 -14.1063
   -14.0949 -13.9603 -13.9417 -13.9069 -13.8977 -13.8522 -13.8510 -13.8394
   -13.8379 -13.8180 -13.7779 -13.7184 -13.6458 -13.5337  -8.7077  -8.6422
    -8.6334  -8.3662  -8.3460  -8.3379  -8.3351  -8.1836  -8.1382  -8.0401
    -8.0315  -8.0104  -7.9816  -7.9711  -7.9269  -7.9169  -7.9078  -7.7981
    -7.7558  -7.6800  -7.6713  -7.6629  -7.5864  -7.3327  -3.9914  -3.9251
    -3.5522  -3.3828  -3.3683  -3.3504  -3.2818  -3.1751  -3.0835  -3.0012
    -2.9960  -2.9482  -2.9468  -2.9306  -2.4839  -2.4754  -2.3046  -2.2769
    -2.2200  -2.1678  -2.1518  -2.1484  -2.0415  -2.0388  -1.9157  -1.8591
    -1.8317  -1.7662  -1.7498  -1.6907  -1.6656  -1.5755  -1.5439  -1.5249
    -1.5209  -1.4376  -1.3878  -1.3358  -1.2728  -1.2082  -1.2041  -1.1677
    -1.1246  -1.0726  -1.0366  -1.0226  -0.9977  -0.9452  -0.8880  -0.8609
    -0.7818  -0.7572  -0.7536  -0.7377  -0.7261  -0.7230  -0.6888  -0.6697
    -0.6389  -0.6356  -0.6126  -0.5942  -0.5604  -0.4750  -0.3802  -0.3413
    -0.3005  -0.2689  -0.1454  -0.1445  -0.0384   0.0573   0.1240   0.2086
     0.3076   0.3191   0.3374   0.4187   0.4260   0.4300   0.4377   0.4531
     0.4760   0.5651   0.7263   0.8314   0.8590   0.8673   1.0004   1.0252
     1.0908   1.0956   1.1056   1.1321   1.1430   1.2246   1.2671   1.3154
     1.3200   1.3444   1.3652   1.3752   1.4067   1.4286   1.4885   1.4938
     1.5014   1.5300   1.5438   1.6152   1.6337   1.6517   1.6999   1.7093
     1.7313   1.7483   1.7644   1.8228   1.8442   1.8584   1.9029   1.9196
     1.9456   1.9516   2.0022   2.0191   2.0222   2.0330   2.0885   2.1179
     2.1761   2.1920   2.2282   2.2461   2.2767   2.2800   2.2935   2.3040
     2.3898   2.3904   2.3951   2.5158   2.5308   2.5640   2.5651   2.6039
     2.6945   2.6957   2.7021   2.7532   2.7879   2.7960   3.0287   3.0524
     4.1235   4.2331   4.4561   4.4793   4.5482   4.6340   5.7919   6.1987
     6.2016   6.7232   6.8393   7.2293   7.5757   7.5785   7.9144   7.9879
     8.0431   8.2804   8.3307   8.4414   8.4634   8.6234   8.9681   9.0855
     9.1195   9.1264   9.2522   9.2715   9.3106   9.3690   9.3968   9.4114
     9.4470   9.5137   9.5482   9.6453   9.7000   9.7218   9.7332   9.7615
     9.8222   9.8502

          k = 0.3750 0.0000 0.0000 ( 69222 PWs)   bands (ev):

   -37.9965 -37.8721 -35.6232 -35.4740 -22.9539 -22.7675 -22.7568 -22.7476
   -22.7009 -22.6924 -22.4943 -22.3877 -18.4676 -18.3485 -18.3223 -18.2324
   -17.9996 -17.8813 -16.9886 -16.9042 -16.8184 -16.7663 -16.6528 -16.5114
   -15.1876 -15.0800 -14.8810 -14.8521 -14.7851 -14.7251 -14.6815 -14.6149
   -14.6076 -14.5543 -14.5434 -14.4757 -14.4220 -14.3522 -14.1773 -14.0714
   -14.0395 -13.9939 -13.9815 -13.9770 -13.9752 -13.9670 -13.9595 -13.8820
   -13.7822 -13.7268 -13.6070 -13.5937 -13.5129 -13.3946  -8.3142  -8.0982
    -8.0411  -8.0297  -7.9389  -7.9295  -7.8151  -7.7837  -7.7546  -7.7466
    -7.7124  -7.7109  -7.6614  -7.6577  -7.6529  -7.6366  -7.6276  -7.5749
    -7.5385  -7.5300  -7.4232  -7.3377  -7.3313  -7.2329  -2.6680  -2.6505
    -2.5138  -2.3216  -2.2932  -2.2754  -2.1390  -2.0902  -2.0869  -1.9914
    -1.9773  -1.9692  -1.9291  -1.9100  -1.8743  -1.7972  -1.7904  -1.6813
    -1.6743  -1.6497  -1.6191  -1.6015  -1.4671  -1.4015  -1.3890  -1.3818
    -1.3518  -1.3324  -0.9851  -0.9207  -0.8992  -0.8927  -0.8906  -0.8891
    -0.8871  -0.8307  -0.8052  -0.7980  -0.7806  -0.7472  -0.7315  -0.7210
    -0.6690  -0.6293  -0.6280  -0.5535  -0.5078  -0.5041  -0.4775  -0.4635
    -0.4580  -0.3893  -0.3841  -0.3783  -0.3269  -0.3035  -0.2723  -0.2710
    -0.2594  -0.1782  -0.1736  -0.1589  -0.1469  -0.1127  -0.0863  -0.0288
     0.0133   0.0360   0.0477   0.0530   0.0546   0.1057   0.1097   0.1546
     0.2645   0.2767   0.3062   0.3080   0.3200   0.3218   0.3411   0.3625
     0.3804   0.4205   0.4269   0.4282   0.4316   0.5038   0.5130   0.5530
     0.5585   0.5763   0.5997   0.6337   0.6356   0.6535   0.7104   0.7591
     0.7841   0.7924   0.8196   0.8916   0.9423   0.9473   0.9490   0.9711
     0.9986   1.0416   1.0556   1.0762   1.1137   1.1672   1.2141   1.2227
     1.2607   1.2737   1.3535   1.3717   1.3892   1.4198   1.4253   1.4424
     1.4532   1.4924   1.5458   1.5748   1.6015   1.6232   1.6426   1.6504
     1.7647   1.7655   1.7796   1.8466   1.8818   1.9188   1.9229   1.9563
     2.0070   2.0260   2.0289   2.0408   2.0485   2.0772   2.1924   2.2499
     2.2595   2.2796   2.2804   2.3143   2.3727   2.4903   2.5290   2.6026
     2.6887   2.7017   2.7339   2.7399   2.8750   2.8818   5.6958   5.6989
     5.9667   6.2571   6.2579   6.4386   6.4725   6.6491   7.1641   7.1916
     7.2508   7.2834   7.3694   7.6425   7.8986   7.9078   7.9583   8.1873
     8.2370   8.2732   8.3414   8.4028   8.4585   8.5183   8.5666   8.6230
     8.6977   8.7987   8.9968   9.0608   9.1236   9.2180   9.2236   9.2735
     9.3315   9.3431

          k = 0.3750 0.2618 0.0000 ( 69210 PWs)   bands (ev):

   -37.9938 -37.8694 -35.6215 -35.4723 -22.9343 -22.7487 -22.7340 -22.7247
   -22.6798 -22.6713 -22.4720 -22.3675 -18.4291 -18.3415 -18.2836 -18.2254
   -18.1105 -17.9923 -16.9583 -16.8967 -16.7878 -16.7587 -16.7184 -16.5768
   -15.0849 -14.9848 -14.8316 -14.8075 -14.7252 -14.6729 -14.6193 -14.5895
   -14.5638 -14.5239 -14.5127 -14.4525 -14.3720 -14.3183 -14.1389 -14.0651
   -14.0467 -14.0330 -14.0073 -13.9628 -13.9622 -13.9606 -13.9536 -13.9083
   -13.8231 -13.7174 -13.6217 -13.6188 -13.5263 -13.4358  -8.2947  -8.0955
    -8.0415  -8.0312  -7.9862  -7.9775  -7.9584  -7.9341  -7.9256  -7.9202
    -7.8503  -7.8414  -7.8147  -7.7325  -7.6164  -7.6030  -7.5672  -7.5575
    -7.5491  -7.5271  -7.5258  -7.5180  -7.2550  -7.2297  -2.7584  -2.7274
    -2.5584  -2.4037  -2.3823  -2.3603  -2.2427  -2.1133  -2.1072  -2.0918
    -2.0771  -2.0284  -1.9900  -1.9794  -1.9629  -1.9459  -1.9217  -1.8817
    -1.8355  -1.7955  -1.7896  -1.7720  -1.7502  -1.6843  -1.5548  -1.4940
    -1.3465  -1.3342  -1.3247  -1.3219  -1.3204  -1.2778  -1.1155  -1.0738
    -1.0623  -1.0066  -0.9680  -0.8809  -0.8567  -0.8043  -0.7835  -0.7788
    -0.7543  -0.7262  -0.6713  -0.6465  -0.6324  -0.6072  -0.5957  -0.5225
    -0.5156  -0.4674  -0.4490  -0.4352  -0.3766  -0.3485  -0.3052  -0.2923
    -0.2289  -0.1822  -0.1677  -0.1502  -0.0552  -0.0375  -0.0303  -0.0165
     0.0275   0.0432   0.0714   0.0760   0.0872   0.1181   0.1337   0.1921
     0.2097   0.2201   0.2303   0.2560   0.2766   0.3233   0.4169   0.4306
     0.4479   0.4514   0.4670   0.4687   0.4866   0.5008   0.5479   0.5675
     0.5848   0.5899   0.6007   0.6188   0.6260   0.7224   0.7637   0.7819
     0.8076   0.9274   0.9538   1.0078   1.0339   1.0431   1.0624   1.0924
     1.1280   1.1395   1.1855   1.1951   1.2134   1.2377   1.2723   1.2804
     1.3102   1.3274   1.3357   1.3546   1.3769   1.3874   1.4089   1.4825
     1.5221   1.5609   1.5708   1.5851   1.5929   1.6523   1.6580   1.6910
     1.7057   1.7115   1.7282   1.7884   1.8176   1.8301   1.8328   1.8438
     1.8724   1.9029   1.9197   2.0371   2.1139   2.2240   2.3053   2.3652
     2.5802   2.5949   2.7969   2.8397   2.8495   2.9017   2.9670   2.9748
     3.0162   3.0423   3.0797   3.1053   3.1906   3.2284   5.9969   5.9990
     6.0822   6.4619   6.4630   6.6076   6.6633   6.8076   7.3577   7.4486
     7.4776   7.5035   7.5431   7.9042   7.9543   8.0140   8.1209   8.1315
     8.1505   8.3249   8.4216   8.4801   8.5923   8.6114   8.6701   8.7075
     8.7550   8.8230   8.8912   8.9821   9.0573   9.1341   9.2635   9.2868
     9.3168   9.3508

          k = 0.3750 0.5236 0.0000 ( 69127 PWs)   bands (ev):

   -37.9873 -37.8629 -35.6174 -35.4682 -22.8863 -22.7025 -22.6779 -22.6686
   -22.6281 -22.6197 -22.4172 -22.3179 -18.3505 -18.3302 -18.3245 -18.2315
   -18.2084 -18.1847 -16.8835 -16.8798 -16.8613 -16.7422 -16.7223 -16.7087
   -14.8611 -14.7921 -14.7200 -14.7025 -14.5762 -14.5630 -14.5325 -14.5104
   -14.4597 -14.4318 -14.4201 -14.4145 -14.2579 -14.2339 -14.1882 -14.1135
   -14.1036 -14.0513 -14.0492 -13.9521 -13.9276 -13.9242 -13.9089 -13.9087
   -13.8362 -13.7084 -13.6791 -13.6494 -13.5679 -13.5357  -8.3108  -8.2784
    -8.2698  -8.2410  -8.1761  -8.1408  -8.1323  -8.0119  -7.9890  -7.9783
    -7.9434  -7.9218  -7.9128  -7.8244  -7.8032  -7.7667  -7.7354  -7.7269
    -7.6478  -7.5924  -7.5845  -7.5762  -7.4433  -7.2728  -3.1663  -3.1053
    -2.8738  -2.8318  -2.8024  -2.6154  -2.6076  -2.4841  -2.4311  -2.4209
    -2.3246  -2.3129  -2.2190  -2.2134  -2.1788  -2.1458  -2.1453  -2.0611
    -2.0574  -2.0369  -1.9956  -1.9923  -1.9883  -1.9348  -1.9254  -1.8450
    -1.8257  -1.7524  -1.6004  -1.5456  -1.4898  -1.4405  -1.4135  -1.3269
    -1.3140  -1.2901  -1.2367  -1.1959  -1.1371  -1.1213  -1.0187  -0.9426
    -0.9158  -0.8672  -0.8557  -0.8036  -0.7826  -0.7307  -0.6427  -0.6274
    -0.6202  -0.5823  -0.5513  -0.5484  -0.4865  -0.4706  -0.4360  -0.3974
    -0.3913  -0.3838  -0.3591  -0.3451  -0.3387  -0.3267  -0.2892  -0.2049
    -0.1993  -0.1659  -0.1368  -0.1215  -0.0578   0.0286   0.0516   0.1811
     0.2061   0.2584   0.2760   0.3068   0.4017   0.4506   0.4872   0.5247
     0.5815   0.5963   0.6025   0.6337   0.6716   0.7087   0.7382   0.8238
     0.8893   0.9065   0.9356   0.9804   0.9904   0.9982   1.0296   1.0638
     1.0869   1.1031   1.1358   1.1568   1.1608   1.1639   1.1770   1.2011
     1.2607   1.3056   1.3307   1.3889   1.4174   1.4396   1.4515   1.4879
     1.5062   1.5234   1.5481   1.5697   1.6022   1.6044   1.6249   1.6346
     1.6462   1.6625   1.6716   1.7099   1.7143   1.7284   1.7452   1.7586
     1.7910   1.7946   1.8074   1.8748   1.8902   1.9036   1.9500   1.9678
     1.9863   1.9974   2.0809   2.0838   2.1826   2.2727   2.3536   2.4827
     2.9680   2.9819   3.1248   3.1579   3.1656   3.1728   3.2599   3.3187
     3.5935   3.6163   3.7388   3.7705   3.8098   3.8507   6.1743   6.6928
     6.6951   6.7474   6.7515   6.9176   7.2108   7.2812   7.3097   7.3374
     7.9478   8.0315   8.1720   8.2347   8.2529   8.2645   8.3308   8.3839
     8.4339   8.4389   8.5388   8.6600   8.7285   8.8443   8.9049   8.9612
     9.0696   9.1268   9.1751   9.1886   9.2257   9.2619   9.3007   9.3606
     9.4399   9.4768

          k = 0.3750 0.7854 0.0000 ( 69176 PWs)   bands (ev):

   -37.9808 -37.8563 -35.6133 -35.4641 -22.8373 -22.6554 -22.6203 -22.6110
   -22.5750 -22.5666 -22.3609 -22.2671 -18.5595 -18.4411 -18.3076 -18.2244
   -18.1915 -18.0781 -16.9935 -16.8649 -16.8507 -16.7980 -16.7264 -16.6264
   -14.7205 -14.6980 -14.6161 -14.5987 -14.5461 -14.4462 -14.4442 -14.3972
   -14.3523 -14.3460 -14.3428 -14.3288 -14.2674 -14.2347 -14.1682 -14.1448
   -14.0531 -14.0325 -14.0225 -13.9699 -13.8797 -13.8741 -13.8636 -13.8600
   -13.8063 -13.7806 -13.7356 -13.6981 -13.6239 -13.5774  -8.5229  -8.4750
    -8.4663  -8.2773  -8.2026  -8.1984  -8.1940  -8.1660  -8.0873  -8.0500
    -8.0416  -7.9647  -7.9543  -7.9372  -7.9350  -7.9259  -7.8882  -7.8341
    -7.7440  -7.7359  -7.7275  -7.6851  -7.6082  -7.3987  -3.6516  -3.5894
    -3.3021  -3.2658  -3.2396  -3.0785  -3.0565  -2.9735  -2.9682  -2.8261
    -2.7517  -2.7517  -2.7276  -2.7265  -2.3878  -2.3784  -2.2194  -2.1680
    -2.1627  -2.0709  -2.0356  -2.0297  -2.0027  -1.9716  -1.9362  -1.8926
    -1.8826  -1.8509  -1.7951  -1.6906  -1.6774  -1.5876  -1.5600  -1.5306
    -1.4978  -1.4924  -1.4594  -1.3954  -1.3153  -1.2415  -1.2130  -1.1684
    -1.0586  -1.0207  -1.0129  -0.9939  -0.9111  -0.8640  -0.8145  -0.7830
    -0.7143  -0.6732  -0.6426  -0.6341  -0.6318  -0.6213  -0.6040  -0.5925
    -0.5592  -0.5476  -0.5385  -0.5254  -0.4858  -0.3978  -0.3910  -0.3512
    -0.3260  -0.3027  -0.2175  -0.2080  -0.1233  -0.0263   0.0972   0.2360
     0.2493   0.3228   0.3524   0.4051   0.4592   0.4789   0.5894   0.6139
     0.6418   0.6691   0.6991   0.7062   0.8103   0.9163   0.9531   1.0203
     1.0646   1.0756   1.0996   1.1120   1.1334   1.1630   1.1873   1.2291
     1.2366   1.2519   1.3059   1.3556   1.3779   1.3890   1.4375   1.4784
     1.4812   1.4898   1.5174   1.5421   1.5564   1.5678   1.5716   1.6169
     1.6308   1.6674   1.6771   1.7420   1.7460   1.7677   1.8045   1.8196
     1.8347   1.8457   1.8739   1.8898   1.9080   1.9162   1.9347   1.9592
     1.9759   1.9789   2.0141   2.0294   2.0511   2.0957   2.0965   2.1306
     2.1718   2.2122   2.3685   2.4065   2.4073   2.4922   2.4932   2.5764
     2.9499   2.9524   3.0155   3.0214   3.1384   3.1838   3.3704   3.4331
     3.9758   4.0131   4.0904   4.1366   4.1609   4.2122   6.0598   6.6202
     6.6240   6.8764   6.9921   7.0803   7.1846   7.1893   7.7328   7.7634
     7.9479   8.1328   8.2355   8.4712   8.4840   8.6948   8.7261   8.7744
     8.8157   8.8704   8.9534   8.9725   8.9947   9.2465   9.3660   9.4332
     9.4501   9.4913   9.5205   9.5387   9.6289   9.6663   9.7224   9.7551
     9.8213   9.9041

          k = 0.3750-1.0472 0.0000 ( 69214 PWs)   bands (ev):

   -37.9781 -37.8536 -35.6116 -35.4624 -22.8166 -22.6355 -22.5961 -22.5866
   -22.5526 -22.5442 -22.3372 -22.2456 -18.6401 -18.5216 -18.3005 -18.1844
   -18.1774 -18.0308 -17.0441 -16.9011 -16.8588 -16.7614 -16.7203 -16.5897
   -14.7400 -14.7066 -14.5951 -14.5639 -14.4753 -14.4539 -14.3836 -14.3820
   -14.3738 -14.3220 -14.2841 -14.2414 -14.1935 -14.1654 -14.1615 -14.1577
   -14.0775 -13.9861 -13.9796 -13.9586 -13.8673 -13.8500 -13.8484 -13.8429
   -13.8412 -13.8025 -13.7976 -13.7139 -13.6431 -13.5722  -8.5787  -8.5108
    -8.5020  -8.2713  -8.2444  -8.2105  -8.2079  -8.1997  -8.1828  -8.1800
    -8.1742  -7.9669  -7.9620  -7.9558  -7.9421  -7.9322  -7.8967  -7.8873
    -7.8380  -7.8296  -7.7938  -7.7685  -7.5978  -7.4722  -3.8489  -3.7884
    -3.4670  -3.4329  -3.4300  -3.2831  -3.2488  -3.1779  -3.1361  -2.9983
    -2.9854  -2.9727  -2.9593  -2.9584  -2.3926  -2.3833  -2.2129  -2.1675
[...]
    -1.3343  -1.3300  -1.3255  -1.3244  -1.3188  -1.2641  -1.0820  -1.0363
    -0.9752  -0.9574  -0.9224  -0.8751  -0.8438  -0.8338  -0.8185  -0.8091
    -0.7718  -0.7389  -0.6930  -0.6873  -0.6652  -0.6401  -0.6240  -0.6028
    -0.5141  -0.4894  -0.4605  -0.3995  -0.3588  -0.3585  -0.3405  -0.3039
    -0.2428  -0.1673  -0.1397  -0.1054  -0.1034  -0.0842  -0.0150   0.0051
     0.0135   0.0143   0.0511   0.0651   0.0926   0.1285   0.1499   0.1968
     0.2071   0.2127   0.2240   0.2569   0.2866   0.3304   0.4212   0.4389
     0.4583   0.4635   0.4745   0.4795   0.5122   0.5324   0.5377   0.5420
     0.5778   0.5900   0.6046   0.6077   0.6385   0.7465   0.7683   0.8034
     0.8123   0.9018   0.9526   1.0215   1.0388   1.0479   1.0635   1.0849
     1.1109   1.1263   1.1546   1.1563   1.2072   1.2280   1.2289   1.2800
     1.3187   1.3448   1.3499   1.3696   1.3704   1.4041   1.4845   1.5173
     1.5210   1.5558   1.5817   1.5879   1.6365   1.6430   1.6485   1.6511
     1.6579   1.6918   1.7025   1.7443   1.7447   1.8441   1.8556   1.8558
     1.8643   1.8900   1.9087   2.0221   2.1550   2.2240   2.3159   2.3599
     2.6777   2.6942   2.7932   2.8160   2.9130   2.9835   2.9883   2.9989
     3.0197   3.0212   3.0432   3.1303   3.1395   3.1628   6.1364   6.2029
     6.2033   6.2203   6.2213   6.6358   6.7822   6.9150   7.2189   7.2944
     7.7116   7.7561   7.7894   7.8271   7.8381   7.8518   7.9894   8.0667
     8.2406   8.2743   8.3323   8.4755   8.5853   8.6483   8.6842   8.7737
     8.7828   8.8434   8.9646   8.9829   9.0284   9.0499   9.1709   9.2329
     9.3025   9.3110

          k =-0.5000 0.5236 0.0000 ( 69170 PWs)   bands (ev):

   -37.9873 -37.8629 -35.6174 -35.4682 -22.8848 -22.7043 -22.6678 -22.6581
   -22.6385 -22.6303 -22.4134 -22.3219 -18.3504 -18.3296 -18.3213 -18.2315
   -18.2053 -18.1841 -16.8900 -16.8852 -16.8616 -16.7518 -16.7228 -16.7109
   -14.8055 -14.7496 -14.7308 -14.7101 -14.5702 -14.5544 -14.5413 -14.5023
   -14.4807 -14.4426 -14.4312 -14.4169 -14.2494 -14.2439 -14.1902 -14.1297
   -14.1163 -14.0623 -14.0447 -13.9447 -13.9252 -13.9239 -13.9110 -13.9107
   -13.8335 -13.7081 -13.6793 -13.6460 -13.5708 -13.5350  -8.2699  -8.2555
    -8.2444  -8.2393  -8.2357  -8.2153  -8.2069  -8.0079  -7.9884  -7.9778
    -7.9212  -7.9122  -7.9071  -7.8932  -7.7926  -7.7422  -7.6456  -7.6371
    -7.6345  -7.6327  -7.6260  -7.6134  -7.3841  -7.2961  -3.0414  -2.9784
    -2.9645  -2.9234  -2.6863  -2.6724  -2.5035  -2.5009  -2.4590  -2.4327
    -2.2880  -2.2798  -2.2477  -2.2372  -2.1379  -2.1273  -2.1120  -2.1107
    -2.1075  -2.0914  -1.9904  -1.9878  -1.9692  -1.9659  -1.9653  -1.9105
    -1.8418  -1.8083  -1.4721  -1.4199  -1.4116  -1.3872  -1.3690  -1.3682
    -1.3316  -1.3269  -1.2988  -1.2645  -1.2097  -1.1521  -1.1245  -1.0645
    -0.9253  -0.8940  -0.8788  -0.8283  -0.7567  -0.6966  -0.6451  -0.6235
    -0.6160  -0.5912  -0.5821  -0.5750  -0.4730  -0.4551  -0.4447  -0.3852
    -0.3720  -0.3702  -0.3673  -0.3601  -0.3550  -0.3250  -0.2352  -0.2154
    -0.1745  -0.1336  -0.1262  -0.1253  -0.1187  -0.0910   0.0835   0.1478
     0.2128   0.2382   0.2890   0.2961   0.4452   0.5098   0.5268   0.5435
     0.5592   0.5621   0.6438   0.6718   0.6719   0.7092   0.7322   0.8320
     0.9099   0.9263   0.9487   0.9868   0.9913   1.0282   1.0610   1.0677
     1.0847   1.0881   1.1156   1.1332   1.1408   1.1515   1.1547   1.1562
     1.2464   1.2558   1.3484   1.3784   1.4170   1.4594   1.4800   1.4817
     1.5285   1.5406   1.5549   1.5715   1.5921   1.6028   1.6161   1.6355
     1.6593   1.6663   1.6789   1.6850   1.7051   1.7117   1.7287   1.7594
     1.8226   1.8260   1.8335   1.8454   1.8630   1.8732   1.9347   1.9384
     2.0298   2.0363   2.0397   2.0405   2.2011   2.2771   2.3702   2.5059
     3.1306   3.1333   3.1601   3.1643   3.3115   3.3334   3.3642   3.3920
     3.4694   3.5517   3.5636   3.6473   3.7732   3.8022   6.2193   6.7195
     6.7238   6.7472   6.7497   6.9173   7.2727   7.3143   7.3583   7.3639
     7.8647   7.9443   8.1292   8.2748   8.3391   8.3409   8.3763   8.3975
     8.4042   8.4045   8.5312   8.6170   8.8278   8.9136   8.9513   8.9858
     9.0279   9.0679   9.1237   9.1273   9.2503   9.2688   9.2706   9.3563
     9.4083   9.4151

          k =-0.5000 0.7854 0.0000 ( 69170 PWs)   bands (ev):

   -37.9808 -37.8563 -35.6133 -35.4641 -22.8361 -22.6567 -22.6125 -22.6028
   -22.5830 -22.5749 -22.3579 -22.2703 -18.5595 -18.4411 -18.3044 -18.2239
   -18.1884 -18.0775 -16.9934 -16.8740 -16.8507 -16.8001 -16.7356 -16.6286
   -14.6788 -14.6540 -14.6533 -14.6404 -14.4991 -14.4308 -14.4024 -14.3866
   -14.3598 -14.3510 -14.3489 -14.3223 -14.3021 -14.2220 -14.2056 -14.1359
   -14.0727 -14.0652 -13.9952 -13.9934 -13.8760 -13.8697 -13.8672 -13.8640
   -13.7989 -13.7734 -13.7454 -13.6965 -13.6066 -13.6009  -8.4128  -8.3998
    -8.3710  -8.3621  -8.3325  -8.3242  -8.1968  -8.0904  -8.0191  -8.0053
    -7.9681  -7.9576  -7.9536  -7.9446  -7.9045  -7.8745  -7.8739  -7.8659
    -7.8658  -7.8639  -7.7615  -7.6435  -7.5908  -7.4754  -3.5540  -3.4960
    -3.3741  -3.3321  -3.1500  -3.1047  -2.9984  -2.9944  -2.9647  -2.8664
    -2.7402  -2.7395  -2.7395  -2.7386  -2.3082  -2.2998  -2.2277  -2.2167
    -2.1106  -2.0917  -2.0081  -2.0066  -1.9826  -1.9785  -1.9320  -1.9043
    -1.8562  -1.8392  -1.8048  -1.7713  -1.7210  -1.6805  -1.6168  -1.5957
    -1.4816  -1.4670  -1.4381  -1.3970  -1.3795  -1.3229  -1.2725  -1.2426
    -1.0527  -1.0277  -1.0258  -0.9911  -0.8916  -0.8897  -0.7638  -0.7211
    -0.7056  -0.6755  -0.6634  -0.6488  -0.6323  -0.6281  -0.6046  -0.5830
    -0.5643  -0.5455  -0.5348  -0.5279  -0.4357  -0.3719  -0.3590  -0.3438
    -0.3201  -0.3125  -0.2470  -0.2052  -0.1983  -0.1467   0.1577   0.1791
     0.2960   0.3011   0.3632   0.3652   0.5369   0.5586   0.5791   0.6074
     0.6651   0.7303   0.7639   0.7788   0.8282   0.8391   0.9848   1.0124
     1.0794   1.0918   1.1213   1.1241   1.1391   1.1529   1.1579   1.1758
     1.1949   1.2550   1.3734   1.3765   1.3944   1.4197   1.4555   1.4667
     1.4772   1.4999   1.5152   1.5168   1.5366   1.5799   1.5948   1.6155
     1.6350   1.6417   1.6846   1.7093   1.7414   1.7563   1.7667   1.8000
     1.8042   1.8262   1.8606   1.8823   1.9066   1.9105   1.9160   1.9323
     1.9632   1.9760   2.0206   2.0219   2.0431   2.0719   2.1069   2.1264
     2.1623   2.2133   2.3414   2.4445   2.4456   2.4550   2.4558   2.5750
     2.9967   2.9996   3.0209   3.0261   3.5555   3.5888   3.6011   3.6395
     3.7466   3.7623   3.8364   3.8417   4.1181   4.1630   6.1723   6.7612
     6.8682   6.8738   6.9000   6.9150   7.1028   7.1632   7.6500   7.6776
     7.9886   8.0979   8.2228   8.4680   8.4918   8.7601   8.7672   8.7921
     8.8099   8.8348   8.8804   8.9270   8.9284   9.2655   9.3471   9.5298
     9.5664   9.5906   9.6409   9.6437   9.7032   9.7386   9.7474   9.8195
     9.8711   9.8781

          k =-0.5000-1.0472 0.0000 ( 69164 PWs)   bands (ev):

   -37.9781 -37.8536 -35.6116 -35.4624 -22.8156 -22.6367 -22.5891 -22.5795
   -22.5596 -22.5515 -22.3344 -22.2485 -18.6401 -18.5216 -18.2974 -18.1814
   -18.1769 -18.0303 -17.0441 -16.9011 -16.8677 -16.7634 -16.7292 -16.5917
   -14.6999 -14.6534 -14.6370 -14.6236 -14.4744 -14.3995 -14.3790 -14.3543
   -14.3417 -14.3178 -14.2846 -14.2432 -14.2063 -14.1908 -14.1875 -14.1561
   -14.0553 -14.0058 -13.9948 -13.9884 -13.8470 -13.8462 -13.8453 -13.8445
   -13.8353 -13.8290 -13.7886 -13.7198 -13.6132 -13.6124  -8.4278  -8.4234
    -8.3744  -8.3651  -8.3238  -8.3157  -8.1785  -8.1540  -8.0991  -8.0493
    -8.0405  -8.0259  -8.0180  -8.0020  -7.9731  -7.9469  -7.9442  -7.9380
    -7.9351  -7.9316  -7.7922  -7.7370  -7.5964  -7.5709  -3.7555  -3.6999
    -3.5353  -3.4950  -3.3461  -3.2993  -3.1976  -3.1749  -3.1608  -3.0279
    -2.9725  -2.9723  -2.9717  -2.9713  -2.3141  -2.3068  -2.2036  -2.1926
    -2.1012  -2.0567  -2.0559  -1.9900  -1.9835  -1.9684  -1.9645  -1.9430
    -1.8735  -1.8712  -1.8481  -1.8472  -1.7947  -1.7744  -1.7717  -1.7210
    -1.6275  -1.5733  -1.4695  -1.4441  -1.4046  -1.3665  -1.3054  -1.2721
    -1.1032  -1.0829  -1.0809  -1.0589  -1.0003  -0.9895  -0.7468  -0.7448
    -0.7402  -0.7213  -0.7122  -0.7077  -0.6875  -0.6759  -0.6594  -0.6480
    -0.6326  -0.6156  -0.6028  -0.5946  -0.4696  -0.3865  -0.3649  -0.3539
    -0.3376  -0.2957  -0.2695  -0.2261  -0.2246  -0.1604   0.1774   0.1859
     0.3201   0.3397   0.3957   0.3974   0.5637   0.5819   0.5883   0.6254
     0.6420   0.7443   0.7802   0.8641   0.8841   0.9073   1.0948   1.1235
     1.1454   1.1679   1.1908   1.2106   1.2372   1.2590   1.2879   1.2908
     1.2945   1.3277   1.3606   1.3814   1.3968   1.4189   1.4327   1.4639
     1.4700   1.4814   1.5320   1.5375   1.5605   1.5684   1.5924   1.6176
     1.6706   1.6740   1.7381   1.7583   1.7672   1.8246   1.8723   1.8938
     1.9198   1.9389   1.9678   1.9870   2.0114   2.0122   2.0810   2.1084
     2.1099   2.1338   2.1495   2.1711   2.2459   2.2650   2.2698   2.2770
     2.2772   2.2832   2.3121   2.5827   2.6237   2.6250   2.6330   2.6340
     2.7935   2.7981   2.8073   2.8146   3.5698   3.6037   3.6556   3.7017
     3.7550   3.8366   3.8458   3.9086   4.1742   4.2775   6.1103   6.6620
     6.8089   6.8122   6.8325   6.8618   7.0160   7.0872   7.5942   7.7025
     8.0079   8.3023   8.3170   8.4130   8.4449   8.7926   9.0288   9.1896
     9.2008   9.2847   9.3239   9.3480   9.3819   9.4805   9.4863   9.4962
     9.5482   9.5723   9.8027   9.8069   9.8929   9.9099   9.9152   9.9359
     9.9594   9.9868

     the Fermi energy is     2.8052 ev

!    total energy              =   -3711.74537199 Ry
     Harris-Foulkes estimate   =   -3711.74537198 Ry
     estimated scf accuracy    <          8.3E-09 Ry

     The total energy is the sum of the following terms:

     one-electron contribution =  -62957.00892537 Ry
     hartree contribution      =   31786.28958693 Ry
     xc contribution           =   -1263.96346217 Ry
     ewald contribution        =   28722.94991731 Ry
     smearing contrib. (-TS)   =      -0.01248868 Ry

     convergence has been achieved in  35 iterations

     negative rho (up, down):  9.224E-02 0.000E+00

     Forces acting on atoms (cartesian axes, Ry/au):

     atom    1 type  4   force =    -0.00000995    0.00000000   -0.00009347
     atom    2 type  4   force =     0.00000995    0.00000000   -0.00009347
     atom    3 type  3   force =    -0.00001938    0.00000000   -0.00013434
     atom    4 type  3   force =     0.00001938    0.00000000   -0.00013434
     atom    5 type  4   force =    -0.00000274    0.00000000   -0.00005465
     atom    6 type  4   force =     0.00000274    0.00000000   -0.00005465
     atom    7 type  1   force =     0.00000000    0.00000000   -0.00006887
     atom    8 type  1   force =     0.00000000    0.00000000   -0.00006475
     atom    9 type  3   force =     0.00004098    0.00000000    0.00004171
     atom   10 type  3   force =    -0.00004098    0.00000000    0.00004171
     atom   11 type  4   force =     0.00000000    0.00000000    0.00001401
     atom   12 type  4   force =    -0.00001065    0.00000000   -0.00007132
     atom   13 type  4   force =     0.00001065    0.00000000   -0.00007132
     atom   14 type  4   force =     0.00000000    0.00000000    0.00000557
     atom   15 type  2   force =     0.00000000    0.00000000   -0.00016671
     atom   16 type  5   force =     0.00000000    0.00000000   -0.00023072
     atom   17 type  4   force =     0.00002171    0.00000000    0.00013998
     atom   18 type  4   force =    -0.00002171    0.00000000    0.00013998
     atom   19 type  4   force =     0.00000000    0.00000000    0.00020805
     atom   20 type  4   force =     0.00000000    0.00000000    0.00030564
     atom   21 type  3   force =    -0.00007530    0.00000000   -0.00024515
     atom   22 type  3   force =     0.00007530    0.00000000   -0.00024515
     atom   23 type  1   force =     0.00000000    0.00000000   -0.00122173
     atom   24 type  1   force =     0.00000000    0.00000000   -0.00149923
     atom   25 type  4   force =    -0.00025510    0.00000000    0.00211590
     atom   26 type  4   force =     0.00025510    0.00000000    0.00211590
     atom   27 type  4   force =     0.00077968    0.00000000    0.00482384
     atom   28 type  4   force =    -0.00077968    0.00000000    0.00482384
     atom   29 type  3   force =     0.00017726    0.00000000   -0.00149629
     atom   30 type  3   force =    -0.00017726    0.00000000   -0.00149629
     atom   31 type  4   force =    -0.00370073    0.00000000    0.00407717
     atom   32 type  4   force =     0.00370073    0.00000000    0.00407717
     atom   33 type  1   force =     0.00000000    0.00000000    0.01240768
     atom   34 type  1   force =     0.00000000    0.00000000    0.02417591
     atom   35 type  3   force =    -0.00351577    0.00000000    0.00128054
     atom   36 type  3   force =     0.00351577    0.00000000    0.00128054
     atom   37 type  4   force =     0.00000000    0.00000000   -0.01199608
     atom   38 type  4   force =     0.00000000    0.00000000   -0.00328996
     atom   39 type  4   force =     0.00099039    0.00000000   -0.00519715
     atom   40 type  4   force =    -0.00099039    0.00000000   -0.00519715
     atom   41 type  5   force =     0.00000000    0.00000000   -0.02014168
     atom   42 type  2   force =     0.00000000    0.00000000   -0.01675622
     atom   43 type  4   force =     0.00000000    0.00000000    0.00221303
     atom   44 type  4   force =     0.00011880    0.00000000    0.00130823
     atom   45 type  4   force =    -0.00011880    0.00000000    0.00130823
     atom   46 type  4   force =     0.00000000    0.00000000    0.00189744
     atom   47 type  3   force =     0.00034072    0.00000000    0.00054980
     atom   48 type  3   force =    -0.00034072    0.00000000    0.00054980
     atom   49 type  1   force =     0.00000000    0.00000000   -0.00041882
     atom   50 type  1   force =     0.00000000    0.00000000   -0.00045800
     atom   51 type  4   force =     0.00003180    0.00000000    0.00044129
     atom   52 type  4   force =    -0.00003180    0.00000000    0.00044129
     atom   53 type  3   force =    -0.00003034    0.00000000   -0.00020634
     atom   54 type  3   force =     0.00003034    0.00000000   -0.00020634
     atom   55 type  4   force =     0.00000061    0.00000000    0.00026299
     atom   56 type  4   force =    -0.00000061    0.00000000    0.00026299

     Total force =     0.042469     Total SCF correction =     0.000410


     Computing stress (Cartesian axis) and pressure


     negative rho (up, down):  9.224E-02 0.000E+00
          total   stress  (Ry/bohr**3)                   (kbar)     P=       -5.12
  -0.00003716   0.00000000   0.00000000           -5.47        0.00        0.00
   0.00000000  -0.00002724   0.00000000            0.00       -4.01        0.00
   0.00000000   0.00000000  -0.00003997            0.00        0.00       -5.88

 
     init_run     :     24.24s CPU     25.49s WALL (       1 calls)
     electrons    :   1755.60s CPU   1835.86s WALL (       1 calls)
     forces       :     10.27s CPU     10.92s WALL (       1 calls)
     stress       :     99.70s CPU    101.56s WALL (       1 calls)

     Called by init_run:
     wfcinit      :     19.97s CPU     20.45s WALL (       1 calls)
     potinit      :      0.98s CPU      1.00s WALL (       1 calls)
     hinit0       :      1.51s CPU      1.70s WALL (       1 calls)

     Called by electrons:
     c_bands      :   1479.80s CPU   1519.92s WALL (      35 calls)
     sum_band     :    212.55s CPU    234.97s WALL (      35 calls)
     v_of_rho     :      3.56s CPU      3.64s WALL (      36 calls)
     newd         :     31.97s CPU     49.70s WALL (      36 calls)
     mix_rho      :     28.38s CPU     28.74s WALL (      35 calls)

     Called by c_bands:
     init_us_2    :      8.20s CPU      8.30s WALL (    1825 calls)
     cegterg      :   1415.03s CPU   1453.92s WALL (     875 calls)

     Called by sum_band:
     sum_band:bec :      0.94s CPU      0.94s WALL (     875 calls)
     addusdens    :     31.41s CPU     51.23s WALL (      35 calls)

     Called by *egterg:
     h_psi        :    667.12s CPU    682.16s WALL (    4553 calls)
     s_psi        :     96.94s CPU     97.68s WALL (    4553 calls)
     g_psi        :      1.44s CPU      1.46s WALL (    3653 calls)
     cdiaghg      :    355.99s CPU    357.96s WALL (    4528 calls)

     Called by h_psi:
     h_psi:calbec :    108.00s CPU    108.65s WALL (    4553 calls)
     vloc_psi     :    458.54s CPU    466.11s WALL (    4553 calls)
     add_vuspsi   :     97.87s CPU     98.49s WALL (    4553 calls)

     General routines
     calbec       :    186.49s CPU    187.53s WALL (    5553 calls)
     fft          :      2.93s CPU      3.07s WALL (     491 calls)
     ffts         :     16.21s CPU     16.43s WALL (   18189 calls)
     fftw         :    526.61s CPU    535.16s WALL ( 1251964 calls)
     interpolate  :      0.25s CPU      0.25s WALL (      36 calls)
 
     Parallel routines
     fft_scatt_xy :     59.83s CPU     60.83s WALL ( 1270644 calls)
     fft_scatt_yz :    343.64s CPU    349.20s WALL ( 1270644 calls)
 
     PWSCF        :  31m30.86s CPU  32m55.26s WALL

 
   This run was terminated on:  14:56:46  25May2021            

=------------------------------------------------------------------------------=
   JOB DONE.
=------------------------------------------------------------------------------=
[1621969006.489890] [holy7c04104:48714:0]          mpool.c:43   UCX  WARN  object 0x3de6400 was not returned to mpool ucp_requests
[1621969006.489911] [holy7c04104:48714:0]          mpool.c:43   UCX  WARN  object 0x3de6940 was not returned to mpool ucp_requests
[1621969006.492522] [holy7c04103:121638:0]          mpool.c:43   UCX  WARN  object 0x3d7bc40 was not returned to mpool ucp_requests
[1621969006.499257] [holy7c04106:6951 :0]          mpool.c:43   UCX  WARN  object 0x37531c0 was not returned to mpool ucp_requests
[1621969006.499279] [holy7c04106:6951 :0]          mpool.c:43   UCX  WARN  object 0x3753540 was not returned to mpool ucp_requests
[1621969006.496812] [holy7c02602:164603:0]          mpool.c:43   UCX  WARN  object 0x3ca7340 was not returned to mpool ucp_requests
[1621969006.504091] [holy7c04105:55201:0]          mpool.c:43   UCX  WARN  object 0x339b840 was not returned to mpool ucp_requests
[1621969006.504111] [holy7c04105:55201:0]          mpool.c:43   UCX  WARN  object 0x339bd80 was not returned to mpool ucp_requests
[1621969006.505806] [holy7c04105:55203:0]          mpool.c:43   UCX  WARN  object 0x3130300 was not returned to mpool ucp_requests
[1621969006.505825] [holy7c04105:55203:0]          mpool.c:43   UCX  WARN  object 0x31304c0 was not returned to mpool ucp_requests
[1621969006.503320] [holy7c04108:195112:0]          mpool.c:43   UCX  WARN  object 0x2a60f80 was not returned to mpool ucp_requests
[1621969006.496881] [holy7c04105:55207:0]          mpool.c:43   UCX  WARN  object 0x45ec1c0 was not returned to mpool ucp_requests
[1621969006.497731] [holy7c04105:55206:0]          mpool.c:43   UCX  WARN  object 0x318dd00 was not returned to mpool ucp_requests
[1621969006.500280] [holy7c04105:55202:0]          mpool.c:43   UCX  WARN  object 0x439d500 was not returned to mpool ucp_requests
[1621969006.497395] [holy7c04106:6954 :0]          mpool.c:43   UCX  WARN  object 0x3e90d40 was not returned to mpool ucp_requests
[1621969006.499006] [holy7c04106:6953 :0]          mpool.c:43   UCX  WARN  object 0x476b200 was not returned to mpool ucp_requests
[1621969006.502594] [holy7c04108:195111:0]          mpool.c:43   UCX  WARN  object 0x450fd80 was not returned to mpool ucp_requests
[1621969006.502106] [holy7c04108:195109:0]          mpool.c:43   UCX  WARN  object 0x38e5e40 was not returned to mpool ucp_requests
[1621969006.502130] [holy7c04108:195109:0]          mpool.c:43   UCX  WARN  object 0x38e6000 was not returned to mpool ucp_requests
