
     Program PWSCF v.6.5 starts on 25May2021 at 14:24:43 

     This program is part of the open-source Quantum ESPRESSO suite
     for quantum simulation of materials; please cite
         "P. Giannozzi et al., J. Phys.:Condens. Matter 21 395502 (2009);
         "P. Giannozzi et al., J. Phys.:Condens. Matter 29 465901 (2017);
          URL http://www.quantum-espresso.org", 
     in publications or presentations arising from this work. More details at
     http://www.quantum-espresso.org/quote

     Parallel version (MPI), running on    32 processors

     MPI processes distributed on     4 nodes
     R & G space division:  proc/nbgrp/npool/nimage =      32
     Reading input from YCBCO50_212_BaO_cleave_0.75_sep.pwi
Warning: card &IONS ignored
Warning: card     ION_DYNAMICS = 'BFGS' ignored
Warning: card / ignored
Warning: card &CELL ignored
Warning: card     CELL_DYNAMICS = 'BFGS' ignored
Warning: card     PRESS_CONV_THR = 5 ignored
Warning: card / ignored

     Current dimensions of program PWSCF are:
     Max number of different atomic species (ntypx) = 10
     Max number of k-points (npk) =  40000
     Max angular momentum in pseudopotentials (lmaxx) =  3

     Subspace diagonalization in iterative solution of the eigenvalue problem:
     one sub-group per band group will be used
     scalapack distributed-memory algorithm (size of sub-group:  5*  5 procs)

     Message from routine setup:
     using ibrav=0 with symmetry is DISCOURAGED, use correct ibrav instead
 
     Parallelization info
     --------------------
     sticks:   dense  smooth     PW     G-vecs:    dense   smooth      PW
     Min         188      62     17                90372    17384    2591
     Max         189      63     18                90400    17429    2632
     Sum        6019    2003    565              2892413   557031   83745
 


     bravais-lattice index     =            0
     lattice parameter (alat)  =      14.8133  a.u.
     unit-cell volume          =    8865.7494 (a.u.)^3
     number of atoms/cell      =           56
     number of atomic types    =            5
     number of electrons       =       456.00
     number of Kohn-Sham states=          274
     kinetic-energy cutoff     =      60.0000  Ry
     charge density cutoff     =     720.0000  Ry
     convergence threshold     =      1.0E-08
     mixing beta               =       0.5000
     number of iterations used =           10  local-TF  mixing
     Exchange-correlation= SLA PW PBE PBE
                           (   1   4   3   4   0   0   0)

     celldm(1)=  14.813271  celldm(2)=   0.000000  celldm(3)=   0.000000
     celldm(4)=   0.000000  celldm(5)=   0.000000  celldm(6)=   0.000000

     crystal axes: (cart. coord. in units of alat)
               a(1) = (   1.000000   0.000000   0.000000 )  
               a(2) = (   0.000000   0.477453   0.000000 )  
               a(3) = (   0.000000   0.000000   5.712578 )  

     reciprocal axes: (cart. coord. in units 2 pi/alat)
               b(1) = (  1.000000  0.000000  0.000000 )  
               b(2) = (  0.000000  2.094448  0.000000 )  
               b(3) = (  0.000000  0.000000  0.175052 )  


     PseudoPot. # 1 for Ba read from file:
     ./pseudo/Ba.pbe-nsp-van.UPF
     MD5 check sum: 2b9c31dd849566dd297d80989662b7a0
     Pseudo is Ultrasoft + core correction, Zval = 10.0
     Generated by new atomic code, or converted to UPF format
     Using radial grid of  907 points,  6 beta functions with: 
                l(1) =   0
                l(2) =   0
                l(3) =   1
                l(4) =   1
                l(5) =   2
                l(6) =   2
     Q(r) pseudized with  6 coefficients,  rinner =    1.200   1.200   1.200
                                                       1.200   1.200

     PseudoPot. # 2 for Ca read from file:
     ./pseudo/Ca.pbe-nsp-van.UPF
     MD5 check sum: 6471098428ff4fa451746d08035ff179
     Pseudo is Ultrasoft + core correction, Zval = 10.0
     Generated by new atomic code, or converted to UPF format
     Using radial grid of  845 points,  6 beta functions with: 
                l(1) =   0
                l(2) =   0
                l(3) =   1
                l(4) =   1
                l(5) =   2
                l(6) =   2
     Q(r) pseudized with  6 coefficients,  rinner =    1.200   1.200   1.200
                                                       1.200   1.200

     PseudoPot. # 3 for Cu read from file:
     ./pseudo/Cu.pbe-n-van_ak.UPF
     MD5 check sum: 34e3282627ffb533726feb647e090d62
     Pseudo is Ultrasoft + core correction, Zval = 11.0
     Generated by new atomic code, or converted to UPF format
     Using radial grid of  867 points,  6 beta functions with: 
                l(1) =   0
                l(2) =   0
                l(3) =   1
                l(4) =   1
                l(5) =   2
                l(6) =   2
     Q(r) pseudized with  8 coefficients,  rinner =    1.400   1.400   1.400
                                                       1.400   1.400

     PseudoPot. # 4 for O  read from file:
     ./pseudo/O.pbe-van_ak.UPF
     MD5 check sum: 783ce7fe4c79b6a4916957118fed0856
     Pseudo is Ultrasoft, Zval =  6.0
     Generated by new atomic code, or converted to UPF format
     Using radial grid of  737 points,  4 beta functions with: 
                l(1) =   0
                l(2) =   0
                l(3) =   1
                l(4) =   1
     Q(r) pseudized with  8 coefficients,  rinner =    0.800   0.800   0.800


     PseudoPot. # 5 for Y  read from file:
     ./pseudo/Y.pbe-nsp-van.UPF
     MD5 check sum: 4412fed3ab108fed87a1b7d6a69a4a38
     Pseudo is Ultrasoft + core correction, Zval = 11.0
     Generated by new atomic code, or converted to UPF format
     Using radial grid of  885 points,  6 beta functions with: 
                l(1) =   0
                l(2) =   0
                l(3) =   1
                l(4) =   1
                l(5) =   2
                l(6) =   2
     Q(r) pseudized with  6 coefficients,  rinner =    1.200   1.200   1.200
                                                       1.200   1.200

     atomic species   valence    mass     pseudopotential
        Ba            10.00   137.32700     Ba( 1.00)
        Ca            10.00    40.07800     Ca( 1.00)
        Cu            11.00    63.54600     Cu( 1.00)
        O              6.00    15.99900     O ( 1.00)
        Y             11.00    88.90584     Y ( 1.00)

      4 Sym. Ops. (no inversion) found ( 2 have fractional translation)



   Cartesian axes

     site n.     atom                  positions (alat units)
         1           O   tau(   1) = (  -0.0008343   0.2387265  -0.0222443  )
         2           O   tau(   2) = (   0.5008340   0.2387265  -0.0222443  )
         3           Cu  tau(   3) = (   0.5017257   0.0000000   0.0109608  )
         4           Cu  tau(   4) = (  -0.0017260   0.0000000   0.0109608  )
         5           O   tau(   5) = (  -0.0028933   0.0000000   0.2506504  )
         6           O   tau(   6) = (   0.5028929   0.0000000   0.2506504  )
         7           Ba  tau(   7) = (   0.7499995   0.2387265   0.2749435  )
         8           Ba  tau(   8) = (   0.2499998   0.2387265   0.2755214  )
         9           Cu  tau(   9) = (   0.4980963   0.0000000   0.5208446  )
        10           Cu  tau(  10) = (   0.0019033   0.0000000   0.5208446  )
        11           O   tau(  11) = (   0.2499998   0.0000000   0.5341884  )
        12           O   tau(  12) = (   0.5083351   0.2387265   0.5569851  )
        13           O   tau(  13) = (  -0.0083354   0.2387265   0.5569851  )
        14           O   tau(  14) = (   0.7499995   0.0000000   0.5573831  )
        15           Ca  tau(  15) = (   0.2499998   0.2387265   0.7436937  )
        16           Y   tau(  16) = (   0.7499995   0.2387265   0.7469544  )
        17           O   tau(  17) = (  -0.0063798   0.2387265   0.9248530  )
        18           O   tau(  18) = (   0.5063794   0.2387265   0.9248530  )
        19           O   tau(  19) = (   0.7499995   0.0000000   0.9338544  )
        20           O   tau(  20) = (   0.2499998   0.0000000   0.9461329  )
        21           Cu  tau(  21) = (   0.0015717   0.0000000   0.9686860  )
        22           Cu  tau(  22) = (   0.4984280   0.0000000   0.9686860  )
        23           Ba  tau(  23) = (   0.2499998   0.2387265   1.2085224  )
        24           Ba  tau(  24) = (   0.7499995   0.2387265   1.2233294  )
        25           O   tau(  25) = (   0.0063772   0.0000000   1.2547537  )
        26           O   tau(  26) = (   0.4936224   0.0000000   1.2547537  )
        27           O   tau(  27) = (   0.5384045   0.2387265   1.4952521  )
        28           O   tau(  28) = (  -0.0384049   0.2387265   1.4952521  )
        29           Cu  tau(  29) = (   0.5006120   0.0000000   1.4952546  )
        30           Cu  tau(  30) = (  -0.0006123   0.0000000   1.4952546  )
        31           O   tau(  31) = (   0.4936212   0.0000000   1.7357531  )
        32           O   tau(  32) = (   0.0063785   0.0000000   1.7357531  )
        33           Ba  tau(  33) = (   0.7499995   0.2387265   1.7671824  )
        34           Ba  tau(  34) = (   0.2499998   0.2387265   1.7819920  )
        35           Cu  tau(  35) = (   0.4984280   0.0000000   2.1175006  )
        36           Cu  tau(  36) = (   0.0015717   0.0000000   2.1175006  )
        37           O   tau(  37) = (   0.2499998   0.0000000   2.1400588  )
        38           O   tau(  38) = (   0.7499995   0.0000000   2.1523284  )
        39           O   tau(  39) = (   0.5063781   0.2387265   2.1613336  )
        40           O   tau(  40) = (  -0.0063785   0.2387265   2.1613336  )
        41           Y   tau(  41) = (   0.7499995   0.2387265   2.3392271  )
        42           Ca  tau(  42) = (   0.2499998   0.2387265   2.3424967  )
        43           O   tau(  43) = (   0.7499995   0.0000000   2.5287946  )
        44           O   tau(  44) = (  -0.0083354   0.2387265   2.5291964  )
        45           O   tau(  45) = (   0.5083351   0.2387265   2.5291964  )
        46           O   tau(  46) = (   0.2499998   0.0000000   2.5519944  )
        47           Cu  tau(  47) = (   0.0019059   0.0000000   2.5653280  )
        48           Cu  tau(  48) = (   0.4980938   0.0000000   2.5653280  )
        49           Ba  tau(  49) = (   0.2499998   0.2387265   2.8106677  )
        50           Ba  tau(  50) = (   0.7499995   0.2387265   2.8112099  )
        51           O   tau(  51) = (  -0.0028895   0.0000000   2.8355170  )
        52           O   tau(  52) = (   0.5028891   0.0000000   2.8355170  )
        53           Cu  tau(  53) = (   0.5017844   0.0000000   3.0752016  )
        54           Cu  tau(  54) = (  -0.0017847   0.0000000   3.0752016  )
        55           O   tau(  55) = (   0.5008990   0.2387265   3.1084080  )
        56           O   tau(  56) = (  -0.0008994   0.2387265   3.1084080  )

     number of k points=    25  Gaussian smearing, width (Ry)=  0.0100
                       cart. coord. in units 2pi/alat
        k(    1) = (   0.0000000   0.0000000   0.0000000), wk =   0.0312500
        k(    2) = (   0.0000000   0.2618060   0.0000000), wk =   0.0625000
        k(    3) = (   0.0000000   0.5236121   0.0000000), wk =   0.0625000
        k(    4) = (   0.0000000   0.7854181   0.0000000), wk =   0.0625000
        k(    5) = (   0.0000000  -1.0472241   0.0000000), wk =   0.0312500
        k(    6) = (   0.1250000   0.0000000   0.0000000), wk =   0.0625000
        k(    7) = (   0.1250000   0.2618060   0.0000000), wk =   0.1250000
        k(    8) = (   0.1250000   0.5236121   0.0000000), wk =   0.1250000
        k(    9) = (   0.1250000   0.7854181   0.0000000), wk =   0.1250000
        k(   10) = (   0.1250000  -1.0472241   0.0000000), wk =   0.0625000
        k(   11) = (   0.2500000   0.0000000   0.0000000), wk =   0.0625000
        k(   12) = (   0.2500000   0.2618060   0.0000000), wk =   0.1250000
        k(   13) = (   0.2500000   0.5236121   0.0000000), wk =   0.1250000
        k(   14) = (   0.2500000   0.7854181   0.0000000), wk =   0.1250000
        k(   15) = (   0.2500000  -1.0472241   0.0000000), wk =   0.0625000
        k(   16) = (   0.3750000   0.0000000   0.0000000), wk =   0.0625000
        k(   17) = (   0.3750000   0.2618060   0.0000000), wk =   0.1250000
        k(   18) = (   0.3750000   0.5236121   0.0000000), wk =   0.1250000
        k(   19) = (   0.3750000   0.7854181   0.0000000), wk =   0.1250000
        k(   20) = (   0.3750000  -1.0472241   0.0000000), wk =   0.0625000
        k(   21) = (  -0.5000000   0.0000000   0.0000000), wk =   0.0312500
        k(   22) = (  -0.5000000   0.2618060   0.0000000), wk =   0.0625000
        k(   23) = (  -0.5000000   0.5236121   0.0000000), wk =   0.0625000
        k(   24) = (  -0.5000000   0.7854181   0.0000000), wk =   0.0625000
        k(   25) = (  -0.5000000  -1.0472241   0.0000000), wk =   0.0312500

     Dense  grid:  2892413 G-vectors     FFT dimensions: ( 128,  64, 729)

     Smooth grid:   557031 G-vectors     FFT dimensions: (  80,  36, 432)

     Estimated max dynamical RAM per process >     837.98 MB

     Estimated total dynamical RAM >      26.19 GB

     Initial potential from superposition of free atoms

     starting charge  455.69457, renormalised to  456.00000

     negative rho (up, down):  9.331E-02 0.000E+00
     Starting wfcs are  396 randomized atomic wfcs

     total cpu time spent up to now is       26.6 secs

     Self-consistent Calculation

     iteration #  1     ecut=    60.00 Ry     beta= 0.50
     Davidson diagonalization with overlap
     ethr =  1.00E-02,  avg # of iterations =  2.0

     negative rho (up, down):  8.634E-02 0.000E+00

     total cpu time spent up to now is       73.2 secs

     total energy              =   -3708.36118941 Ry
     Harris-Foulkes estimate   =   -3716.46254305 Ry
     estimated scf accuracy    <      30.54737881 Ry

     iteration #  2     ecut=    60.00 Ry     beta= 0.50
     Davidson diagonalization with overlap
     ethr =  6.70E-03,  avg # of iterations =  2.0

     negative rho (up, down):  8.610E-02 0.000E+00

     total cpu time spent up to now is      119.4 secs

     total energy              =   -3711.13968073 Ry
     Harris-Foulkes estimate   =   -3712.39866152 Ry
     estimated scf accuracy    <       7.99544004 Ry

     iteration #  3     ecut=    60.00 Ry     beta= 0.50
     Davidson diagonalization with overlap
     ethr =  1.75E-03,  avg # of iterations =  1.3

     negative rho (up, down):  8.660E-02 0.000E+00

     total cpu time spent up to now is      162.3 secs

     total energy              =   -3711.67539689 Ry
     Harris-Foulkes estimate   =   -3711.98684739 Ry
     estimated scf accuracy    <       6.15514608 Ry

     iteration #  4     ecut=    60.00 Ry     beta= 0.50
     Davidson diagonalization with overlap
     ethr =  1.35E-03,  avg # of iterations =  1.0

     negative rho (up, down):  8.752E-02 0.000E+00

     total cpu time spent up to now is      204.6 secs

     total energy              =   -3711.73129073 Ry
     Harris-Foulkes estimate   =   -3711.84415741 Ry
     estimated scf accuracy    <       0.92162632 Ry

     iteration #  5     ecut=    60.00 Ry     beta= 0.50
     Davidson diagonalization with overlap
     ethr =  2.02E-04,  avg # of iterations =  6.8

     negative rho (up, down):  8.855E-02 0.000E+00

     total cpu time spent up to now is      267.1 secs

     total energy              =   -3711.75431556 Ry
     Harris-Foulkes estimate   =   -3711.82231798 Ry
     estimated scf accuracy    <       3.16844977 Ry

     iteration #  6     ecut=    60.00 Ry     beta= 0.50
     Davidson diagonalization with overlap
     ethr =  2.02E-04,  avg # of iterations =  1.1

     negative rho (up, down):  8.926E-02 0.000E+00

     total cpu time spent up to now is      309.6 secs

     total energy              =   -3711.76012622 Ry
     Harris-Foulkes estimate   =   -3711.77716282 Ry
     estimated scf accuracy    <       1.23036719 Ry

     iteration #  7     ecut=    60.00 Ry     beta= 0.50
     Davidson diagonalization with overlap
     ethr =  2.02E-04,  avg # of iterations =  1.0

     negative rho (up, down):  8.998E-02 0.000E+00

     total cpu time spent up to now is      352.6 secs

     total energy              =   -3711.75007672 Ry
     Harris-Foulkes estimate   =   -3711.76725185 Ry
     estimated scf accuracy    <       1.08157420 Ry

     iteration #  8     ecut=    60.00 Ry     beta= 0.50
     Davidson diagonalization with overlap
     ethr =  2.02E-04,  avg # of iterations =  1.0

     negative rho (up, down):  9.049E-02 0.000E+00

     total cpu time spent up to now is      394.6 secs

     total energy              =   -3711.74207239 Ry
     Harris-Foulkes estimate   =   -3711.75816165 Ry
     estimated scf accuracy    <       0.89784225 Ry

     iteration #  9     ecut=    60.00 Ry     beta= 0.50
     Davidson diagonalization with overlap
     ethr =  1.97E-04,  avg # of iterations =  1.0

     negative rho (up, down):  9.056E-02 0.000E+00

     total cpu time spent up to now is      436.9 secs

     total energy              =   -3711.73926835 Ry
     Harris-Foulkes estimate   =   -3711.74752046 Ry
     estimated scf accuracy    <       0.26412584 Ry

     iteration # 10     ecut=    60.00 Ry     beta= 0.50
     Davidson diagonalization with overlap
     ethr =  5.79E-05,  avg # of iterations = 10.5

     negative rho (up, down):  9.038E-02 0.000E+00

     total cpu time spent up to now is      506.7 secs

     total energy              =   -3711.73084233 Ry
     Harris-Foulkes estimate   =   -3711.74108430 Ry
     estimated scf accuracy    <       0.16551506 Ry

     iteration # 11     ecut=    60.00 Ry     beta= 0.50
     Davidson diagonalization with overlap
     ethr =  3.63E-05,  avg # of iterations =  6.6

     negative rho (up, down):  9.013E-02 0.000E+00

     total cpu time spent up to now is      564.6 secs

     total energy              =   -3711.73051301 Ry
     Harris-Foulkes estimate   =   -3711.73315084 Ry
     estimated scf accuracy    <       0.07257839 Ry

     iteration # 12     ecut=    60.00 Ry     beta= 0.50
     Davidson diagonalization with overlap
     ethr =  1.59E-05,  avg # of iterations =  5.8

     negative rho (up, down):  9.009E-02 0.000E+00

     total cpu time spent up to now is      619.6 secs

     total energy              =   -3711.72979976 Ry
     Harris-Foulkes estimate   =   -3711.73114709 Ry
     estimated scf accuracy    <       0.05183755 Ry

     iteration # 13     ecut=    60.00 Ry     beta= 0.50
     Davidson diagonalization with overlap
     c_bands:  1 eigenvalues not converged
     ethr =  1.14E-05,  avg # of iterations =  5.0

     negative rho (up, down):  9.945E-02 0.000E+00

     total cpu time spent up to now is      672.1 secs

     total energy              =   -3711.72713478 Ry
     Harris-Foulkes estimate   =   -3711.73004102 Ry
     estimated scf accuracy    <       0.04484909 Ry

     iteration # 14     ecut=    60.00 Ry     beta= 0.50
     Davidson diagonalization with overlap
     ethr =  9.84E-06,  avg # of iterations =  8.3

     negative rho (up, down):  1.011E-01 0.000E+00

     total cpu time spent up to now is      734.7 secs

     total energy              =   -3711.72635253 Ry
     Harris-Foulkes estimate   =   -3711.72751477 Ry
     estimated scf accuracy    <       0.03422477 Ry

     iteration # 15     ecut=    60.00 Ry     beta= 0.50
     Davidson diagonalization with overlap
     ethr =  7.51E-06,  avg # of iterations =  3.6

     negative rho (up, down):  1.135E-01 0.000E+00

     total cpu time spent up to now is      783.5 secs

     total energy              =   -3711.72404901 Ry
     Harris-Foulkes estimate   =   -3711.72659268 Ry
     estimated scf accuracy    <       0.03887742 Ry

     iteration # 16     ecut=    60.00 Ry     beta= 0.50
     Davidson diagonalization with overlap
     ethr =  7.51E-06,  avg # of iterations =  8.9

     negative rho (up, down):  1.346E-01 0.000E+00

     total cpu time spent up to now is      850.0 secs

     total energy              =   -3711.72212561 Ry
     Harris-Foulkes estimate   =   -3711.72419924 Ry
     estimated scf accuracy    <       0.02749789 Ry

     iteration # 17     ecut=    60.00 Ry     beta= 0.50
     Davidson diagonalization with overlap
     ethr =  6.03E-06,  avg # of iterations =  9.6

     negative rho (up, down):  1.300E-01 0.000E+00

     total cpu time spent up to now is      921.6 secs

     total energy              =   -3711.72149884 Ry
     Harris-Foulkes estimate   =   -3711.72232957 Ry
     estimated scf accuracy    <       0.01218926 Ry

     iteration # 18     ecut=    60.00 Ry     beta= 0.50
     Davidson diagonalization with overlap
     ethr =  2.67E-06,  avg # of iterations = 10.4

     negative rho (up, down):  1.140E-01 0.000E+00

     total cpu time spent up to now is      994.6 secs

     total energy              =   -3711.72100687 Ry
     Harris-Foulkes estimate   =   -3711.72161241 Ry
     estimated scf accuracy    <       0.00345656 Ry

     iteration # 19     ecut=    60.00 Ry     beta= 0.50
     Davidson diagonalization with overlap
     c_bands:  1 eigenvalues not converged
     c_bands:  1 eigenvalues not converged
     ethr =  7.58E-07,  avg # of iterations =  8.2

     negative rho (up, down):  9.850E-02 0.000E+00

     total cpu time spent up to now is     1057.1 secs

     total energy              =   -3711.72085803 Ry
     Harris-Foulkes estimate   =   -3711.72110873 Ry
     estimated scf accuracy    <       0.00290037 Ry

     iteration # 20     ecut=    60.00 Ry     beta= 0.50
     Davidson diagonalization with overlap
     c_bands:  1 eigenvalues not converged
     c_bands:  1 eigenvalues not converged
     c_bands:  1 eigenvalues not converged
     c_bands:  2 eigenvalues not converged
     ethr =  6.36E-07,  avg # of iterations = 13.2

     negative rho (up, down):  9.595E-02 0.000E+00

     total cpu time spent up to now is     1138.2 secs

     total energy              =   -3711.72087333 Ry
     Harris-Foulkes estimate   =   -3711.72090721 Ry
     estimated scf accuracy    <       0.00078677 Ry

     iteration # 21     ecut=    60.00 Ry     beta= 0.50
     Davidson diagonalization with overlap
     c_bands:  1 eigenvalues not converged
     c_bands:  1 eigenvalues not converged
     ethr =  1.73E-07,  avg # of iterations =  6.9

     negative rho (up, down):  9.190E-02 0.000E+00

     total cpu time spent up to now is     1201.4 secs

     total energy              =   -3711.72087165 Ry
     Harris-Foulkes estimate   =   -3711.72090368 Ry
     estimated scf accuracy    <       0.00044643 Ry

     iteration # 22     ecut=    60.00 Ry     beta= 0.50
     Davidson diagonalization with overlap
     c_bands:  1 eigenvalues not converged
     c_bands:  1 eigenvalues not converged
     c_bands:  1 eigenvalues not converged
     c_bands:  1 eigenvalues not converged
     c_bands:  1 eigenvalues not converged
     c_bands:  1 eigenvalues not converged
     ethr =  9.79E-08,  avg # of iterations = 11.8

     negative rho (up, down):  9.186E-02 0.000E+00

     total cpu time spent up to now is     1274.4 secs

     total energy              =   -3711.72087964 Ry
     Harris-Foulkes estimate   =   -3711.72088056 Ry
     estimated scf accuracy    <       0.00009765 Ry

     iteration # 23     ecut=    60.00 Ry     beta= 0.50
     Davidson diagonalization with overlap
     ethr =  2.14E-08,  avg # of iterations =  3.2

     negative rho (up, down):  9.201E-02 0.000E+00

     total cpu time spent up to now is     1322.4 secs

     total energy              =   -3711.72088370 Ry
     Harris-Foulkes estimate   =   -3711.72088135 Ry
     estimated scf accuracy    <       0.00001862 Ry

     iteration # 24     ecut=    60.00 Ry     beta= 0.50
     Davidson diagonalization with overlap
     ethr =  4.08E-09,  avg # of iterations =  2.1

     negative rho (up, down):  9.207E-02 0.000E+00

     total cpu time spent up to now is     1368.0 secs

     total energy              =   -3711.72088445 Ry
     Harris-Foulkes estimate   =   -3711.72088503 Ry
     estimated scf accuracy    <       0.00000954 Ry

     iteration # 25     ecut=    60.00 Ry     beta= 0.50
     Davidson diagonalization with overlap
     ethr =  2.09E-09,  avg # of iterations =  1.0

     negative rho (up, down):  9.212E-02 0.000E+00

     total cpu time spent up to now is     1410.1 secs

     total energy              =   -3711.72088464 Ry
     Harris-Foulkes estimate   =   -3711.72088478 Ry
     estimated scf accuracy    <       0.00000759 Ry

     iteration # 26     ecut=    60.00 Ry     beta= 0.50
     Davidson diagonalization with overlap
     ethr =  1.67E-09,  avg # of iterations =  1.0

     negative rho (up, down):  9.215E-02 0.000E+00

     total cpu time spent up to now is     1452.4 secs

     total energy              =   -3711.72088443 Ry
     Harris-Foulkes estimate   =   -3711.72088472 Ry
     estimated scf accuracy    <       0.00000416 Ry

     iteration # 27     ecut=    60.00 Ry     beta= 0.50
     Davidson diagonalization with overlap
     ethr =  9.12E-10,  avg # of iterations =  1.0

     negative rho (up, down):  9.214E-02 0.000E+00

     total cpu time spent up to now is     1495.3 secs

     total energy              =   -3711.72088451 Ry
     Harris-Foulkes estimate   =   -3711.72088454 Ry
     estimated scf accuracy    <       0.00000110 Ry

     iteration # 28     ecut=    60.00 Ry     beta= 0.50
     Davidson diagonalization with overlap
     ethr =  2.42E-10,  avg # of iterations =  1.7

     negative rho (up, down):  9.217E-02 0.000E+00

     total cpu time spent up to now is     1539.2 secs

     total energy              =   -3711.72088448 Ry
     Harris-Foulkes estimate   =   -3711.72088457 Ry
     estimated scf accuracy    <       0.00000043 Ry

     iteration # 29     ecut=    60.00 Ry     beta= 0.50
     Davidson diagonalization with overlap
     ethr =  9.35E-11,  avg # of iterations =  2.4

     negative rho (up, down):  9.214E-02 0.000E+00

     total cpu time spent up to now is     1585.9 secs

     total energy              =   -3711.72088453 Ry
     Harris-Foulkes estimate   =   -3711.72088451 Ry
     estimated scf accuracy    <       0.00000018 Ry

     iteration # 30     ecut=    60.00 Ry     beta= 0.50
     Davidson diagonalization with overlap
     ethr =  4.05E-11,  avg # of iterations =  2.5

     negative rho (up, down):  9.215E-02 0.000E+00

     total cpu time spent up to now is     1632.7 secs

     total energy              =   -3711.72088453 Ry
     Harris-Foulkes estimate   =   -3711.72088455 Ry
     estimated scf accuracy    <       0.00000009 Ry

     iteration # 31     ecut=    60.00 Ry     beta= 0.50
     Davidson diagonalization with overlap
     ethr =  1.91E-11,  avg # of iterations =  1.2

     negative rho (up, down):  9.216E-02 0.000E+00

     total cpu time spent up to now is     1675.2 secs

     total energy              =   -3711.72088453 Ry
     Harris-Foulkes estimate   =   -3711.72088454 Ry
     estimated scf accuracy    <       0.00000002 Ry

     iteration # 32     ecut=    60.00 Ry     beta= 0.50
     Davidson diagonalization with overlap
     ethr =  3.46E-12,  avg # of iterations =  3.0

     negative rho (up, down):  9.217E-02 0.000E+00

     total cpu time spent up to now is     1729.2 secs

     total energy              =   -3711.72088451 Ry
     Harris-Foulkes estimate   =   -3711.72088453 Ry
     estimated scf accuracy    <       0.00000001 Ry

     iteration # 33     ecut=    60.00 Ry     beta= 0.50
     Davidson diagonalization with overlap
     ethr =  3.21E-12,  avg # of iterations =  1.0

     negative rho (up, down):  9.217E-02 0.000E+00

     total cpu time spent up to now is     1770.4 secs

     End of self-consistent calculation

          k = 0.0000 0.0000 0.0000 ( 69653 PWs)   bands (ev):

   -38.0303 -37.8635 -35.6570 -35.4613 -23.2369 -22.9911 -22.8226 -22.8103
   -22.6943 -22.6823 -22.5716 -22.4197 -18.5056 -18.4013 -18.3137 -18.2457
   -18.0334 -17.8741 -17.0051 -16.8698 -16.7835 -16.6881 -16.6866 -16.5006
   -15.4170 -15.2694 -14.9898 -14.9566 -14.9176 -14.7759 -14.6618 -14.5661
   -14.5616 -14.4844 -14.4827 -14.4600 -14.3745 -14.3135 -14.2857 -14.1069
   -14.0853 -14.0429 -14.0021 -13.9919 -13.9916 -13.9867 -13.9787 -13.8936
   -13.8915 -13.7505 -13.6138 -13.5556 -13.5537 -13.4117  -8.5634  -8.2797
    -8.0858  -8.0605  -8.0453  -8.0048  -7.9520  -7.9390  -7.8721  -7.8610
    -7.8560  -7.8404  -7.7629  -7.7519  -7.7339  -7.7220  -7.6376  -7.6264
    -7.5641  -7.4959  -7.4840  -7.4458  -7.3772  -7.2235  -2.9900  -2.9666
    -2.8155  -2.5789  -2.1794  -2.1730  -2.0925  -2.0895  -2.0462  -1.9655
    -1.9209  -1.9160  -1.8676  -1.8410  -1.8032  -1.7943  -1.7260  -1.6686
    -1.6531  -1.6339  -1.5936  -1.5340  -1.5006  -1.4802  -1.4530  -1.3981
    -1.3337  -1.2235  -1.1651  -1.1096  -1.0429  -0.9715  -0.9291  -0.9283
    -0.9276  -0.9261  -0.9239  -0.9107  -0.8802  -0.8252  -0.7780  -0.7621
    -0.7517  -0.7031  -0.7005  -0.6981  -0.6597  -0.6016  -0.5679  -0.5668
    -0.4553  -0.3311  -0.3156  -0.2922  -0.2611  -0.2591  -0.1861  -0.1556
    -0.1420  -0.1392  -0.1374  -0.1350  -0.1164  -0.0905   0.0032   0.0134
     0.0442   0.0467   0.0513   0.0535   0.1002   0.1025   0.1285   0.1702
     0.1710   0.1725   0.1755   0.1999   0.2492   0.2653   0.2670   0.2848
     0.3042   0.3063   0.3368   0.3882   0.4101   0.4132   0.4158   0.5218
     0.5436   0.5726   0.5780   0.5818   0.5965   0.5992   0.6339   0.6355
     0.6743   0.7519   0.7695   0.8351   0.9248   0.9682   1.0360   1.0399
     1.0586   1.0790   1.0910   1.0956   1.1302   1.1750   1.2284   1.2523
     1.2605   1.2678   1.2841   1.3214   1.3363   1.3917   1.3985   1.4509
     1.4555   1.4564   1.4800   1.4886   1.6376   1.6397   1.6522   1.6532
     1.6756   1.7623   1.7646   1.7772   1.8371   1.8465   1.8545   1.8633
     1.8857   1.9534   1.9809   2.0833   2.0839   2.1059   2.1085   2.1364
     2.1582   2.2696   2.3015   2.3130   2.3399   2.3520   2.4126   2.5175
     2.6245   2.6301   2.6448   2.6812   2.9041   2.9229   5.2358   5.2791
     5.4606   5.9708   6.1083   6.3051   6.6760   6.7006   6.8072   7.2797
     7.3276   7.3381   7.4173   7.4177   7.6312   7.6922   7.8420   8.0663
     8.1447   8.1967   8.2201   8.2588   8.3369   8.3842   8.5313   8.5529
     8.6166   8.6536   8.6642   8.8317   9.0285   9.0945   9.1244   9.2282
     9.2868   9.3163

          k = 0.0000 0.2618 0.0000 ( 69651 PWs)   bands (ev):

   -38.0276 -37.8608 -35.6553 -35.4596 -23.2172 -22.9733 -22.7981 -22.7857
   -22.6752 -22.6632 -22.5480 -22.4009 -18.4669 -18.3940 -18.2748 -18.2385
   -18.1443 -17.9850 -16.9756 -16.8655 -16.7537 -16.7526 -16.6837 -16.5665
   -15.3109 -15.1693 -14.9326 -14.8998 -14.8502 -14.7282 -14.6234 -14.5599
   -14.5305 -14.4884 -14.4505 -14.3981 -14.3146 -14.2768 -14.2530 -14.1030
   -14.0543 -14.0529 -14.0497 -13.9908 -13.9797 -13.9788 -13.9703 -13.9294
   -13.8572 -13.7955 -13.6135 -13.6096 -13.5735 -13.4780  -8.5500  -8.2661
    -8.0953  -8.0754  -8.0539  -8.0391  -7.9652  -7.9524  -7.9432  -7.9282
    -7.8506  -7.8284  -7.8175  -7.7766  -7.7694  -7.7640  -7.7580  -7.7405
    -7.7030  -7.6914  -7.5490  -7.4877  -7.4685  -7.4367  -3.0894  -3.0514
    -2.8776  -2.6319  -2.2968  -2.2754  -2.1923  -2.1916  -2.1836  -2.0677
    -2.0599  -1.9996  -1.9686  -1.9357  -1.9277  -1.9152  -1.8802  -1.8528
    -1.8108  -1.7810  -1.6973  -1.6321  -1.6131  -1.5987  -1.5558  -1.4599
    -1.3830  -1.3728  -1.3726  -1.3684  -1.3520  -1.3430  -1.3409  -1.3005
    -1.2504  -1.2038  -1.0277  -0.9973  -0.9579  -0.7837  -0.7785  -0.7495
    -0.7116  -0.6746  -0.6565  -0.6056  -0.5829  -0.5400  -0.5162  -0.5015
    -0.4391  -0.4006  -0.3721  -0.3528  -0.3493  -0.3006  -0.2891  -0.2757
    -0.2544  -0.2113  -0.1868  -0.1368  -0.1245  -0.1040  -0.0961  -0.0401
    -0.0393   0.0350   0.0537   0.0540   0.0566   0.1104   0.1480   0.1671
     0.2042   0.2111   0.2360   0.2363   0.2830   0.3295   0.3299   0.3408
     0.3780   0.3947   0.3948   0.4343   0.4353   0.4510   0.4564   0.4834
     0.5098   0.5260   0.5935   0.5971   0.6058   0.7096   0.7107   0.7638
     0.8070   0.8518   0.8863   0.9103   0.9197   0.9568   1.0342   1.0546
     1.1063   1.1091   1.1581   1.1914   1.2115   1.2300   1.2326   1.2610
     1.2852   1.3183   1.3660   1.3705   1.3869   1.4101   1.4481   1.4907
     1.4938   1.5075   1.5426   1.5790   1.5867   1.5953   1.6269   1.6325
     1.6995   1.7274   1.7672   1.7797   1.8078   1.8424   1.8652   1.8837
     1.9132   1.9306   1.9523   2.0091   2.0229   2.0727   2.1141   2.1352
     2.1863   2.2579   2.3516   2.4631   2.8539   2.8642   2.9048   2.9238
     2.9850   3.0139   3.0603   3.0721   3.2488   3.2895   5.6114   5.6595
     5.7171   6.2642   6.3795   6.4101   6.9820   7.0020   7.0537   7.1602
     7.1658   7.4527   7.5182   7.6394   7.7332   7.8150   7.8392   8.0331
     8.0419   8.1644   8.2726   8.3748   8.4267   8.5646   8.6157   8.7122
     8.7539   8.8059   8.8877   8.9658   9.0791   9.1862   9.2446   9.2513
     9.3315   9.3639

          k = 0.0000 0.5236 0.0000 ( 69545 PWs)   bands (ev):

   -38.0211 -37.8543 -35.6512 -35.4555 -23.1688 -22.9294 -22.7375 -22.7251
   -22.6283 -22.6164 -22.4901 -22.3548 -18.3845 -18.3765 -18.3673 -18.2249
   -18.2210 -18.1749 -16.9052 -16.8928 -16.8550 -16.7124 -16.6764 -16.6730
   -15.0708 -14.9522 -14.7823 -14.7486 -14.6661 -14.6250 -14.5964 -14.5495
   -14.5301 -14.4472 -14.4461 -14.2674 -14.2283 -14.1869 -14.1827 -14.1685
   -14.0977 -14.0456 -14.0177 -13.9657 -13.9652 -13.9612 -13.9286 -13.9211
   -13.8303 -13.7743 -13.7372 -13.6480 -13.6220 -13.5988  -8.5191  -8.4829
    -8.3096  -8.2415  -8.2293  -8.2175  -8.0935  -8.0820  -8.0710  -8.0171
    -8.0025  -7.9717  -7.9462  -7.9338  -7.9184  -7.8407  -7.8289  -7.8117
    -7.7690  -7.7115  -7.7049  -7.7002  -7.5715  -7.4028  -3.4801  -3.4033
    -3.1236  -2.8719  -2.7823  -2.7513  -2.6228  -2.5401  -2.4964  -2.4099
    -2.3911  -2.3705  -2.2554  -2.2276  -2.2254  -2.1885  -2.1854  -2.1029
    -2.0435  -2.0430  -2.0334  -2.0325  -1.9260  -1.9028  -1.8981  -1.8366
    -1.7350  -1.6602  -1.6371  -1.5941  -1.5458  -1.4909  -1.4592  -1.3912
    -1.3625  -1.3078  -1.1792  -1.1264  -0.9355  -0.9109  -0.9061  -0.8598
    -0.8104  -0.7935  -0.7921  -0.7180  -0.7081  -0.6245  -0.6097  -0.6087
    -0.5992  -0.5635  -0.5254  -0.5147  -0.5003  -0.4677  -0.4663  -0.4596
    -0.4319  -0.3766  -0.3512  -0.3506  -0.3361  -0.3215  -0.2964  -0.2954
    -0.2921  -0.2230  -0.2080  -0.1814  -0.1172   0.1063   0.1680   0.2039
     0.2496   0.2559   0.2698   0.2833   0.2935   0.3275   0.3465   0.3731
     0.4150   0.4624   0.5816   0.6003   0.6576   0.6709   0.6777   0.6958
     0.8142   0.8395   0.8410   0.8833   0.8934   0.8981   1.0082   1.0833
     1.0863   1.1047   1.1308   1.2093   1.2317   1.2545   1.2582   1.2725
     1.3005   1.3014   1.3026   1.3137   1.3181   1.3301   1.3501   1.3885
     1.4234   1.4503   1.4669   1.4782   1.4972   1.5034   1.5437   1.5593
     1.5812   1.6210   1.6340   1.6852   1.7290   1.7295   1.7496   1.7578
     1.8051   1.8652   1.8676   1.8996   1.9120   1.9404   1.9627   2.0109
     2.0310   2.0315   2.0557   2.0572   2.1027   2.1250   2.1257   2.1854
     2.1871   2.2097   2.4713   2.5744   3.1251   3.1292   3.1641   3.1702
     3.6840   3.7320   3.8775   3.8989   4.0036   4.1152   5.8334   6.5581
     6.5594   6.6746   6.6840   6.7002   7.0107   7.0298   7.0611   7.1567
     7.6379   7.8604   7.8793   7.9222   8.0088   8.2044   8.2851   8.3680
     8.4757   8.4900   8.5777   8.6934   8.7452   8.7992   8.8131   8.8284
     8.8739   8.9982   9.0389   9.1129   9.1487   9.2893   9.4100   9.4185
     9.5150   9.6031

          k = 0.0000 0.7854 0.0000 ( 69548 PWs)   bands (ev):

   -38.0146 -37.8477 -35.6471 -35.4513 -23.1195 -22.8845 -22.6751 -22.6627
   -22.5804 -22.5685 -22.4305 -22.3076 -18.5934 -18.4343 -18.3591 -18.2613
   -18.2035 -18.0680 -17.0273 -16.8447 -16.8405 -16.8192 -16.6625 -16.5958
   -14.8567 -14.8103 -14.7223 -14.6010 -14.5975 -14.5600 -14.5182 -14.4600
   -14.4367 -14.4122 -14.3817 -14.3569 -14.2911 -14.1717 -14.1189 -14.1066
   -14.0976 -14.0036 -13.9774 -13.9182 -13.9149 -13.8839 -13.8825 -13.8807
   -13.8636 -13.7990 -13.7682 -13.7638 -13.6066 -13.6023  -8.8993  -8.6365
    -8.6244  -8.5803  -8.4656  -8.3770  -8.3659  -8.3495  -8.2167  -8.1414
    -8.0616  -8.0207  -8.0065  -7.9518  -7.9384  -7.9098  -7.8980  -7.8570
    -7.7950  -7.6843  -7.6432  -7.5904  -7.5789  -7.2924  -3.9645  -3.8778
    -3.5276  -3.2765  -3.1939  -3.1616  -3.1481  -3.0351  -2.9276  -2.8046
    -2.8023  -2.7394  -2.7379  -2.7366  -2.5559  -2.5447  -2.3813  -2.2888
    -2.2254  -2.2043  -2.1503  -2.1461  -2.0833  -2.0803  -1.9273  -1.9083
    -1.8420  -1.8115  -1.7063  -1.6990  -1.6643  -1.6020  -1.5342  -1.4929
    -1.4158  -1.2057  -1.1476  -1.1362  -1.1056  -1.0932  -1.0574  -0.9957
    -0.9759  -0.9611  -0.9458  -0.9170  -0.8854  -0.8780  -0.8645  -0.7962
    -0.7662  -0.7384  -0.7184  -0.6910  -0.6836  -0.6429  -0.6410  -0.6156
    -0.5877  -0.5822  -0.5452  -0.5443  -0.5416  -0.5124  -0.4928  -0.3917
    -0.3352  -0.3078  -0.1554  -0.1530  -0.1114   0.0707   0.1252   0.1549
     0.1731   0.2246   0.2594   0.2724   0.2914   0.3506   0.3907   0.4234
     0.4389   0.5872   0.6682   0.7160   0.7861   0.8478   0.8537   0.8791
     0.8860   0.9662   1.0460   1.0560   1.0979   1.0989   1.1230   1.1487
     1.2161   1.2326   1.3020   1.3104   1.3776   1.3996   1.4034   1.4225
     1.4510   1.4542   1.4761   1.5069   1.5194   1.5693   1.5980   1.6266
     1.6791   1.6811   1.7134   1.7226   1.7259   1.7459   1.7844   1.7954
     1.8129   1.8221   1.8273   1.8607   1.8802   1.8847   1.8953   1.9628
     2.0068   2.0233   2.0322   2.0574   2.0743   2.0801   2.0917   2.1006
     2.1310   2.1687   2.2875   2.3051   2.3056   2.3334   2.3701   2.3942
     2.4348   2.5040   2.5287   2.5299   2.9703   2.9776   3.0763   3.0827
     4.0300   4.0459   4.5240   4.5456   4.5911   4.7070   5.5922   6.1469
     6.1522   6.6397   6.8073   7.1882   7.4668   7.4870   7.5147   7.8715
     8.0767   8.0793   8.1594   8.4051   8.5167   8.5693   8.5924   8.6532
     8.6813   8.7582   8.8526   8.8925   8.9327   8.9812   9.0880   9.1069
     9.2656   9.2930   9.3090   9.3638   9.3804   9.5238   9.5325   9.6440
     9.6661   9.7022

          k = 0.0000-1.0472 0.0000 ( 69594 PWs)   bands (ev):

   -38.0119 -37.8450 -35.6454 -35.4496 -23.0988 -22.8655 -22.6488 -22.6363
   -22.5602 -22.5483 -22.4054 -22.2876 -18.6740 -18.5149 -18.3519 -18.2140
   -18.1963 -18.0205 -17.0777 -16.8906 -16.8404 -16.7835 -16.6581 -16.5599
   -14.8639 -14.8280 -14.6601 -14.5795 -14.5436 -14.4967 -14.4376 -14.4337
   -14.4178 -14.3960 -14.3365 -14.3225 -14.2799 -14.1910 -14.1728 -14.1163
   -14.0622 -13.9792 -13.9309 -13.9149 -13.8833 -13.8792 -13.8683 -13.8647
   -13.8357 -13.8250 -13.8228 -13.7862 -13.5837 -13.5686  -9.0596  -8.7898
    -8.7776  -8.6947  -8.5029  -8.4958  -8.4846  -8.4365  -8.2476  -8.1604
    -8.1339  -8.0263  -8.0115  -7.9455  -7.9374  -7.9318  -7.9256  -7.8657
    -7.7586  -7.6882  -7.6569  -7.5377  -7.5263  -7.2441  -4.1668  -4.0800
    -3.7141  -3.4634  -3.3735  -3.3359  -3.3203  -3.2429  -3.0756  -3.0395
    -3.0343  -2.9681  -2.9667  -2.8859  -2.5847  -2.5738  -2.4145  -2.4031
    -2.3355  -2.2430  -2.1726  -2.1699  -2.0706  -2.0676  -1.9390  -1.9355
    -1.9076  -1.8865  -1.8168  -1.7867  -1.7752  -1.5273  -1.5152  -1.4373
    -1.2639  -1.2383  -1.2187  -1.2042  -1.1837  -1.1522  -1.1427  -1.0929
    -1.0043  -1.0003  -0.9928  -0.9916  -0.9761  -0.9573  -0.9359  -0.9198
    -0.9057  -0.8327  -0.7765  -0.7760  -0.7567  -0.7517  -0.7457  -0.7152
    -0.6593  -0.6433  -0.6334  -0.6321  -0.6112  -0.5322  -0.4282  -0.3469
    -0.3150  -0.3119  -0.1258  -0.1179  -0.1142  -0.0073   0.0610   0.0673
     0.1547   0.1723   0.2712   0.2787   0.3102   0.3398   0.3431   0.4647
     0.4756   0.6476   0.6713   0.7392   0.7512   0.8579   0.8627   0.9507
     0.9561   0.9598   0.9632   1.1085   1.1413   1.1943   1.2656   1.2807
     1.2956   1.3377   1.3704   1.4250   1.4406   1.4437   1.4553   1.4610
     1.4613   1.4948   1.4999   1.5182   1.5718   1.6223   1.6337   1.6790
     1.7106   1.7849   1.8006   1.8083   1.8339   1.8552   1.8807   1.8938
     1.8950   1.9639   1.9774   1.9927   2.0056   2.0184   2.0195   2.0395
     2.0502   2.0871   2.2160   2.2198   2.2316   2.2414   2.2541   2.2591
     2.2803   2.2834   2.2849   2.2930   2.3926   2.4633   2.5080   2.5089
     2.5372   2.5585   2.6920   2.6933   2.7352   2.7469   2.9065   2.9137
     4.0764   4.0977   4.7309   4.7590   4.8009   4.9068   5.5072   5.9075
     5.9129   6.5040   6.6974   7.3025   7.6437   7.8858   7.8916   8.0110
     8.1118   8.1349   8.2952   8.4565   8.4758   8.5158   8.6784   8.8898
     8.8914   8.9385   8.9551   8.9735   9.0766   9.1983   9.2702   9.2910
     9.2981   9.3107   9.3227   9.4661   9.4672   9.5034   9.5575   9.6854
     9.7083   9.8867

          k = 0.1250 0.0000 0.0000 ( 69651 PWs)   bands (ev):

   -38.0303 -37.8635 -35.6570 -35.4613 -23.2355 -22.9928 -22.8182 -22.8058
   -22.6991 -22.6871 -22.5683 -22.4234 -18.5049 -18.3981 -18.3130 -18.2426
   -18.0334 -17.8741 -17.0081 -16.8819 -16.7866 -16.7003 -16.6866 -16.5006
   -15.3895 -15.2428 -14.9748 -14.9427 -14.9100 -14.7791 -14.6542 -14.5742
   -14.5669 -14.5311 -14.4943 -14.4675 -14.3871 -14.2965 -14.2817 -14.1013
   -14.0837 -14.0351 -14.0043 -13.9942 -13.9933 -13.9878 -13.9806 -13.8970
   -13.8807 -13.7500 -13.6137 -13.5642 -13.5551 -13.4215  -8.5667  -8.2889
    -8.0718  -8.0627  -8.0476  -7.9997  -7.9563  -7.9433  -7.8588  -7.8583
    -7.8471  -7.8432  -7.7686  -7.7592  -7.7257  -7.7137  -7.6442  -7.6330
    -7.5491  -7.5053  -7.4934  -7.4382  -7.3792  -7.2320  -2.9552  -2.9315
    -2.7825  -2.5439  -2.1754  -2.1683  -2.1111  -2.1067  -2.0427  -1.9626
    -1.9496  -1.9178  -1.8754  -1.8387  -1.8331  -1.8129  -1.7165  -1.6761
    -1.6717  -1.6513  -1.6011  -1.5140  -1.4977  -1.4756  -1.4536  -1.4385
    -1.3762  -1.2561  -1.1433  -1.0537  -0.9983  -0.9623  -0.9399  -0.9276
    -0.9261  -0.9256  -0.9245  -0.9115  -0.8540  -0.8330  -0.7820  -0.7576
    -0.7467  -0.6804  -0.6789  -0.6707  -0.6326  -0.6010  -0.5854  -0.5268
    -0.4583  -0.3195  -0.3157  -0.3112  -0.3036  -0.2727  -0.1933  -0.1910
    -0.1862  -0.1606  -0.1578  -0.1385  -0.1190  -0.0812  -0.0615   0.0240
     0.0419   0.0435   0.0485   0.0529   0.0529   0.0850   0.1372   0.1411
     0.1686   0.1894   0.2239   0.2428   0.2675   0.2688   0.2809   0.3039
     0.3054   0.3119   0.3318   0.3706   0.4175   0.4225   0.4519   0.4962
     0.5260   0.5653   0.5728   0.5755   0.6053   0.6116   0.6235   0.6662
     0.7044   0.7494   0.7822   0.8331   0.8891   0.9601   0.9985   1.0164
     1.0603   1.0657   1.0894   1.1221   1.1460   1.1808   1.1867   1.2068
     1.2303   1.2432   1.2877   1.2997   1.3285   1.3556   1.4453   1.4467
     1.4776   1.4837   1.4946   1.5067   1.5887   1.6292   1.6410   1.6570
     1.6936   1.7683   1.7727   1.7961   1.8422   1.8481   1.8626   1.8666
     1.9088   1.9411   2.0310   2.0825   2.0894   2.0923   2.0954   2.1164
     2.1826   2.2587   2.2979   2.3004   2.3314   2.3338   2.4229   2.5200
     2.6308   2.6380   2.6562   2.6804   2.9008   2.9169   5.2932   5.3281
     5.5060   6.0266   6.1615   6.3212   6.7301   6.7542   6.8392   6.9596
     6.9611   7.3070   7.6101   7.6774   7.7767   7.7891   7.8427   8.0320
     8.1409   8.1978   8.2310   8.2368   8.3380   8.3579   8.4574   8.5628
     8.6605   8.6655   8.7127   8.8752   8.9723   9.0484   9.1295   9.2364
     9.2481   9.3570

          k = 0.1250 0.2618 0.0000 ( 69587 PWs)   bands (ev):

   -38.0276 -37.8608 -35.6553 -35.4596 -23.2158 -22.9748 -22.7938 -22.7814
   -22.6797 -22.6678 -22.5449 -22.4044 -18.4662 -18.3909 -18.2741 -18.2354
   -18.1443 -17.9850 -16.9785 -16.8769 -16.7566 -16.7525 -16.6953 -16.5664
   -15.2842 -15.1439 -14.9194 -14.8881 -14.8438 -14.7309 -14.6169 -14.5660
   -14.5300 -14.4965 -14.4577 -14.4539 -14.3225 -14.2659 -14.2397 -14.0982
   -14.0669 -14.0565 -14.0329 -13.9914 -13.9814 -13.9796 -13.9738 -13.9330
   -13.8482 -13.7931 -13.6258 -13.6049 -13.5727 -13.4843  -8.5516  -8.2739
    -8.1257  -8.0969  -8.0558  -8.0411  -7.9712  -7.9586  -7.9138  -7.8961
    -7.8844  -7.8730  -7.8539  -7.8116  -7.8001  -7.7469  -7.7135  -7.7019
    -7.6566  -7.6450  -7.5861  -7.5367  -7.4149  -7.3917  -3.0533  -3.0149
    -2.8421  -2.5952  -2.3054  -2.2840  -2.1983  -2.1819  -2.1757  -2.0756
    -2.0655  -2.0023  -1.9715  -1.9399  -1.9309  -1.9192  -1.8864  -1.8556
    -1.8197  -1.8097  -1.7236  -1.6955  -1.6227  -1.6033  -1.5519  -1.4443
    -1.4320  -1.3771  -1.3686  -1.3555  -1.3431  -1.3429  -1.3198  -1.2749
    -1.2293  -1.1938  -1.0203  -0.9816  -0.9570  -0.7940  -0.7871  -0.7390
    -0.7055  -0.6800  -0.6351  -0.6211  -0.5904  -0.5570  -0.5373  -0.5328
    -0.4295  -0.4041  -0.3802  -0.3731  -0.3506  -0.3189  -0.2995  -0.2857
    -0.2717  -0.2386  -0.2152  -0.1445  -0.1109  -0.0951  -0.0909  -0.0364
    -0.0119   0.0309   0.0464   0.0512   0.0546   0.1142   0.1245   0.1468
     0.2072   0.2191   0.2217   0.2500   0.2654   0.3414   0.3425   0.3462
     0.3714   0.4002   0.4136   0.4340   0.4384   0.4592   0.4650   0.4908
     0.5021   0.5320   0.5509   0.5942   0.6182   0.6907   0.6929   0.7522
     0.8108   0.8783   0.9079   0.9232   0.9504   0.9732   1.0080   1.0760
     1.1059   1.1137   1.1428   1.1663   1.2000   1.2241   1.2622   1.2883
     1.2931   1.3053   1.3301   1.3425   1.3772   1.4131   1.4448   1.4550
     1.4626   1.4855   1.5083   1.5718   1.6043   1.6135   1.6327   1.6485
     1.7109   1.7562   1.7607   1.7656   1.7909   1.8137   1.8401   1.8537
     1.8618   1.9253   1.9320   2.0718   2.0855   2.1042   2.1191   2.1935
     2.2243   2.2641   2.4443   2.5093   2.8503   2.8618   2.9083   2.9260
     2.9892   3.0118   3.0576   3.0693   3.2407   3.2849   5.6545   5.6965
     5.7490   6.3073   6.4016   6.4482   6.9915   6.9965   7.0237   7.0566
     7.0979   7.4890   7.5538   7.6871   7.8076   7.8801   7.9054   7.9461
     8.0915   8.1636   8.2892   8.3736   8.4141   8.5531   8.6183   8.6950
     8.7359   8.8125   8.8924   8.9786   9.0389   9.1486   9.2110   9.2339
     9.2904   9.3455

          k = 0.1250 0.5236 0.0000 ( 69560 PWs)   bands (ev):

   -38.0211 -37.8543 -35.6512 -35.4555 -23.1677 -22.9307 -22.7338 -22.7214
   -22.6323 -22.6204 -22.4873 -22.3577 -18.3844 -18.3734 -18.3667 -18.2249
   -18.2179 -18.1743 -16.9069 -16.8936 -16.8651 -16.7126 -16.6833 -16.6789
   -15.0464 -14.9308 -14.7749 -14.7436 -14.6628 -14.6228 -14.5980 -14.5476
   -14.5248 -14.4461 -14.4432 -14.2823 -14.2632 -14.2046 -14.1908 -14.1257
   -14.0991 -14.0547 -14.0161 -13.9819 -13.9636 -13.9602 -13.9300 -13.9286
   -13.8207 -13.7735 -13.7379 -13.6481 -13.6230 -13.5962  -8.5294  -8.4980
    -8.2753  -8.2748  -8.2633  -8.2181  -8.1372  -8.0368  -8.0242  -8.0049
    -7.9926  -7.9913  -7.9529  -7.9404  -7.9089  -7.8972  -7.8878  -7.8158
    -7.7183  -7.7037  -7.6595  -7.6480  -7.6331  -7.3647  -3.4445  -3.3675
    -3.0864  -2.8351  -2.7917  -2.7582  -2.6231  -2.5411  -2.4980  -2.4048
    -2.3885  -2.3713  -2.2529  -2.2286  -2.2261  -2.1873  -2.1851  -2.0998
    -2.0442  -2.0436  -2.0323  -2.0314  -1.9160  -1.8976  -1.8852  -1.8058
    -1.7725  -1.7081  -1.6222  -1.6147  -1.5840  -1.4890  -1.4392  -1.3917
    -1.3773  -1.3555  -1.1861  -1.1346  -0.9508  -0.9199  -0.9124  -0.8658
    -0.8382  -0.8023  -0.7681  -0.7185  -0.7030  -0.6648  -0.6411  -0.6257
    -0.5994  -0.5740  -0.5565  -0.5437  -0.5368  -0.4870  -0.4615  -0.4598
    -0.4484  -0.4008  -0.3711  -0.3563  -0.3342  -0.3310  -0.3117  -0.2863
    -0.2531  -0.2165  -0.1893  -0.1832  -0.1048   0.1392   0.1982   0.2059
     0.2108   0.2143   0.2591   0.2831   0.2913   0.3403   0.3622   0.3887
     0.4284   0.4856   0.5581   0.5870   0.6271   0.6500   0.6894   0.7284
     0.8036   0.8317   0.8775   0.8850   0.9017   0.9127   1.0145   1.0674
     1.0730   1.1104   1.1426   1.1644   1.2106   1.2135   1.2441   1.2512
     1.2655   1.3070   1.3350   1.3408   1.3641   1.3731   1.3876   1.4112
     1.4166   1.4326   1.4563   1.4910   1.4943   1.5223   1.5272   1.5457
     1.5967   1.6263   1.6321   1.6779   1.6907   1.7010   1.7372   1.7742
     1.8003   1.8567   1.8749   1.8798   1.8841   1.9106   1.9298   1.9626
     1.9921   2.0680   2.1147   2.1155   2.1309   2.1440   2.1506   2.2155
     2.2915   2.3096   2.5887   2.6559   3.1263   3.1303   3.1653   3.1719
     3.6855   3.7302   3.8457   3.8674   3.9754   4.0879   5.8671   6.5736
     6.5750   6.6834   6.6917   6.7191   7.0314   7.0563   7.0774   7.1794
     7.6765   7.8894   7.9100   7.9297   7.9810   8.1847   8.2725   8.3722
     8.4635   8.4656   8.5674   8.6258   8.7112   8.7681   8.7922   8.8337
     8.9019   8.9930   9.0576   9.1216   9.1313   9.3066   9.3956   9.4264
     9.4598   9.5105

          k = 0.1250 0.7854 0.0000 ( 69550 PWs)   bands (ev):

   -38.0146 -37.8477 -35.6471 -35.4513 -23.1186 -22.8855 -22.6720 -22.6595
   -22.5837 -22.5718 -22.4282 -22.3100 -18.5934 -18.4343 -18.3561 -18.2608
   -18.2006 -18.0674 -17.0273 -16.8540 -16.8405 -16.8214 -16.6719 -16.5981
   -14.8410 -14.7984 -14.7053 -14.6015 -14.5791 -14.5656 -14.5134 -14.4596
   -14.4362 -14.4125 -14.3781 -14.3535 -14.2913 -14.1711 -14.1352 -14.1233
   -14.1027 -13.9956 -13.9847 -13.9170 -13.9137 -13.8867 -13.8840 -13.8834
   -13.8758 -13.7952 -13.7688 -13.7630 -13.6138 -13.6023  -8.8858  -8.6268
    -8.6147  -8.5470  -8.4656  -8.3369  -8.3346  -8.3237  -8.2481  -8.1495
    -8.0255  -8.0193  -8.0059  -7.9569  -7.9526  -7.9445  -7.9399  -7.8601
    -7.8096  -7.7029  -7.6636  -7.6053  -7.5939  -7.3090  -3.9277  -3.8418
    -3.4928  -3.2431  -3.2069  -3.1736  -3.1471  -3.0371  -2.9364  -2.8024
    -2.7998  -2.7464  -2.7403  -2.7391  -2.5422  -2.5307  -2.3694  -2.2597
    -2.2108  -2.1769  -2.1518  -2.1453  -2.0822  -2.0788  -1.9331  -1.9069
    -1.8271  -1.7938  -1.7041  -1.6909  -1.6811  -1.5931  -1.5655  -1.4989
    -1.4895  -1.2872  -1.1694  -1.1467  -1.1229  -1.0913  -1.0460  -1.0106
    -0.9996  -0.9710  -0.9560  -0.9402  -0.9211  -0.9186  -0.8826  -0.8174
    -0.7730  -0.7600  -0.7182  -0.7094  -0.6827  -0.6780  -0.6523  -0.6371
    -0.5995  -0.5822  -0.5543  -0.5476  -0.5346  -0.5081  -0.4602  -0.3552
    -0.3325  -0.3030  -0.1656  -0.1640  -0.0942   0.0953   0.1753   0.1841
     0.2066   0.2450   0.2521   0.2662   0.2960   0.3758   0.4082   0.4220
     0.4225   0.5788   0.6322   0.6847   0.7686   0.8308   0.8323   0.9132
     0.9554   0.9935   1.0527   1.0546   1.0749   1.1159   1.1520   1.1743
     1.1932   1.2204   1.3081   1.3135   1.3480   1.3813   1.3853   1.4040
     1.4396   1.4585   1.4943   1.5084   1.5168   1.5571   1.5787   1.6124
     1.6671   1.6775   1.6903   1.7108   1.7450   1.7657   1.7906   1.8077
     1.8231   1.8413   1.8570   1.8724   1.8832   1.8997   1.9035   1.9365
     1.9991   2.0193   2.0356   2.0549   2.0619   2.0727   2.1220   2.1385
     2.1929   2.2435   2.2518   2.3138   2.3151   2.3258   2.3473   2.4430
     2.5200   2.5212   2.5451   2.5891   2.9725   2.9794   3.0816   3.0891
     4.0274   4.0551   4.4600   4.4825   4.5335   4.6500   5.6359   6.2022
     6.2072   6.6729   6.8342   7.1546   7.4464   7.4556   7.4930   7.8617
     8.0422   8.0825   8.1379   8.3439   8.4224   8.5113   8.6165   8.6591
     8.6864   8.7756   8.8703   8.9336   8.9588   9.0555   9.1007   9.1291
     9.2416   9.3094   9.3214   9.3948   9.4273   9.5168   9.5779   9.6079
     9.6388   9.6921

          k = 0.1250-1.0472 0.0000 ( 69634 PWs)   bands (ev):

   -38.0119 -37.8450 -35.6454 -35.4496 -23.0980 -22.8664 -22.6458 -22.6333
   -22.5632 -22.5514 -22.4033 -22.2898 -18.6740 -18.5148 -18.3489 -18.2135
   -18.1934 -18.0200 -17.0778 -16.8907 -16.8494 -16.7855 -16.6673 -16.5620
   -14.8526 -14.8164 -14.6364 -14.5783 -14.5223 -14.4839 -14.4622 -14.4583
   -14.4068 -14.3866 -14.3300 -14.3226 -14.2793 -14.1869 -14.1658 -14.1274
   -14.0797 -13.9725 -13.9420 -13.9208 -13.8828 -13.8808 -13.8692 -13.8657
   -13.8396 -13.8355 -13.8197 -13.7805 -13.5941 -13.5755  -9.0291  -8.7596
    -8.7474  -8.6667  -8.4737  -8.4653  -8.4541  -8.4361  -8.2792  -8.1552
    -8.1118  -8.0225  -8.0079  -7.9724  -7.9606  -7.9484  -7.9348  -7.8687
    -7.7943  -7.7205  -7.6550  -7.5815  -7.5701  -7.2836  -4.1289  -4.0433
    -3.6797  -3.4304  -3.3779  -3.3454  -3.3341  -3.2448  -3.0861  -3.0372
    -3.0326  -2.9708  -2.9694  -2.8948  -2.5679  -2.5567  -2.3881  -2.3879
    -2.3076  -2.2245  -2.1750  -2.1721  -2.0715  -2.0684  -1.9420  -1.9084
    -1.9064  -1.8753  -1.7846  -1.7664  -1.7638  -1.5302  -1.5187  -1.4711
    -1.3697  -1.3008  -1.2923  -1.2222  -1.2093  -1.1563  -1.1370  -1.0906
    -1.0830  -1.0424  -1.0115  -0.9976  -0.9935  -0.9733  -0.9377  -0.9277
    -0.8869  -0.8577  -0.8259  -0.7726  -0.7687  -0.7550  -0.7371  -0.7348
    -0.6664  -0.6420  -0.6382  -0.6280  -0.5995  -0.5250  -0.4047  -0.3297
    -0.3161  -0.2866  -0.1327  -0.1319  -0.0992   0.0582   0.0829   0.1396
     0.1976   0.2373   0.2438   0.2740   0.2966   0.3611   0.3687   0.4469
     0.4611   0.5848   0.6972   0.7088   0.7825   0.7970   0.9131   0.9135
     0.9839   0.9912   1.0152   1.0976   1.1311   1.1586   1.2688   1.2722
     1.3027   1.3402   1.3423   1.4057   1.4128   1.4551   1.4646   1.4704
     1.4709   1.4787   1.4976   1.5226   1.5905   1.6138   1.6468   1.6593
     1.7007   1.7781   1.8065   1.8243   1.8454   1.8735   1.8771   1.9034
     1.9078   1.9614   1.9785   2.0140   2.0142   2.0311   2.0405   2.0819
     2.0911   2.1107   2.1975   2.2136   2.2232   2.2348   2.2551   2.2624
     2.2807   2.2883   2.3667   2.3722   2.4173   2.4441   2.5027   2.5149
     2.5156   2.5462   2.6848   2.6860   2.7400   2.7508   2.9178   2.9264
     4.0630   4.1267   4.6521   4.6802   4.7273   4.8353   5.5479   5.9756
     5.9807   6.5403   6.7259   7.2251   7.6680   7.7936   7.7989   8.0079
     8.0510   8.1251   8.2839   8.3053   8.3776   8.5259   8.6546   8.9019
     8.9413   9.0069   9.0477   9.1312   9.1527   9.1777   9.2825   9.3097
     9.3261   9.3458   9.3980   9.4615   9.5022   9.5248   9.5642   9.6922
     9.7285   9.8896

          k = 0.2500 0.0000 0.0000 ( 69591 PWs)   bands (ev):

   -38.0303 -37.8635 -35.6570 -35.4613 -23.2318 -22.9969 -22.8055 -22.7931
   -22.7125 -22.7006 -22.5594 -22.4329 -18.5031 -18.3902 -18.3112 -18.2349
   -18.0334 -17.8741 -17.0153 -16.9103 -16.7940 -16.7291 -16.6866 -16.5006
   -15.3157 -15.1721 -14.9370 -14.9076 -14.8902 -14.7890 -14.6496 -14.6344
   -14.5857 -14.5773 -14.5244 -14.4861 -14.4085 -14.3154 -14.2376 -14.0867
   -14.0803 -14.0210 -14.0090 -14.0004 -13.9991 -13.9897 -13.9853 -13.9079
   -13.8458 -13.7489 -13.6199 -13.5866 -13.5550 -13.4459  -8.5744  -8.3074
    -8.0677  -8.0527  -8.0397  -7.9864  -7.9638  -7.9510  -7.8690  -7.8474
    -7.8252  -7.8141  -7.7835  -7.7734  -7.7020  -7.6900  -7.6632  -7.6519
    -7.5315  -7.5197  -7.5150  -7.4168  -7.3858  -7.2556  -2.8544  -2.8305
    -2.6882  -2.4436  -2.1932  -2.1801  -2.1474  -2.1423  -2.0336  -2.0273
    -1.9552  -1.9443  -1.9174  -1.9056  -1.8475  -1.8321  -1.7287  -1.7065
    -1.6944  -1.6467  -1.6186  -1.5713  -1.4907  -1.4698  -1.4563  -1.4449
    -1.4045  -1.3101  -1.0846  -0.9630  -0.9486  -0.9333  -0.9266  -0.9231
    -0.9228  -0.9222  -0.9184  -0.9039  -0.8373  -0.7972  -0.7711  -0.7591
    -0.7198  -0.6468  -0.6397  -0.6213  -0.6210  -0.5650  -0.5591  -0.5035
    -0.4867  -0.3825  -0.3618  -0.3202  -0.3032  -0.2940  -0.2690  -0.2360
    -0.2198  -0.2149  -0.2028  -0.1884  -0.1326  -0.1227  -0.0597  -0.0512
     0.0138   0.0322   0.0337   0.0372   0.0551   0.0710   0.1056   0.1623
     0.1821   0.1963   0.2695   0.2712   0.2924   0.2930   0.3125   0.3134
     0.3252   0.3317   0.3449   0.3622   0.4156   0.4377   0.4566   0.5243
     0.5263   0.5580   0.5617   0.5654   0.5770   0.6214   0.6669   0.7356
     0.7385   0.7411   0.7753   0.8057   0.8970   0.9231   0.9798   1.0093
     1.0297   1.0303   1.0715   1.0848   1.0894   1.1340   1.1583   1.1929
     1.2220   1.2381   1.2997   1.3131   1.3342   1.3425   1.4158   1.4307
     1.4368   1.4940   1.4947   1.5554   1.5920   1.6083   1.6341   1.6342
     1.6915   1.7619   1.7903   1.8162   1.8511   1.8578   1.8793   1.8959
     1.9487   1.9494   1.9917   2.0496   2.0603   2.0673   2.0901   2.1384
     2.2389   2.2755   2.2761   2.2995   2.3081   2.3503   2.4481   2.5259
     2.6521   2.6580   2.6734   2.6818   2.8855   2.8943   5.4469   5.4648
     5.6359   6.1873   6.3091   6.3509   6.5736   6.5752   6.8700   6.9107
     6.9502   7.3820   7.4937   7.5663   7.7798   7.9780   8.0367   8.0473
     8.1520   8.1921   8.2007   8.2837   8.3379   8.3406   8.4634   8.5418
     8.5921   8.7543   8.8046   8.8456   8.9992   9.0531   9.1530   9.2167
     9.3086   9.4275

          k = 0.2500 0.2618 0.0000 ( 69600 PWs)   bands (ev):

   -38.0276 -37.8608 -35.6553 -35.4596 -23.2124 -22.9786 -22.7817 -22.7693
   -22.6925 -22.6806 -22.5365 -22.4133 -18.4646 -18.3831 -18.2724 -18.2278
   -18.1443 -17.9850 -16.9853 -16.9040 -16.7638 -16.7523 -16.7227 -16.5662
   -15.2121 -15.0763 -14.8866 -14.8588 -14.8269 -14.7394 -14.6055 -14.5906
   -14.5457 -14.5447 -14.5130 -14.4686 -14.3450 -14.2836 -14.1961 -14.0872
   -14.0757 -14.0612 -14.0215 -13.9927 -13.9862 -13.9840 -13.9793 -13.9397
   -13.8222 -13.7881 -13.6495 -13.6040 -13.5704 -13.4993  -8.5555  -8.2962
    -8.1702  -8.1291  -8.0622  -8.0478  -7.9914  -7.9791  -7.9380  -7.9261
    -7.8690  -7.8624  -7.8563  -7.8454  -7.8395  -7.7653  -7.6404  -7.6286
    -7.6255  -7.5974  -7.5858  -7.5842  -7.3533  -7.3303  -2.9492  -2.9099
    -2.7412  -2.4904  -2.3405  -2.3175  -2.2178  -2.1606  -2.1560  -2.0998
    -2.0817  -2.0097  -1.9844  -1.9643  -1.9380  -1.9268  -1.9071  -1.8966
    -1.8637  -1.8376  -1.8069  -1.7711  -1.6607  -1.6161  -1.5961  -1.5034
    -1.4103  -1.3700  -1.3625  -1.3482  -1.3460  -1.3230  -1.2400  -1.2007
    -1.1893  -1.1365  -1.0307  -0.9455  -0.9165  -0.8134  -0.7977  -0.7263
    -0.7228  -0.7095  -0.6760  -0.6390  -0.6362  -0.5761  -0.5461  -0.5186
    -0.5088  -0.4928  -0.4315  -0.4028  -0.3684  -0.3574  -0.3123  -0.2974
    -0.2519  -0.2456  -0.2229  -0.2167  -0.0933  -0.0776  -0.0742  -0.0186
    -0.0032   0.0250   0.0315   0.0624   0.0629   0.0710   0.1160   0.1405
     0.2006   0.2041   0.2153   0.2271   0.2549   0.3377   0.3645   0.3761
     0.3772   0.3881   0.4269   0.4336   0.4421   0.4630   0.4799   0.5018
     0.5216   0.5406   0.5795   0.6018   0.6301   0.6509   0.6904   0.7351
     0.8031   0.8901   0.9405   0.9479   0.9820   0.9891   1.0331   1.0505
     1.0933   1.1416   1.1734   1.1783   1.2039   1.2087   1.2273   1.2653
     1.2794   1.2878   1.2984   1.3140   1.3345   1.3856   1.3882   1.4245
     1.4783   1.4899   1.4970   1.5636   1.5902   1.6056   1.6629   1.6734
     1.7163   1.7221   1.7321   1.7658   1.7743   1.7857   1.8114   1.8372
     1.8387   1.8627   1.9584   2.0014   2.1130   2.1298   2.1823   2.2730
     2.3748   2.3898   2.5895   2.6937   2.8369   2.8522   2.9184   2.9331
     2.9993   3.0050   3.0447   3.0589   3.2101   3.2640   5.7736   5.8031
     5.8390   6.4310   6.4490   6.5625   6.7106   6.7132   7.1223   7.2152
     7.2415   7.5399   7.6017   7.6173   7.6905   7.9067   8.0313   8.1060
     8.1243   8.1338   8.3236   8.3947   8.4506   8.5246   8.6109   8.6705
     8.7514   8.7739   8.8068   8.9059   9.0192   9.0789   9.1433   9.1863
     9.2682   9.3133

          k = 0.2500 0.5236 0.0000 ( 69530 PWs)   bands (ev):

   -38.0211 -37.8543 -35.6512 -35.4555 -23.1649 -22.9338 -22.7233 -22.7107
   -22.6433 -22.6315 -22.4802 -22.3654 -18.3843 -18.3659 -18.3653 -18.2249
   -18.2105 -18.1728 -16.9117 -16.8959 -16.8884 -16.7143 -16.7065 -16.6848
   -14.9803 -14.8749 -14.7586 -14.7329 -14.6538 -14.6174 -14.6028 -14.5416
   -14.5104 -14.4463 -14.4371 -14.3775 -14.2511 -14.2140 -14.2084 -14.1118
   -14.0970 -14.0832 -14.0201 -14.0041 -13.9594 -13.9593 -13.9346 -13.9341
   -13.8071 -13.7718 -13.7393 -13.6491 -13.6248 -13.5903  -8.5509  -8.5039
    -8.3107  -8.3099  -8.2990  -8.2165  -8.1182  -8.0576  -8.0459  -8.0204
    -8.0108  -8.0059  -7.9577  -7.9453  -7.8768  -7.8691  -7.8652  -7.8160
    -7.7453  -7.7028  -7.6123  -7.6063  -7.6008  -7.3266  -3.3439  -3.2669
    -2.9841  -2.8252  -2.7918  -2.7261  -2.6272  -2.5445  -2.5022  -2.3890
    -2.3878  -2.3655  -2.2426  -2.2328  -2.2297  -2.1834  -2.1833  -2.0858
    -2.0515  -2.0494  -2.0291  -2.0280  -1.9423  -1.8950  -1.8626  -1.8327
    -1.7948  -1.7642  -1.7115  -1.5718  -1.5584  -1.5519  -1.4584  -1.3887
    -1.3751  -1.3518  -1.2178  -1.1696  -1.0022  -0.9627  -0.9409  -0.9057
    -0.8747  -0.8430  -0.8093  -0.7841  -0.7683  -0.7182  -0.7070  -0.6890
    -0.6407  -0.6087  -0.5879  -0.5493  -0.5350  -0.5137  -0.4620  -0.4452
    -0.4419  -0.4183  -0.3634  -0.3603  -0.3490  -0.3342  -0.3244  -0.2591
    -0.2461  -0.2044  -0.1692  -0.1480  -0.0740   0.0508   0.1471   0.1690
     0.1814   0.2459   0.2595   0.2765   0.2970   0.3709   0.4036   0.4462
     0.4624   0.5037   0.5445   0.5755   0.6286   0.6640   0.6966   0.7925
     0.8172   0.8221   0.8621   0.9275   0.9389   0.9466   0.9840   1.0397
     1.0536   1.1273   1.1416   1.1480   1.1629   1.1721   1.1868   1.1990
     1.2602   1.2998   1.3185   1.3410   1.3634   1.3995   1.4186   1.4329
     1.4618   1.4786   1.5049   1.5196   1.5276   1.5295   1.5580   1.5699
     1.5865   1.5960   1.6204   1.6570   1.6628   1.6819   1.7350   1.7468
     1.7647   1.8227   1.8234   1.8534   1.8894   1.8993   1.9095   1.9433
     1.9835   2.0506   2.0837   2.0941   2.0951   2.1826   2.2253   2.3360
     2.5890   2.6113   2.8291   2.9229   3.1291   3.1329   3.1718   3.1826
     3.6891   3.7186   3.7516   3.7680   3.8861   4.0007   5.9551   6.6143
     6.6160   6.7022   6.7096   6.7658   7.0893   7.1121   7.1437   7.2346
     7.7666   7.8149   7.8706   8.0434   8.0614   8.1513   8.2162   8.4127
     8.4217   8.4477   8.4785   8.5042   8.6188   8.7819   8.8090   8.8328
     8.9371   9.0144   9.0727   9.1189   9.1507   9.2887   9.3381   9.3712
     9.3923   9.4619

          k = 0.2500 0.7854 0.0000 ( 69586 PWs)   bands (ev):

   -38.0146 -37.8477 -35.6471 -35.4513 -23.1164 -22.8880 -22.6631 -22.6505
   -22.5929 -22.5811 -22.4223 -22.3163 -18.5933 -18.4342 -18.3488 -18.2595
   -18.1934 -18.0661 -17.0273 -16.8764 -16.8404 -16.8266 -16.6946 -16.6035
   -14.8014 -14.7666 -14.6546 -14.6135 -14.5875 -14.5270 -14.4985 -14.4527
   -14.4351 -14.4123 -14.3685 -14.3436 -14.2915 -14.2056 -14.1683 -14.1561
   -14.0866 -14.0062 -13.9923 -13.9400 -13.9132 -13.9101 -13.8882 -13.8860
   -13.8630 -13.7867 -13.7781 -13.7522 -13.6352 -13.6024  -8.8402  -8.5869
    -8.5749  -8.4777  -8.4533  -8.3377  -8.2929  -8.2258  -8.2144  -8.1495
    -8.0840  -8.0722  -8.0043  -7.9901  -7.9611  -7.9557  -7.9462  -7.8626
    -7.8428  -7.7930  -7.6703  -7.6614  -7.6500  -7.3644  -3.8252  -3.7424
    -3.3984  -3.2518  -3.2166  -3.1521  -3.1412  -3.0420  -2.9641  -2.7973
    -2.7926  -2.7675  -2.7473  -2.7462  -2.4979  -2.4859  -2.3301  -2.1780
    -2.1629  -2.1585  -2.1575  -2.0886  -2.0776  -2.0689  -1.9535  -1.9032
    -1.8134  -1.7627  -1.7590  -1.7399  -1.6664  -1.6336  -1.5872  -1.5516
    -1.4834  -1.4496  -1.3171  -1.2581  -1.1864  -1.1450  -1.1357  -1.0824
    -1.0308  -1.0287  -1.0229  -0.9867  -0.9623  -0.9170  -0.9009  -0.8776
    -0.8026  -0.7102  -0.7025  -0.6993  -0.6735  -0.6684  -0.6444  -0.6365
    -0.6090  -0.5827  -0.5529  -0.5500  -0.5316  -0.4654  -0.4325  -0.3385
    -0.3234  -0.2960  -0.1986  -0.1960  -0.0649   0.0132   0.1183   0.1724
     0.2428   0.3149   0.3161   0.3540   0.3661   0.3936   0.4073   0.4424
     0.5087   0.5154   0.6513   0.7188   0.7545   0.7653   0.9171   0.9775
     1.0156   1.0430   1.0475   1.0590   1.0753   1.1347   1.1534   1.2058
     1.2218   1.2553   1.2765   1.2921   1.2964   1.3297   1.3758   1.3920
     1.4295   1.4545   1.4951   1.5037   1.5363   1.5415   1.5702   1.6012
     1.6121   1.6474   1.6778   1.6972   1.7470   1.7650   1.7770   1.8057
     1.8254   1.8403   1.8484   1.8632   1.8759   1.8962   1.9270   1.9429
     1.9552   1.9843   1.9987   2.0315   2.0438   2.0826   2.0910   2.1294
     2.1559   2.2552   2.3204   2.3397   2.3399   2.4867   2.4971   2.4978
     2.5750   2.6033   2.8013   2.8751   2.9793   2.9850   3.1187   3.1380
     4.0259   4.0703   4.2713   4.2953   4.3631   4.4796   5.7619   6.3585
     6.3629   6.7607   6.8951   7.0348   7.3415   7.3489   7.4961   7.8131
     7.9312   7.9947   8.1540   8.2421   8.3131   8.4970   8.6179   8.6579
     8.6976   8.7913   8.8694   8.9747   9.0049   9.1000   9.2077   9.2424
     9.2844   9.3010   9.3894   9.4341   9.5023   9.5147   9.5480   9.5881
     9.6470   9.7353

          k = 0.2500-1.0472 0.0000 ( 69548 PWs)   bands (ev):

   -38.0119 -37.8450 -35.6454 -35.4496 -23.0960 -22.8686 -22.6377 -22.6251
   -22.5717 -22.5599 -22.3979 -22.2955 -18.6739 -18.5147 -18.3416 -18.2123
   -18.1863 -18.0188 -17.0778 -16.8907 -16.8711 -16.7903 -16.6891 -16.5671
   -14.8202 -14.7828 -14.5854 -14.5719 -14.5185 -14.4949 -14.4667 -14.4492
   -14.3961 -14.3631 -14.3230 -14.3224 -14.2778 -14.1793 -14.1585 -14.1463
   -14.1292 -13.9792 -13.9460 -13.9390 -13.8828 -13.8813 -13.8806 -13.8688
   -13.8682 -13.8392 -13.8074 -13.7654 -13.6236 -13.5931  -8.9425  -8.6728
    -8.6606  -8.5870  -8.4347  -8.3911  -8.3765  -8.3680  -8.3653  -8.1478
    -8.0706  -8.0588  -8.0517  -8.0121  -7.9979  -7.9570  -7.9435  -7.9009
    -7.8519  -7.8113  -7.7018  -7.6904  -7.6559  -7.3910  -4.0238  -3.9421
    -3.5866  -3.4166  -3.3820  -3.3516  -3.3384  -3.2489  -3.1195  -3.0304
    -3.0264  -2.9784  -2.9771  -2.9223  -2.5147  -2.5027  -2.3383  -2.3105
    -2.2266  -2.1821  -2.1801  -2.1622  -2.0718  -2.0677  -1.9590  -1.9038
    -1.8676  -1.8207  -1.7502  -1.7225  -1.6859  -1.6073  -1.5772  -1.5451
    -1.5444  -1.5098  -1.4245  -1.3681  -1.2677  -1.2421  -1.1935  -1.1798
    -1.1588  -1.1000  -1.0903  -1.0518  -1.0472  -1.0125  -0.9201  -0.8829
    -0.8466  -0.7880  -0.7822  -0.7728  -0.7622  -0.7515  -0.7220  -0.6917
    -0.6811  -0.6436  -0.6415  -0.6159  -0.5919  -0.4843  -0.4025  -0.3358
    -0.3124  -0.2707  -0.1754  -0.1743  -0.0791   0.0081   0.1121   0.1764
     0.2646   0.2855   0.3298   0.3860   0.3905   0.3959   0.4039   0.4264
     0.4431   0.5205   0.6718   0.7653   0.8214   0.8314   0.9256   1.0460
     1.0464   1.0639   1.0742   1.0982   1.1021   1.1616   1.2131   1.2774
     1.2853   1.3114   1.3310   1.3550   1.3760   1.3897   1.4569   1.4656
     1.4682   1.4927   1.5233   1.5570   1.5946   1.6045   1.6310   1.6534
     1.6705   1.7170   1.7388   1.8033   1.8143   1.8233   1.8484   1.8887
     1.8991   1.9182   1.9548   1.9763   1.9991   2.0005   2.0356   2.0973
     2.1337   2.1935   2.2034   2.2244   2.2483   2.2496   2.2712   2.2731
     2.3095   2.3124   2.4194   2.4846   2.5040   2.5225   2.5340   2.5349
     2.6644   2.6655   2.6699   2.7341   2.7599   2.7651   2.9989   3.0266
     4.0612   4.1640   4.4244   4.4522   4.5157   4.6261   5.6695   6.1683
     6.1724   6.6390   6.7936   7.0205   7.5452   7.5486   7.7300   7.8310
     8.0009   8.0226   8.1568   8.2220   8.3275   8.5556   8.7563   8.8246
     9.0532   9.1016   9.1438   9.2175   9.2838   9.3173   9.3176   9.3628
     9.3703   9.4653   9.5108   9.5586   9.5919   9.6190   9.6782   9.7102
     9.7797   9.8000

          k = 0.3750 0.0000 0.0000 ( 69652 PWs)   bands (ev):

   -38.0303 -37.8635 -35.6570 -35.4613 -23.2281 -23.0011 -22.7874 -22.7747
   -22.7314 -22.7197 -22.5490 -22.4439 -18.5014 -18.3822 -18.3094 -18.2271
   -18.0334 -17.8741 -17.0223 -16.9379 -16.8015 -16.7571 -16.6866 -16.5006
   -15.2207 -15.0832 -14.9123 -14.8749 -14.8638 -14.8065 -14.7174 -14.6479
   -14.6276 -14.5862 -14.5678 -14.5078 -14.4025 -14.3372 -14.2109 -14.0760
   -14.0716 -14.0126 -14.0122 -14.0064 -14.0060 -13.9923 -13.9911 -13.9172
   -13.7937 -13.7481 -13.6593 -13.5920 -13.5542 -13.4719  -8.5819  -8.3228
    -8.0718  -8.0568  -8.0082  -7.9707  -7.9695  -7.9567  -7.8835  -7.8502
    -7.8006  -7.7852  -7.7843  -7.7741  -7.6919  -7.6805  -7.6671  -7.6548
    -7.5690  -7.5574  -7.4795  -7.3971  -7.3861  -7.2885  -2.6992  -2.6758
    -2.5489  -2.3241  -2.3181  -2.2826  -2.1752  -2.1184  -2.1179  -2.0238
    -2.0082  -1.9960  -1.9472  -1.9231  -1.8921  -1.8284  -1.8237  -1.7137
    -1.7085  -1.6439  -1.6334  -1.6074  -1.5016  -1.4781  -1.4591  -1.4225
    -1.3510  -1.3482  -1.0194  -0.9555  -0.9230  -0.9209  -0.9194  -0.9173
    -0.9168  -0.8987  -0.8317  -0.8287  -0.8132  -0.8067  -0.7694  -0.7416
    -0.7081  -0.6674  -0.6642  -0.5757  -0.5345  -0.5344  -0.5339  -0.4991
    -0.4551  -0.4201  -0.4135  -0.4057  -0.3504  -0.3364  -0.3239  -0.3015
    -0.3014  -0.2163  -0.1934  -0.1775  -0.1770  -0.1314  -0.1206  -0.0391
    -0.0192   0.0082   0.0159   0.0229   0.0241   0.0749   0.0899   0.1449
     0.1963   0.2317   0.2759   0.2778   0.2853   0.2897   0.2907   0.2919
     0.3651   0.3871   0.3945   0.3962   0.4028   0.4725   0.4881   0.5223
     0.5261   0.5297   0.5517   0.6033   0.6076   0.6163   0.7087   0.7181
     0.7529   0.7691   0.8230   0.8550   0.8838   0.9166   0.9174   0.9588
     0.9782   0.9888   1.0069   1.0208   1.0794   1.1323   1.1527   1.2034
     1.2036   1.2283   1.2934   1.3260   1.3492   1.3892   1.3960   1.4099
     1.4209   1.4919   1.5101   1.5438   1.5793   1.5895   1.6030   1.6267
     1.7165   1.7370   1.7457   1.8111   1.8371   1.8803   1.8865   1.9058
     1.9661   1.9677   2.0002   2.0022   2.0133   2.0206   2.1025   2.1744
     2.2166   2.2435   2.2768   2.2903   2.3289   2.4703   2.4998   2.5480
     2.6477   2.6796   2.7047   2.7070   2.8474   2.8491   5.6623   5.6685
     5.8157   6.2263   6.2278   6.3193   6.4214   6.5484   7.0211   7.1541
     7.1857   7.2491   7.3006   7.4607   7.6887   7.8703   7.8821   8.0274
     8.0802   8.2035   8.2118   8.3432   8.3495   8.4563   8.5183   8.5769
     8.6090   8.7296   8.9275   8.9762   9.0983   9.1328   9.1573   9.2040
     9.2784   9.3041

          k = 0.3750 0.2618 0.0000 ( 69622 PWs)   bands (ev):

   -38.0276 -37.8608 -35.6553 -35.4596 -23.2089 -22.9826 -22.7646 -22.7519
   -22.7103 -22.6987 -22.5267 -22.4237 -18.4629 -18.3752 -18.2706 -18.2200
   -18.1443 -17.9850 -16.9920 -16.9304 -16.7708 -16.7522 -16.7494 -16.5660
   -15.1179 -14.9910 -14.8627 -14.8312 -14.8037 -14.7543 -14.6544 -14.6239
   -14.5855 -14.5557 -14.5372 -14.4848 -14.3503 -14.2992 -14.1721 -14.0787
   -14.0781 -14.0663 -14.0223 -13.9938 -13.9911 -13.9911 -13.9801 -13.9433
   -13.7877 -13.7801 -13.6839 -13.6059 -13.5675 -13.5139  -8.5599  -8.3216
    -8.1992  -8.1472  -8.0721  -8.0581  -8.0168  -8.0048  -7.9646  -7.9523
    -7.8821  -7.8752  -7.8687  -7.8260  -7.8041  -7.7863  -7.6387  -7.6151
    -7.5881  -7.5765  -7.5569  -7.5454  -7.3107  -7.2860  -2.7902  -2.7509
    -2.5934  -2.4352  -2.4064  -2.3363  -2.2788  -2.1441  -2.1333  -2.1228
    -2.1017  -2.0260  -2.0130  -2.0095  -1.9874  -1.9779  -1.9386  -1.9263
    -1.8914  -1.8526  -1.8371  -1.8026  -1.7694  -1.6863  -1.5906  -1.5029
    -1.3792  -1.3639  -1.3559  -1.3521  -1.3506  -1.2945  -1.1702  -1.1156
    -1.0866  -1.0651  -1.0076  -0.9171  -0.8646  -0.8376  -0.8156  -0.7909
    -0.7630  -0.7436  -0.7165  -0.6866  -0.6775  -0.6295  -0.6249  -0.5511
    -0.5315  -0.4902  -0.4859  -0.4475  -0.3994  -0.3765  -0.3676  -0.3292
    -0.2514  -0.2224  -0.2090  -0.1859  -0.0996  -0.0674  -0.0573  -0.0455
    -0.0234   0.0008   0.0108   0.0433   0.0514   0.1003   0.1022   0.1715
     0.1778   0.1889   0.2050   0.2350   0.2448   0.3067   0.3721   0.3986
     0.4178   0.4207   0.4279   0.4371   0.4529   0.4763   0.5085   0.5229
     0.5526   0.5612   0.5688   0.5846   0.6089   0.6868   0.7171   0.7502
     0.7739   0.8935   0.9296   0.9710   0.9975   1.0125   1.0415   1.0591
     1.0864   1.1041   1.1463   1.1623   1.1723   1.1907   1.2257   1.2371
     1.2701   1.2862   1.2992   1.3211   1.3352   1.3525   1.3689   1.4179
     1.5165   1.5282   1.5527   1.5600   1.5923   1.6026   1.6384   1.6573
     1.6673   1.6802   1.6883   1.7174   1.7617   1.7985   1.8017   1.8212
     1.8350   1.8386   1.8866   2.0322   2.0834   2.1480   2.2199   2.2836
     2.5481   2.5710   2.7620   2.8077   2.8241   2.9032   2.9345   2.9469
     2.9834   3.0158   3.0186   3.0415   3.1477   3.2121   5.9279   5.9686
     5.9754   6.4316   6.4334   6.4795   6.6197   6.7349   7.2722   7.3262
     7.3935   7.4713   7.4906   7.6793   7.7346   7.8716   7.9780   8.0934
     8.1000   8.1163   8.3492   8.4101   8.4965   8.5298   8.6003   8.6510
     8.6942   8.7627   8.7908   8.8419   8.9706   9.0675   9.2083   9.2588
     9.2616   9.3016

          k = 0.3750 0.5236 0.0000 ( 69533 PWs)   bands (ev):

   -38.0211 -37.8543 -35.6512 -35.4555 -23.1620 -22.9370 -22.7084 -22.6957
   -22.6586 -22.6470 -22.4719 -22.3741 -18.3842 -18.3639 -18.3582 -18.2248
   -18.2030 -18.1713 -16.9173 -16.9134 -16.8950 -16.7328 -16.7126 -16.6905
   -14.8935 -14.8075 -14.7509 -14.7276 -14.6411 -14.6150 -14.6066 -14.5313
   -14.4980 -14.4642 -14.4471 -14.4439 -14.2335 -14.2209 -14.2174 -14.1356
   -14.1238 -14.0832 -14.0564 -13.9877 -13.9566 -13.9550 -13.9392 -13.9381
   -13.7990 -13.7700 -13.7404 -13.6512 -13.6260 -13.5847  -8.5438  -8.5041
    -8.4114  -8.3089  -8.2971  -8.2146  -8.1713  -8.1597  -8.0411  -8.0196
    -8.0051  -7.9889  -7.9523  -7.9400  -7.8868  -7.8750  -7.7809  -7.7659
    -7.7543  -7.7018  -7.6152  -7.6036  -7.5012  -7.3296  -3.1988  -3.1234
    -2.9058  -2.8536  -2.8372  -2.6483  -2.5902  -2.5492  -2.5068  -2.4098
    -2.3554  -2.3390  -2.2496  -2.2418  -2.2121  -2.1763  -2.1744  -2.0880
    -2.0855  -2.0411  -2.0301  -2.0219  -2.0207  -1.9655  -1.9517  -1.8903
    -1.8552  -1.7458  -1.6340  -1.5642  -1.5318  -1.4786  -1.4303  -1.3787
    -1.3651  -1.2961  -1.2718  -1.2082  -1.1690  -1.1461  -1.0535  -0.9608
    -0.9416  -0.9051  -0.8636  -0.8190  -0.8152  -0.7446  -0.7056  -0.6901
    -0.6834  -0.6215  -0.6153  -0.5686  -0.5235  -0.4866  -0.4544  -0.4316
    -0.4202  -0.4144  -0.3766  -0.3703  -0.3670  -0.3317  -0.3176  -0.2343
    -0.2132  -0.1969  -0.1509  -0.1345  -0.0918  -0.0275   0.0357   0.1241
     0.1750   0.2185   0.2373   0.2656   0.3688   0.4234   0.4546   0.4866
     0.5417   0.5473   0.5634   0.5912   0.6309   0.6707   0.7032   0.7724
     0.8464   0.8714   0.8966   0.9493   0.9651   0.9728   0.9956   1.0321
     1.0682   1.0716   1.1101   1.1260   1.1299   1.1337   1.1491   1.1678
     1.2267   1.2808   1.2901   1.3552   1.3772   1.4031   1.4189   1.4239
     1.4747   1.4773   1.5099   1.5485   1.5535   1.5794   1.5842   1.5899
     1.6054   1.6265   1.6281   1.6590   1.6749   1.7000   1.7035   1.7247
     1.7359   1.7435   1.8125   1.8379   1.8658   1.8899   1.8995   1.9539
     1.9616   2.0212   2.0490   2.0546   2.1074   2.1944   2.2741   2.4022
     2.9367   2.9555   3.0924   3.1297   3.1352   3.1484   3.2277   3.3101
     3.5617   3.5909   3.6917   3.7025   3.7496   3.8430   6.0556   6.6625
     6.6656   6.7162   6.7225   6.8050   7.1721   7.1942   7.2407   7.2851
     7.6566   7.6958   7.9435   8.1123   8.1374   8.2227   8.2346   8.3056
     8.3733   8.4070   8.4127   8.5802   8.6455   8.7820   8.7893   8.8641
     8.9815   9.0495   9.0776   9.1055   9.1727   9.1851   9.2343   9.3085
     9.3597   9.4178

          k = 0.3750 0.7854 0.0000 ( 69590 PWs)   bands (ev):

   -38.0146 -37.8477 -35.6471 -35.4513 -23.1141 -22.8905 -22.6509 -22.6381
   -22.6055 -22.5940 -22.4156 -22.3233 -18.5932 -18.4341 -18.3413 -18.2582
   -18.1860 -18.0648 -17.0272 -16.8986 -16.8404 -16.8317 -16.7169 -16.6089
   -14.7516 -14.7224 -14.6470 -14.6246 -14.5803 -14.4788 -14.4616 -14.4396
   -14.4339 -14.4084 -14.3648 -14.3276 -14.3084 -14.2680 -14.2016 -14.1610
   -14.0608 -14.0336 -14.0056 -14.0014 -13.9083 -13.9047 -13.8931 -13.8905
   -13.8469 -13.7943 -13.7718 -13.7356 -13.6646 -13.6043  -8.7569  -8.5169
    -8.5055  -8.4936  -8.4437  -8.3210  -8.2331  -8.2287  -8.2214  -8.1316
    -8.0805  -8.0690  -8.0064  -7.9952  -7.9809  -7.9658  -7.9531  -7.9288
    -7.8483  -7.7699  -7.7660  -7.7549  -7.6712  -7.4580  -3.6840  -3.6070
    -3.3342  -3.2888  -3.2747  -3.1406  -3.0558  -3.0297  -3.0114  -2.8154
    -2.7820  -2.7800  -2.7576  -2.7568  -2.4186  -2.4056  -2.2538  -2.1985
    -2.1909  -2.0715  -2.0662  -2.0507  -2.0365  -2.0112  -1.9478  -1.9238
    -1.9084  -1.8957  -1.8269  -1.7244  -1.6757  -1.6360  -1.5689  -1.5504
    -1.5278  -1.5162  -1.4810  -1.4633  -1.3506  -1.2496  -1.2443  -1.1791
    -1.0947  -1.0475  -1.0443  -1.0200  -0.9785  -0.9286  -0.8472  -0.8034
    -0.7746  -0.7114  -0.6785  -0.6669  -0.6586  -0.6483  -0.6397  -0.6264
    -0.6048  -0.5792  -0.5509  -0.5464  -0.5225  -0.4280  -0.3874  -0.3498
    -0.3292  -0.3041  -0.2461  -0.2338  -0.1531  -0.0276   0.0370   0.1879
     0.2163   0.2809   0.2979   0.3689   0.4273   0.4495   0.5561   0.5705
     0.5982   0.6327   0.6641   0.6657   0.7616   0.8769   0.9069   0.9591
     1.0344   1.0485   1.0674   1.0783   1.0994   1.1370   1.1750   1.2038
     1.2052   1.2300   1.2754   1.3029   1.3323   1.3526   1.4049   1.4355
     1.4549   1.4563   1.4945   1.5077   1.5268   1.5312   1.5404   1.5578
     1.5782   1.6085   1.6595   1.7014   1.7160   1.7202   1.7669   1.7813
     1.7964   1.8141   1.8368   1.8563   1.8713   1.8762   1.8839   1.8985
     1.9253   1.9480   1.9574   2.0107   2.0463   2.0558   2.0820   2.1213
     2.1419   2.1911   2.2877   2.3765   2.3770   2.4622   2.4629   2.4958
     2.9196   2.9230   2.9859   2.9904   3.1062   3.1632   3.3382   3.4215
     3.9408   3.9885   4.0405   4.0773   4.1065   4.2024   5.9443   6.5898
     6.5935   6.7320   6.9124   7.0282   7.1524   7.1578   7.5242   7.7101
     7.7468   7.9431   8.1463   8.2206   8.2871   8.4986   8.6196   8.6955
     8.7226   8.7731   8.8291   8.9379   8.9490   9.1665   9.2421   9.3196
     9.4074   9.4184   9.4816   9.5031   9.5472   9.6081   9.6395   9.7140
     9.7393   9.8217

          k = 0.3750-1.0472 0.0000 ( 69570 PWs)   bands (ev):

   -38.0118 -37.8450 -35.6454 -35.4496 -23.0940 -22.8709 -22.6266 -22.6137
   -22.5831 -22.5715 -22.3918 -22.3019 -18.6738 -18.5146 -18.3342 -18.2111
   -18.1790 -18.0176 -17.0778 -16.8925 -16.8908 -16.7951 -16.7108 -16.5721
   -14.7715 -14.7306 -14.6264 -14.5885 -14.5076 -14.4867 -14.4058 -14.3995
   -14.3882 -14.3411 -14.3236 -14.3207 -14.2763 -14.2007 -14.1972 -14.1740
   -14.1176 -14.0188 -13.9603 -13.9292 -13.9170 -13.8801 -13.8786 -13.8731
   -13.8715 -13.8562 -13.7827 -13.7462 -13.6632 -13.6135  -8.8131  -8.5413
    -8.5292  -8.5011  -8.4732  -8.4329  -8.2663  -8.2384  -8.2271  -8.2133
    -8.2015  -8.1423  -8.0761  -7.9973  -7.9832  -7.9725  -7.9593  -7.9426
    -7.8889  -7.8686  -7.8609  -7.8570  -7.6595  -7.5350  -3.8812  -3.8064
    -3.4993  -3.4658  -3.4563  -3.3485  -3.2613  -3.2212  -3.1750  -3.0208
    -3.0157  -2.9899  -2.9887  -2.9676  -2.4233  -2.4106  -2.2472  -2.1982
    -2.1949  -2.1903  -2.1022  -2.0698  -2.0613  -2.0304  -1.9964  -1.8965
    -1.8472  -1.8431  -1.8121  -1.7826  -1.7767  -1.7532  -1.6769  -1.6463
    -1.6023  -1.5264  -1.5183  -1.5061  -1.4671  -1.3957  -1.2921  -1.2356
    -1.1548  -1.0993  -1.0920  -1.0874  -1.0798  -1.0294  -0.8421  -0.8040
    -0.7966  -0.7795  -0.7704  -0.7364  -0.7091  -0.7049  -0.6982  -0.6921
    -0.6523  -0.6522  -0.6371  -0.6152  -0.5607  -0.4360  -0.3992  -0.3692
    -0.3367  -0.2778  -0.2438  -0.2363  -0.1728  -0.0404   0.0507   0.2046
     0.2406   0.3037   0.3300   0.4088   0.4603   0.4648   0.4994   0.5895
     0.6151   0.6300   0.6716   0.6980   0.8610   0.9418   1.0102   1.0565
     1.1016   1.1347   1.1459   1.1663   1.1760   1.1937   1.2150   1.2296
     1.2564   1.2851   1.3046   1.3163   1.3216   1.3760   1.4547   1.4649
     1.4686   1.4869   1.5072   1.5123   1.5453   1.5809   1.6279   1.6339
     1.6754   1.6873   1.7028   1.7108   1.7388   1.7783   1.7874   1.8269
[...]
    -2.5725  -2.5603  -2.4566  -2.3814  -2.2109  -2.1549  -2.1306  -2.1070
    -2.0929  -2.0861  -2.0448  -2.0322  -2.0245  -2.0028  -1.9412  -1.9281
    -1.8983  -1.8504  -1.8485  -1.8360  -1.8123  -1.6961  -1.5883  -1.4997
    -1.3663  -1.3602  -1.3554  -1.3547  -1.3508  -1.2808  -1.1439  -1.0992
    -1.0071  -0.9826  -0.9578  -0.8935  -0.8758  -0.8712  -0.8552  -0.8305
    -0.7884  -0.7736  -0.7342  -0.7214  -0.7069  -0.6408  -0.6302  -0.6071
    -0.5468  -0.5130  -0.4823  -0.4389  -0.4005  -0.3918  -0.3654  -0.3587
    -0.2633  -0.2185  -0.1744  -0.1432  -0.1264  -0.1184  -0.0492  -0.0276
    -0.0261  -0.0140  -0.0009  -0.0001   0.0560   0.1120   0.1170   0.1708
     0.1764   0.1817   0.1998   0.2346   0.2547   0.3137   0.3804   0.4077
     0.4180   0.4333   0.4359   0.4521   0.4820   0.5057   0.5074   0.5118
     0.5308   0.5484   0.5707   0.5756   0.6272   0.7118   0.7131   0.7704
     0.7806   0.8977   0.9026   0.9806   1.0033   1.0147   1.0390   1.0563
     1.0873   1.0953   1.1233   1.1336   1.1615   1.1713   1.1934   1.2086
     1.2778   1.2882   1.3172   1.3348   1.3412   1.3699   1.4153   1.4771
     1.4806   1.5233   1.5586   1.6019   1.6031   1.6168   1.6245   1.6273
     1.6344   1.6532   1.6646   1.7013   1.7276   1.7730   1.8071   1.8236
     1.8312   1.8397   1.8544   2.0639   2.0749   2.1500   2.2308   2.2761
     2.6462   2.6697   2.7611   2.7907   2.8787   2.9519   2.9587   2.9663
     2.9908   2.9983   3.0242   3.0641   3.0815   3.1509   5.9961   6.1726
     6.1736   6.1900   6.1916   6.4862   6.7445   6.8704   7.1849   7.2182
     7.4240   7.5837   7.7551   7.7742   7.7863   7.8076   7.8254   7.8427
     8.0306   8.2154   8.2543   8.4496   8.4721   8.4801   8.6477   8.6857
     8.6967   8.7987   8.8194   8.9086   8.9705   9.0045   9.1131   9.2048
     9.2508   9.2671

          k =-0.5000 0.5236 0.0000 ( 69550 PWs)   bands (ev):

   -38.0211 -37.8543 -35.6512 -35.4555 -23.1608 -22.9384 -22.6983 -22.6852
   -22.6689 -22.6578 -22.4680 -22.3782 -18.3842 -18.3633 -18.3550 -18.2248
   -18.1999 -18.1706 -16.9237 -16.9190 -16.8953 -16.7425 -16.7131 -16.6928
   -14.8377 -14.7680 -14.7618 -14.7344 -14.6295 -14.6237 -14.6026 -14.5227
   -14.5215 -14.4742 -14.4560 -14.4496 -14.2228 -14.2194 -14.2172 -14.1485
   -14.1477 -14.0785 -14.0725 -13.9804 -13.9547 -13.9542 -13.9412 -13.9400
   -13.7965 -13.7694 -13.7407 -13.6524 -13.6264 -13.5825  -8.5057  -8.4969
    -8.4927  -8.2749  -8.2630  -8.2458  -8.2343  -8.2139  -8.0191  -8.0045
    -7.9866  -7.9597  -7.9532  -7.9517  -7.9394  -7.8890  -7.7866  -7.7023
    -7.6758  -7.6650  -7.6644  -7.6532  -7.4399  -7.3538  -3.0740  -2.9966
    -2.9958  -2.9454  -2.7232  -2.7067  -2.5545  -2.5101  -2.4836  -2.4550
    -2.3187  -2.3073  -2.2785  -2.2642  -2.1693  -2.1551  -2.1437  -2.1434
    -2.1368  -2.1260  -2.0181  -2.0174  -1.9962  -1.9938  -1.9650  -1.9014
    -1.8867  -1.8479  -1.5173  -1.4523  -1.4380  -1.4216  -1.4055  -1.3957
    -1.3886  -1.3453  -1.3320  -1.2863  -1.2429  -1.1881  -1.1256  -1.0545
    -0.9590  -0.9327  -0.8947  -0.8452  -0.7899  -0.7084  -0.7058  -0.6858
    -0.6721  -0.6459  -0.6290  -0.6098  -0.5118  -0.4644  -0.4629  -0.4245
    -0.4025  -0.3995  -0.3922  -0.3890  -0.3735  -0.3245  -0.2705  -0.2499
    -0.2047  -0.1649  -0.1461  -0.1377  -0.1167  -0.1003   0.0121   0.0852
     0.1848   0.2016   0.2443   0.2573   0.4120   0.4836   0.4963   0.5060
     0.5112   0.5225   0.5921   0.6361   0.6369   0.6663   0.6881   0.7709
     0.8615   0.8939   0.9323   0.9578   0.9607   0.9955   1.0266   1.0363
     1.0538   1.0635   1.1011   1.1029   1.1110   1.1211   1.1239   1.1294
     1.2120   1.2431   1.3124   1.3386   1.3756   1.4020   1.4336   1.4341
     1.4924   1.4946   1.5153   1.5352   1.5636   1.5801   1.5901   1.5962
     1.6130   1.6268   1.6269   1.6535   1.6662   1.6691   1.6882   1.7526
     1.7693   1.7868   1.8012   1.8123   1.8314   1.8578   1.8921   1.9803
     1.9978   2.0073   2.0092   2.0126   2.1237   2.1972   2.2905   2.4249
     3.1005   3.1034   3.1302   3.1337   3.2801   3.3082   3.3325   3.3678
     3.4356   3.5188   3.5607   3.6437   3.6985   3.7309   6.1026   6.6887
     6.6947   6.7168   6.7205   6.8149   7.2355   7.2634   7.2739   7.3087
     7.5586   7.6160   8.0369   8.0540   8.1020   8.2477   8.3459   8.3564
     8.3641   8.3719   8.3898   8.5403   8.7668   8.7734   8.8212   8.9238
     8.9277   9.0096   9.0235   9.0693   9.1602   9.1981   9.2217   9.2873
     9.3362   9.3725

          k =-0.5000 0.7854 0.0000 ( 69602 PWs)   bands (ev):

   -38.0146 -37.8477 -35.6471 -35.4513 -23.1132 -22.8915 -22.6430 -22.6298
   -22.6135 -22.6023 -22.4125 -22.3266 -18.5932 -18.4341 -18.3381 -18.2577
   -18.1830 -18.0643 -17.0272 -16.9077 -16.8404 -16.8339 -16.7261 -16.6111
   -14.7100 -14.6840 -14.6781 -14.6668 -14.5335 -14.4630 -14.4365 -14.4332
   -14.4229 -14.4069 -14.3717 -14.3534 -14.3187 -14.2554 -14.2392 -14.1550
   -14.0438 -14.0358 -14.0318 -14.0305 -13.9046 -13.9003 -13.8967 -13.8946
   -13.8375 -13.8021 -13.7664 -13.7211 -13.6848 -13.6057  -8.6477  -8.6338
    -8.4511  -8.4016  -8.3893  -8.3630  -8.3516  -8.2516  -8.1757  -8.0982
    -8.0900  -8.0046  -7.9987  -7.9843  -7.9838  -7.9718  -7.9050  -7.9044
    -7.8933  -7.8930  -7.8520  -7.7014  -7.6537  -7.5380  -3.5862  -3.5143
    -3.4063  -3.3543  -3.1855  -3.1588  -3.0519  -3.0500  -2.9656  -2.8511
    -2.7698  -2.7698  -2.7694  -2.7689  -2.3389  -2.3274  -2.2585  -2.2435
    -2.1475  -2.1267  -2.0377  -2.0339  -2.0104  -2.0075  -1.9264  -1.9159
    -1.8807  -1.8726  -1.8335  -1.7898  -1.7544  -1.7009  -1.6644  -1.6387
    -1.5143  -1.4852  -1.4425  -1.4283  -1.4056  -1.3581  -1.3055  -1.2654
    -1.0875  -1.0663  -1.0496  -1.0162  -0.9607  -0.9484  -0.7966  -0.7615
    -0.7393  -0.7163  -0.6956  -0.6757  -0.6678  -0.6525  -0.6388  -0.6308
    -0.5951  -0.5844  -0.5522  -0.5489  -0.4703  -0.4061  -0.3522  -0.3476
    -0.3315  -0.3236  -0.2731  -0.2252  -0.2021  -0.1534   0.0945   0.1230
     0.2484   0.2645   0.3239   0.3248   0.5056   0.5252   0.5423   0.5686
     0.6325   0.6997   0.7103   0.7307   0.7777   0.7923   0.9431   0.9500
     1.0451   1.0577   1.0914   1.0971   1.1064   1.1285   1.1343   1.1448
     1.1728   1.2400   1.3393   1.3584   1.3716   1.3957   1.4168   1.4252
     1.4384   1.4406   1.4823   1.4838   1.5010   1.5380   1.5699   1.5940
     1.6039   1.6128   1.6499   1.6686   1.6781   1.7182   1.7280   1.7503
     1.7716   1.7833   1.8130   1.8324   1.8476   1.8506   1.8871   1.8894
     1.9213   1.9517   1.9627   2.0020   2.0332   2.0632   2.0751   2.1188
     2.1427   2.1698   2.2606   2.4145   2.4153   2.4250   2.4255   2.4940
     2.9669   2.9691   2.9913   2.9952   3.5237   3.5650   3.5692   3.6169
     3.7141   3.7294   3.8310   3.8338   4.0513   4.0915   6.0649   6.6008
     6.8369   6.8434   6.8612   6.8803   7.0272   7.1224   7.5060   7.6405
     7.6955   7.9167   8.1387   8.2247   8.2904   8.5010   8.6196   8.7432
     8.7677   8.7823   8.8054   8.8478   8.8622   9.1871   9.2886   9.3126
     9.4352   9.5391   9.6009   9.6045   9.6860   9.6920   9.6933   9.7776
     9.8061   9.8413

          k =-0.5000-1.0472 0.0000 ( 69548 PWs)   bands (ev):

   -38.0118 -37.8450 -35.6454 -35.4496 -23.0931 -22.8718 -22.6197 -22.6065
   -22.5901 -22.5789 -22.3890 -22.3048 -18.6737 -18.5146 -18.3311 -18.2107
   -18.1759 -18.0171 -17.0779 -16.9013 -16.8908 -16.7971 -16.7197 -16.5742
   -14.7318 -14.6752 -14.6678 -14.6505 -14.5067 -14.4323 -14.3859 -14.3850
   -14.3601 -14.3391 -14.3240 -14.3212 -14.2755 -14.2401 -14.2248 -14.1724
   -14.0952 -14.0461 -13.9662 -13.9571 -13.8868 -13.8815 -13.8772 -13.8763
   -13.8756 -13.8748 -13.7654 -13.7342 -13.6885 -13.6238  -8.6789  -8.6364
    -8.4322  -8.4050  -8.3949  -8.3922  -8.3543  -8.3431  -8.1591  -8.1554
    -8.1325  -8.0798  -8.0678  -8.0565  -8.0564  -8.0455  -7.9775  -7.9750
    -7.9631  -7.9623  -7.8634  -7.8092  -7.6584  -7.6389  -3.7876  -3.7186
    -3.5676  -3.5178  -3.3826  -3.3602  -3.2574  -3.2194  -3.1581  -3.0199
    -3.0026  -3.0023  -3.0020  -2.9942  -2.3448  -2.3345  -2.2344  -2.2200
    -2.1384  -2.0910  -2.0897  -2.0117  -1.9965  -1.9938  -1.9933  -1.9772
    -1.9029  -1.8764  -1.8712  -1.8711  -1.8129  -1.8112  -1.7980  -1.7645
    -1.6055  -1.5690  -1.5146  -1.5144  -1.4383  -1.3969  -1.3396  -1.2949
    -1.1407  -1.1205  -1.1094  -1.0866  -1.0651  -1.0472  -0.7827  -0.7766
    -0.7754  -0.7743  -0.7338  -0.7324  -0.7122  -0.7071  -0.6849  -0.6790
    -0.6655  -0.6646  -0.6304  -0.6209  -0.5050  -0.4210  -0.3651  -0.3575
    -0.3526  -0.3150  -0.2933  -0.2310  -0.2252  -0.1635   0.1164   0.1303
     0.2693   0.2988   0.3589   0.3614   0.5318   0.5479   0.5511   0.5903
     0.6086   0.7360   0.7458   0.8021   0.8293   0.8452   1.0556   1.0897
     1.0979   1.1300   1.1730   1.1834   1.1930   1.2261   1.2603   1.2657
     1.2679   1.2830   1.3316   1.3357   1.3622   1.3756   1.3934   1.4195
     1.4279   1.4651   1.4993   1.5052   1.5309   1.5554   1.5823   1.5833
     1.6381   1.6425   1.7042   1.7184   1.7506   1.7612   1.7922   1.8263
     1.8487   1.8945   1.9344   1.9472   1.9481   1.9770   2.0079   2.0756
     2.0793   2.1052   2.1263   2.1502   2.1947   2.2387   2.2446   2.2469
     2.2510   2.2858   2.2939   2.5000   2.5936   2.5948   2.6030   2.6037
     2.7640   2.7672   2.7779   2.7833   3.5380   3.5796   3.6236   3.6806
     3.7225   3.8041   3.8406   3.8986   4.1103   4.2070   6.0009   6.4759
     6.7785   6.7821   6.7834   6.8266   6.9548   7.0456   7.4720   7.6676
     7.8289   8.0411   8.0944   8.2044   8.3399   8.6589   8.6912   9.0527
     9.0556   9.0756   9.1509   9.2964   9.3105   9.4490   9.4492   9.4688
     9.5153   9.5431   9.6558   9.7493   9.8526   9.8830   9.9001   9.9002
     9.9309   9.9941

     the Fermi energy is     2.7751 ev

!    total energy              =   -3711.72088449 Ry
     Harris-Foulkes estimate   =   -3711.72088451 Ry
     estimated scf accuracy    <          6.1E-09 Ry

     The total energy is the sum of the following terms:

     one-electron contribution =  -61971.32392101 Ry
     hartree contribution      =   31292.75213666 Ry
     xc contribution           =   -1263.88158903 Ry
     ewald contribution        =   28230.74478892 Ry
     smearing contrib. (-TS)   =      -0.01230004 Ry

     convergence has been achieved in  33 iterations

     negative rho (up, down):  9.217E-02 0.000E+00

     Forces acting on atoms (cartesian axes, Ry/au):

     atom    1 type  4   force =    -0.00000188    0.00000000   -0.00009897
     atom    2 type  4   force =     0.00000188    0.00000000   -0.00009897
     atom    3 type  3   force =    -0.00002475    0.00000000   -0.00016877
     atom    4 type  3   force =     0.00002475    0.00000000   -0.00016877
     atom    5 type  4   force =     0.00000164    0.00000000   -0.00007166
     atom    6 type  4   force =    -0.00000164    0.00000000   -0.00007166
     atom    7 type  1   force =     0.00000000    0.00000000   -0.00008437
     atom    8 type  1   force =     0.00000000    0.00000000   -0.00007927
     atom    9 type  3   force =     0.00000452    0.00000000   -0.00002530
     atom   10 type  3   force =    -0.00000452    0.00000000   -0.00002530
     atom   11 type  4   force =     0.00000000    0.00000000    0.00004588
     atom   12 type  4   force =    -0.00000419    0.00000000   -0.00002997
     atom   13 type  4   force =     0.00000419    0.00000000   -0.00002997
     atom   14 type  4   force =     0.00000000    0.00000000    0.00005801
     atom   15 type  2   force =     0.00000000    0.00000000   -0.00029773
     atom   16 type  5   force =     0.00000000    0.00000000   -0.00046319
     atom   17 type  4   force =     0.00004529    0.00000000    0.00038906
     atom   18 type  4   force =    -0.00004529    0.00000000    0.00038906
     atom   19 type  4   force =     0.00000000    0.00000000    0.00050570
     atom   20 type  4   force =     0.00000000    0.00000000    0.00066582
     atom   21 type  3   force =    -0.00007003    0.00000000   -0.00055506
     atom   22 type  3   force =     0.00007003    0.00000000   -0.00055506
     atom   23 type  1   force =     0.00000000    0.00000000   -0.00221150
     atom   24 type  1   force =     0.00000000    0.00000000   -0.00260862
     atom   25 type  4   force =    -0.00041525    0.00000000    0.00315379
     atom   26 type  4   force =     0.00041525    0.00000000    0.00315379
     atom   27 type  4   force =     0.00087748    0.00000000    0.00685223
     atom   28 type  4   force =    -0.00087748    0.00000000    0.00685223
     atom   29 type  3   force =     0.00043576    0.00000000   -0.00312892
     atom   30 type  3   force =    -0.00043576    0.00000000   -0.00312892
     atom   31 type  4   force =    -0.00508760    0.00000000    0.00519762
     atom   32 type  4   force =     0.00508760    0.00000000    0.00519762
     atom   33 type  1   force =     0.00000000    0.00000000    0.00892346
     atom   34 type  1   force =     0.00000000    0.00000000    0.02308454
     atom   35 type  3   force =    -0.00494850    0.00000000    0.00254422
     atom   36 type  3   force =     0.00494850    0.00000000    0.00254422
     atom   37 type  4   force =     0.00000000    0.00000000   -0.01064832
     atom   38 type  4   force =     0.00000000    0.00000000   -0.00099066
     atom   39 type  4   force =     0.00125584    0.00000000   -0.00404291
     atom   40 type  4   force =    -0.00125584    0.00000000   -0.00404291
     atom   41 type  5   force =     0.00000000    0.00000000   -0.02527800
     atom   42 type  2   force =     0.00000000    0.00000000   -0.02083955
     atom   43 type  4   force =     0.00000000    0.00000000    0.00294838
     atom   44 type  4   force =     0.00017423    0.00000000    0.00164999
     atom   45 type  4   force =    -0.00017423    0.00000000    0.00164999
     atom   46 type  4   force =     0.00000000    0.00000000    0.00241297
     atom   47 type  3   force =     0.00046210    0.00000000    0.00069520
     atom   48 type  3   force =    -0.00046210    0.00000000    0.00069520
     atom   49 type  1   force =     0.00000000    0.00000000   -0.00054124
     atom   50 type  1   force =     0.00000000    0.00000000   -0.00061052
     atom   51 type  4   force =     0.00004793    0.00000000    0.00056378
     atom   52 type  4   force =    -0.00004793    0.00000000    0.00056378
     atom   53 type  3   force =    -0.00003720    0.00000000   -0.00021446
     atom   54 type  3   force =     0.00003720    0.00000000   -0.00021446
     atom   55 type  4   force =    -0.00000484    0.00000000    0.00029422
     atom   56 type  4   force =     0.00000484    0.00000000    0.00029422

     Total force =     0.046649     Total SCF correction =     0.000422


     Computing stress (Cartesian axis) and pressure


     negative rho (up, down):  9.217E-02 0.000E+00
          total   stress  (Ry/bohr**3)                   (kbar)     P=       -6.05
  -0.00004784   0.00000000   0.00000000           -7.04        0.00        0.00
   0.00000000  -0.00003212   0.00000000            0.00       -4.73        0.00
   0.00000000   0.00000000  -0.00004335            0.00        0.00       -6.38

 
     init_run     :     24.44s CPU     25.56s WALL (       1 calls)
     electrons    :   1665.46s CPU   1743.79s WALL (       1 calls)
     forces       :     10.19s CPU     10.82s WALL (       1 calls)
     stress       :     97.05s CPU     98.89s WALL (       1 calls)

     Called by init_run:
     wfcinit      :     20.21s CPU     20.71s WALL (       1 calls)
     potinit      :      0.95s CPU      0.97s WALL (       1 calls)
     hinit0       :      1.54s CPU      1.57s WALL (       1 calls)

     Called by electrons:
     c_bands      :   1403.10s CPU   1441.20s WALL (      33 calls)
     sum_band     :    199.37s CPU    221.72s WALL (      33 calls)
     v_of_rho     :      3.71s CPU      3.79s WALL (      34 calls)
     newd         :     27.95s CPU     45.89s WALL (      34 calls)
     mix_rho      :     31.88s CPU     32.20s WALL (      33 calls)

     Called by c_bands:
     init_us_2    :      7.90s CPU      7.98s WALL (    1725 calls)
     cegterg      :   1341.71s CPU   1378.80s WALL (     825 calls)

     Called by sum_band:
     sum_band:bec :      1.00s CPU      1.01s WALL (     825 calls)
     addusdens    :     29.75s CPU     49.94s WALL (      33 calls)

     Called by *egterg:
     h_psi        :    636.41s CPU    649.89s WALL (    4505 calls)
     s_psi        :     95.11s CPU     95.68s WALL (    4505 calls)
     g_psi        :      1.38s CPU      1.40s WALL (    3655 calls)
     cdiaghg      :    333.70s CPU    334.93s WALL (    4480 calls)

     Called by h_psi:
     h_psi:calbec :    102.86s CPU    103.32s WALL (    4505 calls)
     vloc_psi     :    435.38s CPU    441.81s WALL (    4505 calls)
     add_vuspsi   :     95.40s CPU     95.87s WALL (    4505 calls)

     General routines
     calbec       :    161.24s CPU    161.92s WALL (    5455 calls)
     fft          :      3.45s CPU      3.48s WALL (     465 calls)
     ffts         :     18.31s CPU     18.51s WALL (   18841 calls)
     fftw         :    498.28s CPU    505.46s WALL ( 1181596 calls)
     interpolate  :      0.27s CPU      0.28s WALL (      34 calls)
 
     Parallel routines
     fft_scatt_xy :     55.70s CPU     56.58s WALL ( 1200902 calls)
     fft_scatt_yz :    335.05s CPU    339.83s WALL ( 1200902 calls)
 
     PWSCF        :  29m58.15s CPU  31m20.15s WALL

 
   This run was terminated on:  14:56: 3  25May2021            

=------------------------------------------------------------------------------=
   JOB DONE.
=------------------------------------------------------------------------------=
[1621968963.961796] [holy7c04309:78633:0]          mpool.c:43   UCX  WARN  object 0x4708f80 was not returned to mpool ucp_requests
[1621968963.968962] [holy7c04202:20118:0]          mpool.c:43   UCX  WARN  object 0x47c5ac0 was not returned to mpool ucp_requests
[1621968963.968987] [holy7c04202:20118:0]          mpool.c:43   UCX  WARN  object 0x47c6000 was not returned to mpool ucp_requests
[1621968963.970870] [holy7c04202:20116:0]          mpool.c:43   UCX  WARN  object 0x2d8cc80 was not returned to mpool ucp_requests
[1621968963.970966] [holy7c04202:20117:0]          mpool.c:43   UCX  WARN  object 0x37db2c0 was not returned to mpool ucp_requests
[1621968963.980354] [holy7c04310:47824:0]          mpool.c:43   UCX  WARN  object 0x3a48440 was not returned to mpool ucp_requests
[1621968963.982955] [holy7c04205:224368:0]          mpool.c:43   UCX  WARN  object 0x3457d40 was not returned to mpool ucp_requests
[1621968963.960930] [holy7c04309:78631:0]          mpool.c:43   UCX  WARN  object 0x3255180 was not returned to mpool ucp_requests
[1621968963.960952] [holy7c04309:78631:0]          mpool.c:43   UCX  WARN  object 0x3255500 was not returned to mpool ucp_requests
[1621968963.984423] [holy7c04205:224361:0]          mpool.c:43   UCX  WARN  object 0x36d8000 was not returned to mpool ucp_requests
[1621968963.984450] [holy7c04205:224361:0]          mpool.c:43   UCX  WARN  object 0x36d81c0 was not returned to mpool ucp_requests
[1621968963.984884] [holy7c04205:224359:0]          mpool.c:43   UCX  WARN  object 0x3e2c9c0 was not returned to mpool ucp_requests
[1621968963.986939] [holy7c04205:224369:0]          mpool.c:43   UCX  WARN  object 0x439f100 was not returned to mpool ucp_requests
[1621968963.988177] [holy7c04205:224360:0]          mpool.c:43   UCX  WARN  object 0x4814300 was not returned to mpool ucp_requests
[1621968963.988824] [holy7c04205:224364:0]          mpool.c:43   UCX  WARN  object 0x2e86b40 was not returned to mpool ucp_requests
[1621968963.989729] [holy7c04205:224366:0]          mpool.c:43   UCX  WARN  object 0x411c980 was not returned to mpool ucp_requests
[1621968963.989752] [holy7c04205:224366:0]          mpool.c:43   UCX  WARN  object 0x411cd00 was not returned to mpool ucp_requests
