
     Program PWSCF v.6.5 starts on 28May2021 at 10: 0:21 

     This program is part of the open-source Quantum ESPRESSO suite
     for quantum simulation of materials; please cite
         "P. Giannozzi et al., J. Phys.:Condens. Matter 21 395502 (2009);
         "P. Giannozzi et al., J. Phys.:Condens. Matter 29 465901 (2017);
          URL http://www.quantum-espresso.org", 
     in publications or presentations arising from this work. More details at
     http://www.quantum-espresso.org/quote

     Parallel version (MPI), running on    32 processors

     MPI processes distributed on     6 nodes
     R & G space division:  proc/nbgrp/npool/nimage =      32
     Reading input from YCBCO50_212_CuO_cleave_2.25_sep.pwi
Warning: card &IONS ignored
Warning: card     ION_DYNAMICS = 'BFGS' ignored
Warning: card / ignored
Warning: card &CELL ignored
Warning: card     CELL_DYNAMICS = 'BFGS' ignored
Warning: card     PRESS_CONV_THR = 5 ignored
Warning: card / ignored

     Current dimensions of program PWSCF are:
     Max number of different atomic species (ntypx) = 10
     Max number of k-points (npk) =  40000
     Max angular momentum in pseudopotentials (lmaxx) =  3

     Subspace diagonalization in iterative solution of the eigenvalue problem:
     one sub-group per band group will be used
     scalapack distributed-memory algorithm (size of sub-group:  5*  5 procs)

     Message from routine setup:
     using ibrav=0 with symmetry is DISCOURAGED, use correct ibrav instead
 
     Parallelization info
     --------------------
     sticks:   dense  smooth     PW     G-vecs:    dense   smooth      PW
     Min         188      62     17                93398    17968    2679
     Max         189      63     18                93428    18017    2722
     Sum        6019    2003    565              2989253   575753   86561
 


     bravais-lattice index     =            0
     lattice parameter (alat)  =      14.8133  a.u.
     unit-cell volume          =    9162.7262 (a.u.)^3
     number of atoms/cell      =           56
     number of atomic types    =            5
     number of electrons       =       456.00
     number of Kohn-Sham states=          274
     kinetic-energy cutoff     =      60.0000  Ry
     charge density cutoff     =     720.0000  Ry
     convergence threshold     =      1.0E-08
     mixing beta               =       0.5000
     number of iterations used =           10  local-TF  mixing
     Exchange-correlation= SLA PW PBE PBE
                           (   1   4   3   4   0   0   0)

     celldm(1)=  14.813271  celldm(2)=   0.000000  celldm(3)=   0.000000
     celldm(4)=   0.000000  celldm(5)=   0.000000  celldm(6)=   0.000000

     crystal axes: (cart. coord. in units of alat)
               a(1) = (   1.000000   0.000000   0.000000 )  
               a(2) = (   0.000000   0.477453   0.000000 )  
               a(3) = (   0.000000   0.000000   5.903933 )  

     reciprocal axes: (cart. coord. in units 2 pi/alat)
               b(1) = (  1.000000  0.000000  0.000000 )  
               b(2) = (  0.000000  2.094448  0.000000 )  
               b(3) = (  0.000000  0.000000  0.169379 )  


     PseudoPot. # 1 for Ba read from file:
     ./pseudo/Ba.pbe-nsp-van.UPF
     MD5 check sum: 2b9c31dd849566dd297d80989662b7a0
     Pseudo is Ultrasoft + core correction, Zval = 10.0
     Generated by new atomic code, or converted to UPF format
     Using radial grid of  907 points,  6 beta functions with: 
                l(1) =   0
                l(2) =   0
                l(3) =   1
                l(4) =   1
                l(5) =   2
                l(6) =   2
     Q(r) pseudized with  6 coefficients,  rinner =    1.200   1.200   1.200
                                                       1.200   1.200

     PseudoPot. # 2 for Ca read from file:
     ./pseudo/Ca.pbe-nsp-van.UPF
     MD5 check sum: 6471098428ff4fa451746d08035ff179
     Pseudo is Ultrasoft + core correction, Zval = 10.0
     Generated by new atomic code, or converted to UPF format
     Using radial grid of  845 points,  6 beta functions with: 
                l(1) =   0
                l(2) =   0
                l(3) =   1
                l(4) =   1
                l(5) =   2
                l(6) =   2
     Q(r) pseudized with  6 coefficients,  rinner =    1.200   1.200   1.200
                                                       1.200   1.200

     PseudoPot. # 3 for Cu read from file:
     ./pseudo/Cu.pbe-n-van_ak.UPF
     MD5 check sum: 34e3282627ffb533726feb647e090d62
     Pseudo is Ultrasoft + core correction, Zval = 11.0
     Generated by new atomic code, or converted to UPF format
     Using radial grid of  867 points,  6 beta functions with: 
                l(1) =   0
                l(2) =   0
                l(3) =   1
                l(4) =   1
                l(5) =   2
                l(6) =   2
     Q(r) pseudized with  8 coefficients,  rinner =    1.400   1.400   1.400
                                                       1.400   1.400

     PseudoPot. # 4 for O  read from file:
     ./pseudo/O.pbe-van_ak.UPF
     MD5 check sum: 783ce7fe4c79b6a4916957118fed0856
     Pseudo is Ultrasoft, Zval =  6.0
     Generated by new atomic code, or converted to UPF format
     Using radial grid of  737 points,  4 beta functions with: 
                l(1) =   0
                l(2) =   0
                l(3) =   1
                l(4) =   1
     Q(r) pseudized with  8 coefficients,  rinner =    0.800   0.800   0.800


     PseudoPot. # 5 for Y  read from file:
     ./pseudo/Y.pbe-nsp-van.UPF
     MD5 check sum: 4412fed3ab108fed87a1b7d6a69a4a38
     Pseudo is Ultrasoft + core correction, Zval = 11.0
     Generated by new atomic code, or converted to UPF format
     Using radial grid of  885 points,  6 beta functions with: 
                l(1) =   0
                l(2) =   0
                l(3) =   1
                l(4) =   1
                l(5) =   2
                l(6) =   2
     Q(r) pseudized with  6 coefficients,  rinner =    1.200   1.200   1.200
                                                       1.200   1.200

     atomic species   valence    mass     pseudopotential
        Ba            10.00   137.32700     Ba( 1.00)
        Ca            10.00    40.07800     Ca( 1.00)
        Cu            11.00    63.54600     Cu( 1.00)
        O              6.00    15.99900     O ( 1.00)
        Y             11.00    88.90584     Y ( 1.00)

      4 Sym. Ops. (no inversion) found ( 2 have fractional translation)



   Cartesian axes

     site n.     atom                  positions (alat units)
         1           O   tau(   1) = (  -0.0008343   0.2387265  -0.0222443  )
         2           O   tau(   2) = (   0.5008340   0.2387265  -0.0222443  )
         3           Cu  tau(   3) = (   0.5017257   0.0000000   0.0109608  )
         4           Cu  tau(   4) = (  -0.0017260   0.0000000   0.0109608  )
         5           O   tau(   5) = (  -0.0028933   0.0000000   0.2506504  )
         6           O   tau(   6) = (   0.5028929   0.0000000   0.2506504  )
         7           Ba  tau(   7) = (   0.7499995   0.2387265   0.2749435  )
         8           Ba  tau(   8) = (   0.2499998   0.2387265   0.2755214  )
         9           Cu  tau(   9) = (   0.4980963   0.0000000   0.5208446  )
        10           Cu  tau(  10) = (   0.0019033   0.0000000   0.5208446  )
        11           O   tau(  11) = (   0.2499998   0.0000000   0.5341884  )
        12           O   tau(  12) = (   0.5083351   0.2387265   0.5569851  )
        13           O   tau(  13) = (  -0.0083354   0.2387265   0.5569851  )
        14           O   tau(  14) = (   0.7499995   0.0000000   0.5573831  )
        15           Ca  tau(  15) = (   0.2499998   0.2387265   0.7436937  )
        16           Y   tau(  16) = (   0.7499995   0.2387265   0.7469544  )
        17           O   tau(  17) = (  -0.0063798   0.2387265   0.9248530  )
        18           O   tau(  18) = (   0.5063794   0.2387265   0.9248530  )
        19           O   tau(  19) = (   0.7499995   0.0000000   0.9338544  )
        20           O   tau(  20) = (   0.2499998   0.0000000   0.9461329  )
        21           Cu  tau(  21) = (   0.0015717   0.0000000   0.9686860  )
        22           Cu  tau(  22) = (   0.4984280   0.0000000   0.9686860  )
        23           Ba  tau(  23) = (   0.2499998   0.2387265   1.2085224  )
        24           Ba  tau(  24) = (   0.7499995   0.2387265   1.2233294  )
        25           O   tau(  25) = (   0.0063772   0.0000000   1.2547537  )
        26           O   tau(  26) = (   0.4936224   0.0000000   1.2547537  )
        27           O   tau(  27) = (   0.5384045   0.2387265   1.4952521  )
        28           O   tau(  28) = (  -0.0384049   0.2387265   1.4952521  )
        29           Cu  tau(  29) = (   0.5006120   0.0000000   1.4952546  )
        30           Cu  tau(  30) = (  -0.0006123   0.0000000   1.4952546  )
        31           O   tau(  31) = (   0.4936212   0.0000000   2.0227851  )
        32           O   tau(  32) = (   0.0063785   0.0000000   2.0227851  )
        33           Ba  tau(  33) = (   0.7499995   0.2387265   2.0542145  )
        34           Ba  tau(  34) = (   0.2499998   0.2387265   2.0690241  )
        35           Cu  tau(  35) = (   0.4984280   0.0000000   2.3088553  )
        36           Cu  tau(  36) = (   0.0015717   0.0000000   2.3088553  )
        37           O   tau(  37) = (   0.2499998   0.0000000   2.3314135  )
        38           O   tau(  38) = (   0.7499995   0.0000000   2.3436831  )
        39           O   tau(  39) = (   0.5063781   0.2387265   2.3526883  )
        40           O   tau(  40) = (  -0.0063785   0.2387265   2.3526883  )
        41           Y   tau(  41) = (   0.7499995   0.2387265   2.5305818  )
        42           Ca  tau(  42) = (   0.2499998   0.2387265   2.5338515  )
        43           O   tau(  43) = (   0.7499995   0.0000000   2.7201493  )
        44           O   tau(  44) = (  -0.0083354   0.2387265   2.7205511  )
        45           O   tau(  45) = (   0.5083351   0.2387265   2.7205511  )
        46           O   tau(  46) = (   0.2499998   0.0000000   2.7433491  )
        47           Cu  tau(  47) = (   0.0019059   0.0000000   2.7566827  )
        48           Cu  tau(  48) = (   0.4980938   0.0000000   2.7566827  )
        49           Ba  tau(  49) = (   0.2499998   0.2387265   3.0020224  )
        50           Ba  tau(  50) = (   0.7499995   0.2387265   3.0025646  )
        51           O   tau(  51) = (  -0.0028895   0.0000000   3.0268718  )
        52           O   tau(  52) = (   0.5028891   0.0000000   3.0268718  )
        53           Cu  tau(  53) = (   0.5017844   0.0000000   3.2665563  )
        54           Cu  tau(  54) = (  -0.0017847   0.0000000   3.2665563  )
        55           O   tau(  55) = (   0.5008990   0.2387265   3.2997627  )
        56           O   tau(  56) = (  -0.0008994   0.2387265   3.2997627  )

     number of k points=    25  Gaussian smearing, width (Ry)=  0.0100
                       cart. coord. in units 2pi/alat
        k(    1) = (   0.0000000   0.0000000   0.0000000), wk =   0.0312500
        k(    2) = (   0.0000000   0.2618060   0.0000000), wk =   0.0625000
        k(    3) = (   0.0000000   0.5236121   0.0000000), wk =   0.0625000
        k(    4) = (   0.0000000   0.7854181   0.0000000), wk =   0.0625000
        k(    5) = (   0.0000000  -1.0472241   0.0000000), wk =   0.0312500
        k(    6) = (   0.1250000   0.0000000   0.0000000), wk =   0.0625000
        k(    7) = (   0.1250000   0.2618060   0.0000000), wk =   0.1250000
        k(    8) = (   0.1250000   0.5236121   0.0000000), wk =   0.1250000
        k(    9) = (   0.1250000   0.7854181   0.0000000), wk =   0.1250000
        k(   10) = (   0.1250000  -1.0472241   0.0000000), wk =   0.0625000
        k(   11) = (   0.2500000   0.0000000   0.0000000), wk =   0.0625000
        k(   12) = (   0.2500000   0.2618060   0.0000000), wk =   0.1250000
        k(   13) = (   0.2500000   0.5236121   0.0000000), wk =   0.1250000
        k(   14) = (   0.2500000   0.7854181   0.0000000), wk =   0.1250000
        k(   15) = (   0.2500000  -1.0472241   0.0000000), wk =   0.0625000
        k(   16) = (   0.3750000   0.0000000   0.0000000), wk =   0.0625000
        k(   17) = (   0.3750000   0.2618060   0.0000000), wk =   0.1250000
        k(   18) = (   0.3750000   0.5236121   0.0000000), wk =   0.1250000
        k(   19) = (   0.3750000   0.7854181   0.0000000), wk =   0.1250000
        k(   20) = (   0.3750000  -1.0472241   0.0000000), wk =   0.0625000
        k(   21) = (  -0.5000000   0.0000000   0.0000000), wk =   0.0312500
        k(   22) = (  -0.5000000   0.2618060   0.0000000), wk =   0.0625000
        k(   23) = (  -0.5000000   0.5236121   0.0000000), wk =   0.0625000
        k(   24) = (  -0.5000000   0.7854181   0.0000000), wk =   0.0625000
        k(   25) = (  -0.5000000  -1.0472241   0.0000000), wk =   0.0312500

     Dense  grid:  2989253 G-vectors     FFT dimensions: ( 128,  64, 750)

     Smooth grid:   575753 G-vectors     FFT dimensions: (  80,  36, 432)

     Estimated max dynamical RAM per process >     865.48 MB

     Estimated total dynamical RAM >      27.05 GB

     Initial potential from superposition of free atoms

     starting charge  455.69457, renormalised to  456.00000

     negative rho (up, down):  9.316E-02 0.000E+00
     Starting wfcs are  396 randomized atomic wfcs

     total cpu time spent up to now is       26.5 secs

     Self-consistent Calculation

     iteration #  1     ecut=    60.00 Ry     beta= 0.50
     Davidson diagonalization with overlap
     ethr =  1.00E-02,  avg # of iterations =  2.0

     negative rho (up, down):  8.614E-02 0.000E+00

     total cpu time spent up to now is       73.5 secs

     total energy              =   -3708.23067380 Ry
     Harris-Foulkes estimate   =   -3716.42673550 Ry
     estimated scf accuracy    <      31.36100025 Ry

     iteration #  2     ecut=    60.00 Ry     beta= 0.50
     Davidson diagonalization with overlap
     ethr =  6.88E-03,  avg # of iterations =  2.0

     negative rho (up, down):  8.590E-02 0.000E+00

     total cpu time spent up to now is      120.5 secs

     total energy              =   -3710.96811536 Ry
     Harris-Foulkes estimate   =   -3712.27722335 Ry
     estimated scf accuracy    <       6.65136273 Ry

     iteration #  3     ecut=    60.00 Ry     beta= 0.50
     Davidson diagonalization with overlap
     ethr =  1.46E-03,  avg # of iterations =  2.0

     negative rho (up, down):  8.627E-02 0.000E+00

     total cpu time spent up to now is      167.2 secs

     total energy              =   -3711.55503256 Ry
     Harris-Foulkes estimate   =   -3711.93084242 Ry
     estimated scf accuracy    <      10.31635809 Ry

     iteration #  4     ecut=    60.00 Ry     beta= 0.50
     Davidson diagonalization with overlap
     ethr =  1.46E-03,  avg # of iterations =  1.0

     negative rho (up, down):  8.703E-02 0.000E+00

     total cpu time spent up to now is      210.0 secs

     total energy              =   -3711.59827295 Ry
     Harris-Foulkes estimate   =   -3711.72627989 Ry
     estimated scf accuracy    <       2.58172166 Ry

     iteration #  5     ecut=    60.00 Ry     beta= 0.50
     Davidson diagonalization with overlap
     ethr =  5.66E-04,  avg # of iterations =  1.3

     negative rho (up, down):  8.804E-02 0.000E+00

     total cpu time spent up to now is      253.4 secs

     total energy              =   -3711.56219047 Ry
     Harris-Foulkes estimate   =   -3711.66525693 Ry
     estimated scf accuracy    <       2.28844298 Ry

     iteration #  6     ecut=    60.00 Ry     beta= 0.50
     Davidson diagonalization with overlap
     ethr =  5.02E-04,  avg # of iterations =  1.4

     negative rho (up, down):  8.930E-02 0.000E+00

     total cpu time spent up to now is      296.9 secs

     total energy              =   -3711.55071033 Ry
     Harris-Foulkes estimate   =   -3711.60111231 Ry
     estimated scf accuracy    <       1.18530999 Ry

     iteration #  7     ecut=    60.00 Ry     beta= 0.50
     Davidson diagonalization with overlap
     c_bands:  1 eigenvalues not converged
     ethr =  2.60E-04,  avg # of iterations =  7.2

     negative rho (up, down):  9.008E-02 0.000E+00

     total cpu time spent up to now is      357.8 secs

     total energy              =   -3711.55215081 Ry
     Harris-Foulkes estimate   =   -3711.56958902 Ry
     estimated scf accuracy    <       0.36978934 Ry

     iteration #  8     ecut=    60.00 Ry     beta= 0.50
     Davidson diagonalization with overlap
     ethr =  8.11E-05,  avg # of iterations =  8.2

     negative rho (up, down):  9.062E-02 0.000E+00

     total cpu time spent up to now is      423.1 secs

     total energy              =   -3711.54918667 Ry
     Harris-Foulkes estimate   =   -3711.56390883 Ry
     estimated scf accuracy    <       0.42125651 Ry

     iteration #  9     ecut=    60.00 Ry     beta= 0.50
     Davidson diagonalization with overlap
     ethr =  8.11E-05,  avg # of iterations =  1.1

     negative rho (up, down):  9.072E-02 0.000E+00

     total cpu time spent up to now is      466.1 secs

     total energy              =   -3711.54815526 Ry
     Harris-Foulkes estimate   =   -3711.55428599 Ry
     estimated scf accuracy    <       0.22480963 Ry

     iteration # 10     ecut=    60.00 Ry     beta= 0.50
     Davidson diagonalization with overlap
     ethr =  4.93E-05,  avg # of iterations =  1.4

     negative rho (up, down):  9.059E-02 0.000E+00

     total cpu time spent up to now is      509.5 secs

     total energy              =   -3711.53923755 Ry
     Harris-Foulkes estimate   =   -3711.55018448 Ry
     estimated scf accuracy    <       0.19221863 Ry

     iteration # 11     ecut=    60.00 Ry     beta= 0.50
     Davidson diagonalization with overlap
     ethr =  4.22E-05,  avg # of iterations =  8.1

     negative rho (up, down):  9.039E-02 0.000E+00

     total cpu time spent up to now is      572.3 secs

     total energy              =   -3711.53981712 Ry
     Harris-Foulkes estimate   =   -3711.54252319 Ry
     estimated scf accuracy    <       0.12293699 Ry

     iteration # 12     ecut=    60.00 Ry     beta= 0.50
     Davidson diagonalization with overlap
     ethr =  2.70E-05,  avg # of iterations =  4.5

     negative rho (up, down):  9.007E-02 0.000E+00

     total cpu time spent up to now is      624.2 secs

     total energy              =   -3711.53913284 Ry
     Harris-Foulkes estimate   =   -3711.54068971 Ry
     estimated scf accuracy    <       0.08891711 Ry

     iteration # 13     ecut=    60.00 Ry     beta= 0.50
     Davidson diagonalization with overlap
     ethr =  1.95E-05,  avg # of iterations =  1.6

     negative rho (up, down):  8.961E-02 0.000E+00

     total cpu time spent up to now is      667.7 secs

     total energy              =   -3711.53746690 Ry
     Harris-Foulkes estimate   =   -3711.53974060 Ry
     estimated scf accuracy    <       0.11236861 Ry

     iteration # 14     ecut=    60.00 Ry     beta= 0.50
     Davidson diagonalization with overlap
     ethr =  1.95E-05,  avg # of iterations =  2.2

     negative rho (up, down):  9.344E-02 0.000E+00

     total cpu time spent up to now is      713.6 secs

     total energy              =   -3711.53515264 Ry
     Harris-Foulkes estimate   =   -3711.53776831 Ry
     estimated scf accuracy    <       0.11630878 Ry

     iteration # 15     ecut=    60.00 Ry     beta= 0.50
     Davidson diagonalization with overlap
     ethr =  1.95E-05,  avg # of iterations =  3.3

     negative rho (up, down):  1.012E-01 0.000E+00

     total cpu time spent up to now is      762.2 secs

     total energy              =   -3711.53332542 Ry
     Harris-Foulkes estimate   =   -3711.53543629 Ry
     estimated scf accuracy    <       0.10386251 Ry

     iteration # 16     ecut=    60.00 Ry     beta= 0.50
     Davidson diagonalization with overlap
     ethr =  1.95E-05,  avg # of iterations =  6.5

     negative rho (up, down):  1.192E-01 0.000E+00

     total cpu time spent up to now is      820.4 secs

     total energy              =   -3711.53120468 Ry
     Harris-Foulkes estimate   =   -3711.53358310 Ry
     estimated scf accuracy    <       0.06718403 Ry

     iteration # 17     ecut=    60.00 Ry     beta= 0.50
     Davidson diagonalization with overlap
     ethr =  1.47E-05,  avg # of iterations =  8.2

     negative rho (up, down):  1.283E-01 0.000E+00

     total cpu time spent up to now is      885.3 secs

     total energy              =   -3711.52993947 Ry
     Harris-Foulkes estimate   =   -3711.53156693 Ry
     estimated scf accuracy    <       0.03980026 Ry

     iteration # 18     ecut=    60.00 Ry     beta= 0.50
     Davidson diagonalization with overlap
     ethr =  8.73E-06,  avg # of iterations = 10.0

     negative rho (up, down):  1.217E-01 0.000E+00

     total cpu time spent up to now is      954.9 secs

     total energy              =   -3711.52932928 Ry
     Harris-Foulkes estimate   =   -3711.53020098 Ry
     estimated scf accuracy    <       0.00805655 Ry

     iteration # 19     ecut=    60.00 Ry     beta= 0.50
     Davidson diagonalization with overlap
     ethr =  1.77E-06,  avg # of iterations = 11.0

     negative rho (up, down):  1.133E-01 0.000E+00

     total cpu time spent up to now is     1029.6 secs

     total energy              =   -3711.52904713 Ry
     Harris-Foulkes estimate   =   -3711.52946986 Ry
     estimated scf accuracy    <       0.00454461 Ry

     iteration # 20     ecut=    60.00 Ry     beta= 0.50
     Davidson diagonalization with overlap
     ethr =  9.97E-07,  avg # of iterations =  4.5

     negative rho (up, down):  9.893E-02 0.000E+00

     total cpu time spent up to now is     1082.2 secs

     total energy              =   -3711.52886184 Ry
     Harris-Foulkes estimate   =   -3711.52914360 Ry
     estimated scf accuracy    <       0.00112801 Ry

     iteration # 21     ecut=    60.00 Ry     beta= 0.50
     Davidson diagonalization with overlap
     c_bands:  1 eigenvalues not converged
     c_bands:  1 eigenvalues not converged
     ethr =  2.47E-07,  avg # of iterations = 10.8

     negative rho (up, down):  9.454E-02 0.000E+00

     total cpu time spent up to now is     1154.1 secs

     total energy              =   -3711.52886872 Ry
     Harris-Foulkes estimate   =   -3711.52889693 Ry
     estimated scf accuracy    <       0.00051533 Ry

     iteration # 22     ecut=    60.00 Ry     beta= 0.50
     Davidson diagonalization with overlap
     c_bands:  1 eigenvalues not converged
     c_bands:  2 eigenvalues not converged
     c_bands:  1 eigenvalues not converged
     c_bands:  1 eigenvalues not converged
     ethr =  1.13E-07,  avg # of iterations = 10.2

     negative rho (up, down):  9.068E-02 0.000E+00

     total cpu time spent up to now is     1221.9 secs

     total energy              =   -3711.52893238 Ry
     Harris-Foulkes estimate   =   -3711.52889677 Ry
     estimated scf accuracy    <       0.00041111 Ry

     iteration # 23     ecut=    60.00 Ry     beta= 0.50
     Davidson diagonalization with overlap
     c_bands:  1 eigenvalues not converged
     c_bands:  1 eigenvalues not converged
     c_bands:  1 eigenvalues not converged
     ethr =  9.02E-08,  avg # of iterations =  9.0

     negative rho (up, down):  9.194E-02 0.000E+00

     total cpu time spent up to now is     1286.6 secs

     total energy              =   -3711.52895924 Ry
     Harris-Foulkes estimate   =   -3711.52894857 Ry
     estimated scf accuracy    <       0.00004371 Ry

     iteration # 24     ecut=    60.00 Ry     beta= 0.50
     Davidson diagonalization with overlap
     c_bands:  1 eigenvalues not converged
     ethr =  9.59E-09,  avg # of iterations =  4.1

     negative rho (up, down):  9.146E-02 0.000E+00

     total cpu time spent up to now is     1338.5 secs

     total energy              =   -3711.52896898 Ry
     Harris-Foulkes estimate   =   -3711.52896236 Ry
     estimated scf accuracy    <       0.00005863 Ry

     iteration # 25     ecut=    60.00 Ry     beta= 0.50
     Davidson diagonalization with overlap
     c_bands:  1 eigenvalues not converged
     ethr =  9.59E-09,  avg # of iterations =  2.0

     negative rho (up, down):  9.177E-02 0.000E+00

     total cpu time spent up to now is     1383.2 secs

     total energy              =   -3711.52897508 Ry
     Harris-Foulkes estimate   =   -3711.52897004 Ry
     estimated scf accuracy    <       0.00002367 Ry

     iteration # 26     ecut=    60.00 Ry     beta= 0.50
     Davidson diagonalization with overlap
     c_bands:  1 eigenvalues not converged
     c_bands:  1 eigenvalues not converged
     ethr =  5.19E-09,  avg # of iterations =  4.7

     negative rho (up, down):  9.162E-02 0.000E+00

     total cpu time spent up to now is     1435.0 secs

     total energy              =   -3711.52897601 Ry
     Harris-Foulkes estimate   =   -3711.52897649 Ry
     estimated scf accuracy    <       0.00007149 Ry

     iteration # 27     ecut=    60.00 Ry     beta= 0.50
     Davidson diagonalization with overlap
     c_bands:  1 eigenvalues not converged
     ethr =  5.19E-09,  avg # of iterations =  2.0

     negative rho (up, down):  9.183E-02 0.000E+00

     total cpu time spent up to now is     1480.0 secs

     total energy              =   -3711.52897566 Ry
     Harris-Foulkes estimate   =   -3711.52897626 Ry
     estimated scf accuracy    <       0.00002969 Ry

     iteration # 28     ecut=    60.00 Ry     beta= 0.50
     Davidson diagonalization with overlap
     ethr =  5.19E-09,  avg # of iterations =  1.0

     negative rho (up, down):  9.198E-02 0.000E+00

     total cpu time spent up to now is     1522.6 secs

     total energy              =   -3711.52897541 Ry
     Harris-Foulkes estimate   =   -3711.52897585 Ry
     estimated scf accuracy    <       0.00000887 Ry

     iteration # 29     ecut=    60.00 Ry     beta= 0.50
     Davidson diagonalization with overlap
     ethr =  1.95E-09,  avg # of iterations =  1.0

     negative rho (up, down):  9.210E-02 0.000E+00

     total cpu time spent up to now is     1565.0 secs

     total energy              =   -3711.52897518 Ry
     Harris-Foulkes estimate   =   -3711.52897552 Ry
     estimated scf accuracy    <       0.00000741 Ry

     iteration # 30     ecut=    60.00 Ry     beta= 0.50
     Davidson diagonalization with overlap
     ethr =  1.62E-09,  avg # of iterations =  1.0

     negative rho (up, down):  9.212E-02 0.000E+00

     total cpu time spent up to now is     1607.6 secs

     total energy              =   -3711.52897524 Ry
     Harris-Foulkes estimate   =   -3711.52897527 Ry
     estimated scf accuracy    <       0.00000104 Ry

     iteration # 31     ecut=    60.00 Ry     beta= 0.50
     Davidson diagonalization with overlap
     ethr =  2.27E-10,  avg # of iterations =  2.3

     negative rho (up, down):  9.209E-02 0.000E+00

     total cpu time spent up to now is     1654.1 secs

     total energy              =   -3711.52897530 Ry
     Harris-Foulkes estimate   =   -3711.52897527 Ry
     estimated scf accuracy    <       0.00000043 Ry

     iteration # 32     ecut=    60.00 Ry     beta= 0.50
     Davidson diagonalization with overlap
     ethr =  9.35E-11,  avg # of iterations =  1.8

     negative rho (up, down):  9.210E-02 0.000E+00

     total cpu time spent up to now is     1698.7 secs

     total energy              =   -3711.52897530 Ry
     Harris-Foulkes estimate   =   -3711.52897531 Ry
     estimated scf accuracy    <       0.00000018 Ry

     iteration # 33     ecut=    60.00 Ry     beta= 0.50
     Davidson diagonalization with overlap
     ethr =  3.89E-11,  avg # of iterations =  2.6

     negative rho (up, down):  9.210E-02 0.000E+00

     total cpu time spent up to now is     1745.6 secs

     total energy              =   -3711.52897530 Ry
     Harris-Foulkes estimate   =   -3711.52897531 Ry
     estimated scf accuracy    <       0.00000002 Ry

     iteration # 34     ecut=    60.00 Ry     beta= 0.50
     Davidson diagonalization with overlap
     ethr =  4.71E-12,  avg # of iterations =  3.6

     negative rho (up, down):  9.211E-02 0.000E+00

     total cpu time spent up to now is     1800.0 secs

     total energy              =   -3711.52897529 Ry
     Harris-Foulkes estimate   =   -3711.52897530 Ry
     estimated scf accuracy    <       0.00000002 Ry

     iteration # 35     ecut=    60.00 Ry     beta= 0.50
     Davidson diagonalization with overlap
     ethr =  3.29E-12,  avg # of iterations =  1.0

     negative rho (up, down):  9.212E-02 0.000E+00

     total cpu time spent up to now is     1842.5 secs

     total energy              =   -3711.52897528 Ry
     Harris-Foulkes estimate   =   -3711.52897529 Ry
     estimated scf accuracy    <       0.00000002 Ry

     iteration # 36     ecut=    60.00 Ry     beta= 0.50
     Davidson diagonalization with overlap
     ethr =  3.29E-12,  avg # of iterations =  1.0

     negative rho (up, down):  9.212E-02 0.000E+00

     total cpu time spent up to now is     1884.4 secs

     End of self-consistent calculation

          k = 0.0000 0.0000 0.0000 ( 72027 PWs)   bands (ev):

   -38.3566 -38.2939 -35.9914 -35.9204 -23.1011 -23.0905 -23.0840 -22.9728
   -22.9621 -22.9497 -22.7844 -22.5464 -18.8298 -18.7760 -18.7295 -18.6684
   -18.3606 -18.2966 -17.3375 -17.2692 -17.2039 -17.1370 -17.0227 -16.9484
   -15.7340 -15.6928 -15.2752 -15.2563 -15.0657 -14.9470 -14.8933 -14.8822
   -14.8384 -14.8083 -14.7491 -14.7391 -14.7275 -14.7215 -14.5977 -14.5852
   -14.4202 -14.3774 -14.3079 -14.2765 -14.2684 -14.2656 -14.2608 -14.2513
   -14.2234 -14.1503 -14.0865 -14.0305 -13.1386 -12.6704  -8.4113  -8.3400
    -8.3255  -8.2325  -8.2192  -8.1868  -8.1502  -8.1401  -8.0549  -8.0122
    -8.0018  -7.9605  -7.9383  -7.9156  -7.9056  -7.8447  -7.8349  -7.8096
    -7.7844  -7.7743  -7.7638  -7.6025  -7.3883  -7.2855  -3.2800  -3.2568
    -3.1669  -3.0707  -2.4542  -2.4482  -2.3666  -2.3654  -2.3610  -2.3303
    -2.2204  -2.1700  -2.1600  -2.1345  -2.1294  -2.1071  -2.0687  -2.0624
    -2.0021  -1.9657  -1.9586  -1.9055  -1.8526  -1.7972  -1.6596  -1.6312
    -1.4739  -1.4241  -1.4132  -1.3852  -1.3235  -1.2502  -1.2214  -1.2065
    -1.1996  -1.1982  -1.1911  -1.1889  -1.1672  -1.1657  -1.1029  -1.0296
    -0.9746  -0.9675  -0.7262  -0.6857  -0.6120  -0.5490  -0.5382  -0.5285
    -0.5281  -0.5150  -0.5025  -0.4842  -0.4717  -0.4528  -0.4161  -0.4113
    -0.4095  -0.4092  -0.3973  -0.3591  -0.3295  -0.2587  -0.2348  -0.2240
    -0.2233  -0.2148  -0.2011  -0.1618  -0.1534  -0.1388  -0.1318  -0.1059
    -0.1035  -0.1029  -0.0999  -0.0293  -0.0046   0.0029   0.0156   0.0350
     0.0422   0.0431   0.0842   0.1176   0.1292   0.1459   0.1972   0.2407
     0.2726   0.2806   0.3046   0.3058   0.3134   0.3292   0.3332   0.3356
     0.4933   0.5222   0.5909   0.6436   0.6689   0.7065   0.7582   0.7702
     0.7819   0.8036   0.8087   0.8429   0.9169   0.9519   0.9644   0.9866
     0.9913   0.9956   0.9964   0.9980   1.0774   1.1013   1.1130   1.1475
     1.1504   1.1575   1.1732   1.2015   1.2325   1.2584   1.3230   1.3759
     1.3857   1.4183   1.4876   1.4924   1.4953   1.5597   1.5609   1.5682
     1.5894   1.6202   1.6316   1.6809   1.7207   1.8293   1.8425   1.8971
     2.0008   2.0079   2.1262   2.1739   2.1751   2.2523   2.2671   2.3551
     2.3627   2.3862   2.3905   2.4361   2.6329   2.6859   4.7207   5.0080
     5.0233   5.6685   5.7627   6.3664   6.4000   6.4824   6.6511   6.6978
     6.7444   7.0484   7.0590   7.1456   7.1527   7.2761   7.3335   7.6211
     7.8102   7.8654   7.8889   7.9254   7.9570   8.1464   8.2178   8.2251
     8.2564   8.3330   8.3584   8.4380   8.7161   8.8586   8.8693   8.8776
     8.9184   9.0495

          k = 0.0000 0.2618 0.0000 ( 71961 PWs)   bands (ev):

   -38.3539 -38.2912 -35.9897 -35.9187 -23.0766 -23.0661 -23.0649 -22.9537
   -22.9430 -22.9259 -22.7654 -22.5259 -18.7912 -18.7372 -18.7222 -18.6611
   -18.4713 -18.4079 -17.3081 -17.2398 -17.1996 -17.1327 -17.0886 -17.0145
   -15.6278 -15.5870 -15.2194 -15.2005 -15.0105 -14.9089 -14.8779 -14.8493
   -14.8344 -14.7371 -14.7188 -14.7183 -14.6909 -14.6630 -14.5633 -14.5501
   -14.4150 -14.3732 -14.3686 -14.3232 -14.2873 -14.2554 -14.2543 -14.2517
   -14.2434 -14.1870 -14.0783 -14.0702 -13.0915 -12.7351  -8.4017  -8.3332
    -8.3203  -8.2449  -8.2326  -8.1991  -8.1066  -8.0965  -8.0555  -8.0475
    -8.0458  -8.0442  -8.0374  -7.9815  -7.9710  -7.9558  -7.9510  -7.9317
    -7.8810  -7.8644  -7.8338  -7.8134  -7.4718  -7.4056  -3.3904  -3.3540
    -3.2206  -3.1259  -2.5813  -2.5676  -2.5473  -2.4764  -2.4678  -2.4610
    -2.3438  -2.3372  -2.3285  -2.2810  -2.2161  -2.1597  -2.0997  -2.0746
    -2.0149  -1.9954  -1.9672  -1.9378  -1.9056  -1.8867  -1.7810  -1.7328
    -1.7300  -1.7187  -1.6494  -1.6407  -1.6367  -1.6158  -1.6135  -1.6037
    -1.5720  -1.4943  -1.2929  -1.1388  -1.1088  -1.0668  -0.9993  -0.9849
    -0.9374  -0.8656  -0.8528  -0.8487  -0.7851  -0.7811  -0.6270  -0.6204
    -0.5981  -0.5752  -0.5618  -0.5503  -0.5408  -0.5278  -0.4784  -0.4535
    -0.4514  -0.4387  -0.3733  -0.3669  -0.2843  -0.2605  -0.2436  -0.2163
    -0.2086  -0.1507  -0.1311  -0.1262  -0.1176  -0.0837  -0.0831  -0.0670
    -0.0652  -0.0419  -0.0365  -0.0360   0.0029   0.0562   0.0596   0.0649
     0.1004   0.1016   0.1131   0.1511   0.1622   0.1746   0.1860   0.2043
     0.2104   0.2247   0.2462   0.2620   0.3952   0.4383   0.4461   0.4991
     0.5162   0.5397   0.6049   0.6244   0.7083   0.7274   0.7415   0.7791
     0.8372   0.9055   0.9239   0.9469   0.9647   0.9722   0.9814   0.9992
     1.0448   1.0520   1.0757   1.0852   1.1063   1.1341   1.1621   1.1760
     1.2380   1.2572   1.2741   1.2795   1.2997   1.3070   1.3209   1.4396
     1.4426   1.4553   1.5022   1.5104   1.5158   1.5348   1.5698   1.6076
     1.6095   1.6187   1.6442   1.6892   1.6985   1.7697   1.8285   1.8788
     2.1221   2.1461   2.3925   2.4033   2.4864   2.5610   2.5869   2.6061
     2.6563   2.6652   2.7050   2.7326   2.9157   2.9439   5.0061   5.3857
     5.3950   5.9453   6.0262   6.6700   6.6946   6.7245   6.7845   6.8845
     6.8936   6.9522   6.9864   7.3358   7.3800   7.4746   7.5213   7.5505
     7.5545   7.7734   7.9895   8.0780   8.1329   8.2776   8.3804   8.4209
     8.4532   8.5014   8.5564   8.6553   8.7986   8.9104   8.9413   9.0591
     9.0799   9.0890

          k = 0.0000 0.5236 0.0000 ( 71873 PWs)   bands (ev):

   -38.3474 -38.2847 -35.9856 -35.9146 -23.0189 -23.0161 -23.0053 -22.9069
   -22.8962 -22.8674 -22.7188 -22.4755 -18.7122 -18.7048 -18.6908 -18.6496
   -18.6435 -18.6364 -17.2421 -17.2244 -17.1891 -17.1685 -17.1557 -17.1222
   -15.3862 -15.3478 -15.0727 -15.0533 -14.9287 -14.8902 -14.8742 -14.8162
   -14.7491 -14.7267 -14.7118 -14.6410 -14.5196 -14.5152 -14.4954 -14.4798
   -14.4645 -14.4389 -14.3881 -14.3643 -14.3585 -14.2640 -14.2418 -14.2286
   -14.2033 -14.1921 -14.1447 -14.0728 -12.9709 -12.8869  -8.5198  -8.5093
    -8.3812  -8.3600  -8.3507  -8.3500  -8.2964  -8.2844  -8.2480  -8.2257
    -8.2141  -8.1966  -8.1700  -8.1188  -8.1084  -8.0956  -8.0194  -7.9898
    -7.9795  -7.9582  -7.8582  -7.7908  -7.5675  -7.5548  -3.7964  -3.7423
    -3.4580  -3.3686  -3.0778  -3.0544  -2.9347  -2.8707  -2.6960  -2.6830
    -2.6084  -2.5620  -2.5013  -2.4981  -2.4944  -2.4607  -2.4535  -2.3797
    -2.3165  -2.3088  -2.3061  -2.2984  -2.2298  -2.1897  -2.0970  -2.0484
    -2.0333  -2.0101  -1.9463  -1.8960  -1.8766  -1.8730  -1.8234  -1.8217
    -1.4888  -1.4378  -1.3624  -1.2378  -1.2225  -1.1951  -1.1466  -1.1042
    -1.0683  -1.0581  -1.0357  -1.0230  -0.8886  -0.8789  -0.8784  -0.8459
    -0.8040  -0.7965  -0.7962  -0.7766  -0.7390  -0.7310  -0.6976  -0.6651
    -0.6559  -0.6212  -0.6059  -0.5679  -0.5601  -0.5043  -0.4924  -0.4887
    -0.4226  -0.3224  -0.3050  -0.2639  -0.2085  -0.1672  -0.1117  -0.1004
    -0.0189  -0.0171   0.0115   0.0401   0.0823   0.0849   0.0906   0.1259
     0.1733   0.1776   0.1906   0.2712   0.3712   0.4078   0.4215   0.4403
     0.5368   0.5934   0.5965   0.6141   0.6206   0.7844   0.8139   0.8237
     0.8299   0.8440   0.8477   0.8766   0.9484   0.9807   1.0183   1.0309
     1.0423   1.0438   1.0488   1.0731   1.0748   1.1338   1.1510   1.1536
     1.1724   1.1978   1.2023   1.2278   1.2420   1.2538   1.2651   1.3344
     1.3589   1.3986   1.4365   1.4496   1.4529   1.4716   1.4959   1.5159
     1.5819   1.5826   1.5895   1.5923   1.6196   1.6405   1.6452   1.6949
     1.7067   1.7469   1.7753   1.8259   1.8520   1.8610   1.9439   1.9491
     2.0124   2.0267   2.3406   2.5175   2.7983   2.8111   2.8738   2.9087
     2.9092   2.9226   3.5734   3.5953   3.6611   3.6921   5.5254   6.2851
     6.2929   6.4010   6.4113   6.6178   6.7048   6.7385   6.8153   6.8949
     7.5056   7.5189   7.5834   7.6032   7.8592   7.8842   8.0215   8.1945
     8.2065   8.2094   8.3666   8.3674   8.4096   8.4717   8.5028   8.5610
     8.6065   8.6929   8.7493   8.8678   8.8870   9.0505   9.0862   9.1337
     9.2051   9.2062

          k = 0.0000 0.7854 0.0000 ( 71882 PWs)   bands (ev):

   -38.3409 -38.2782 -35.9815 -35.9105 -22.9718 -22.9537 -22.9429 -22.8589
   -22.8483 -22.8073 -22.6710 -22.4238 -18.9202 -18.8580 -18.6873 -18.6260
   -18.5859 -18.5310 -17.3636 -17.2894 -17.1788 -17.1517 -17.1118 -17.0838
   -15.1531 -15.1309 -15.0456 -14.9936 -14.8991 -14.8766 -14.8367 -14.7776
   -14.7497 -14.7291 -14.6771 -14.5591 -14.5455 -14.5425 -14.4256 -14.4010
   -14.3953 -14.3812 -14.3527 -14.3338 -14.3240 -14.2523 -14.1925 -14.1864
   -14.1760 -14.1573 -14.1455 -14.1092 -13.0309 -12.8384  -8.9148  -8.9043
    -8.7370  -8.6552  -8.6450  -8.5930  -8.4569  -8.3593  -8.3554  -8.3003
    -8.2876  -8.2322  -8.2193  -8.2098  -8.1880  -8.1776  -8.0641  -7.9714
    -7.8823  -7.8687  -7.8583  -7.6782  -7.6445  -7.5189  -4.2825  -4.2289
    -3.8616  -3.7786  -3.4800  -3.4610  -3.3000  -3.2307  -3.0758  -3.0664
    -3.0473  -3.0095  -3.0000  -2.9451  -2.8343  -2.8266  -2.7382  -2.6819
    -2.5975  -2.5550  -2.4234  -2.4185  -2.3563  -2.3519  -2.1386  -2.0857
    -2.0642  -2.0581  -2.0547  -2.0074  -1.9133  -1.8793  -1.7455  -1.7143
    -1.6943  -1.4609  -1.4593  -1.4200  -1.3726  -1.3119  -1.3016  -1.2616
    -1.2401  -1.2277  -1.1889  -1.1820  -1.1508  -1.1043  -1.1033  -1.0292
    -1.0179  -1.0066  -0.9974  -0.9597  -0.9504  -0.9441  -0.9394  -0.9193
    -0.8398  -0.8179  -0.8169  -0.8089  -0.7892  -0.7588  -0.6450  -0.4279
    -0.4198  -0.3583  -0.3096  -0.3003  -0.2850  -0.2215  -0.2165  -0.0384
    -0.0194   0.0038   0.0158   0.0208   0.0522   0.0888   0.0956   0.1051
     0.2562   0.2797   0.3157   0.3579   0.5739   0.5833   0.6539   0.6955
     0.7450   0.7882   0.8248   0.8346   0.8466   0.8533   0.9470   0.9977
     1.0038   1.0408   1.0596   1.0638   1.0759   1.1053   1.1136   1.1565
     1.1608   1.1775   1.2145   1.2553   1.3217   1.3557   1.3590   1.3697
     1.3932   1.4641   1.4758   1.4787   1.4825   1.5109   1.5127   1.5328
     1.5402   1.5827   1.5873   1.6071   1.6194   1.6217   1.6552   1.6617
     1.6875   1.7179   1.7272   1.7678   1.7864   1.7884   1.8051   1.9202
     1.9465   1.9760   2.0304   2.0333   2.0410   2.0429   2.1650   2.2563
     2.2654   2.3577   2.3638   2.4733   2.6680   2.7315   2.7420   2.8316
     2.8473   2.8910   4.2018   4.2339   4.2734   4.2902   5.6557   5.8726
     5.8799   6.4576   6.5584   6.9604   7.2076   7.2198   7.5288   7.5883
     7.9432   7.9570   8.1249   8.1809   8.2553   8.3308   8.3421   8.4788
     8.5050   8.5268   8.6137   8.6416   8.6578   8.7361   8.7939   8.8911
     8.9358   8.9759   9.0171   9.0488   9.1035   9.1708   9.1889   9.3113
     9.3179   9.3915

          k = 0.0000-1.0472 0.0000 ( 71986 PWs)   bands (ev):

   -38.3382 -38.2755 -35.9798 -35.9088 -22.9520 -22.9273 -22.9165 -22.8387
   -22.8281 -22.7819 -22.6509 -22.4019 -19.0007 -18.9387 -18.6801 -18.6188
   -18.5387 -18.4836 -17.4139 -17.3398 -17.1746 -17.1161 -17.1075 -17.0481
   -15.1546 -15.1301 -14.9773 -14.9446 -14.9145 -14.8362 -14.8102 -14.7802
   -14.7342 -14.7104 -14.7065 -14.5580 -14.5420 -14.4464 -14.4065 -14.4045
   -14.3928 -14.3506 -14.3497 -14.3287 -14.2555 -14.2041 -14.1888 -14.1620
   -14.1584 -14.1461 -14.1397 -14.1275 -13.0877 -12.7794  -9.0681  -9.0576
    -8.8909  -8.7739  -8.7638  -8.7304  -8.5618  -8.4772  -8.3530  -8.3064
    -8.2914  -8.2284  -8.2165  -8.2155  -8.2127  -8.2052  -8.0932  -7.9631
    -7.8924  -7.8161  -7.8057  -7.6665  -7.6289  -7.4900  -4.4842  -4.4319
    -4.0479  -3.9666  -3.6342  -3.6174  -3.4499  -3.3762  -3.3106  -3.3004
    -3.2560  -3.2396  -3.2301  -3.1616  -2.8629  -2.8552  -2.7590  -2.7229
    -2.6993  -2.6807  -2.4455  -2.4409  -2.3435  -2.3392  -2.1997  -2.1541
    -2.1496  -2.1092  -2.0751  -2.0307  -1.8414  -1.8259  -1.7964  -1.5861
    -1.5611  -1.5349  -1.5340  -1.5265  -1.4557  -1.4174  -1.4143  -1.3655
    -1.2978  -1.2955  -1.2677  -1.2626  -1.2618  -1.2535  -1.1372  -1.1121
    -1.1118  -1.0868  -1.0595  -1.0583  -1.0486  -1.0389  -1.0249  -1.0128
    -0.9161  -0.9085  -0.9060  -0.8979  -0.7594  -0.7581  -0.6958  -0.3919
    -0.3837  -0.3306  -0.3281  -0.3106  -0.3022  -0.2766  -0.2420  -0.1907
    -0.0236  -0.0036   0.0113   0.0437   0.0614   0.0751   0.0891   0.1126
     0.2861   0.3314   0.3745   0.3802   0.6513   0.6572   0.6769   0.7602
     0.8093   0.8386   0.8435   0.8669   0.9566   0.9626   0.9643   1.0188
     1.0205   1.0662   1.1235   1.1368   1.1427   1.1556   1.1557   1.1639
     1.1757   1.2084   1.2325   1.2421   1.3899   1.4086   1.4390   1.4455
     1.4879   1.5154   1.5198   1.5364   1.5708   1.6138   1.6665   1.6780
     1.6809   1.7068   1.7081   1.7119   1.7401   1.7486   1.7647   1.7677
     1.8049   1.8812   1.9222   1.9324   1.9508   1.9733   1.9908   2.0029
     2.0126   2.0152   2.1207   2.2030   2.2354   2.2443   2.2626   2.3530
     2.4196   2.4288   2.4296   2.4948   2.5169   2.5281   2.5728   2.6797
     2.7075   2.7804   4.3980   4.4331   4.4937   4.5079   5.5838   5.6333
     5.6407   6.3369   6.4502   7.4165   7.6101   7.6198   7.7745   7.9091
     7.9421   8.0986   8.1194   8.1336   8.1870   8.3169   8.5695   8.5801
     8.5992   8.6418   8.6696   8.7452   8.8382   8.9078   8.9201   8.9376
     8.9503   9.0180   9.0290   9.1141   9.1335   9.2147   9.2863   9.3030
     9.4892   9.4997

          k = 0.1250 0.0000 0.0000 ( 72015 PWs)   bands (ev):

   -38.3566 -38.2939 -35.9914 -35.9204 -23.0967 -23.0861 -23.0833 -22.9776
   -22.9669 -22.9465 -22.7879 -22.5472 -18.8290 -18.7752 -18.7263 -18.6652
   -18.3606 -18.2966 -17.3404 -17.2722 -17.2159 -17.1493 -17.0227 -16.9484
   -15.7064 -15.6650 -15.2595 -15.2415 -15.0575 -14.9388 -14.8995 -14.8767
   -14.8503 -14.8485 -14.7976 -14.7481 -14.7355 -14.7295 -14.5748 -14.5533
   -14.4122 -14.3711 -14.3097 -14.2779 -14.2704 -14.2685 -14.2620 -14.2529
   -14.2291 -14.1543 -14.0917 -14.0299 -13.1223 -12.6896  -8.4115  -8.3422
    -8.3278  -8.2367  -8.2236  -8.1914  -8.1364  -8.1263  -8.0677  -8.0039
    -7.9935  -7.9418  -7.9392  -7.9222  -7.9122  -7.8385  -7.8274  -7.8075
    -7.7851  -7.7836  -7.7731  -7.6110  -7.3920  -7.2882  -3.2453  -3.2219
    -3.1337  -3.0372  -2.4508  -2.4442  -2.3848  -2.3795  -2.3627  -2.3266
    -2.2504  -2.1837  -2.1678  -2.1460  -2.1324  -2.1142  -2.0849  -2.0700
    -2.0102  -1.9783  -1.9730  -1.9455  -1.8342  -1.7774  -1.7008  -1.6705
    -1.4466  -1.4089  -1.3649  -1.3311  -1.3245  -1.2516  -1.2429  -1.1984
    -1.1970  -1.1891  -1.1887  -1.1877  -1.1809  -1.1408  -1.0627  -0.9817
    -0.9546  -0.9476  -0.7040  -0.6804  -0.6212  -0.6044  -0.5783  -0.5479
    -0.5196  -0.5094  -0.4950  -0.4892  -0.4685  -0.4651  -0.4626  -0.4385
    -0.4303  -0.4286  -0.4216  -0.3944  -0.3893  -0.2667  -0.2392  -0.2309
    -0.2230  -0.2214  -0.2037  -0.1939  -0.1764  -0.1358  -0.0957  -0.0729
    -0.0727  -0.0619  -0.0570  -0.0523  -0.0029   0.0046   0.0070   0.0334
     0.0412   0.0774   0.0986   0.1321   0.1514   0.1530   0.1989   0.2522
     0.2739   0.2878   0.2989   0.3011   0.3133   0.3383   0.3409   0.3447
     0.4783   0.5003   0.5898   0.6511   0.6618   0.6769   0.7101   0.7138
     0.7834   0.8061   0.8362   0.8482   0.8799   0.9136   0.9149   0.9480
     0.9506   0.9788   1.0040   1.0171   1.0376   1.0455   1.1325   1.1593
     1.1628   1.2048   1.2163   1.2331   1.2565   1.2844   1.3148   1.3654
     1.4251   1.4745   1.5029   1.5069   1.5079   1.5591   1.5712   1.5929
     1.5969   1.6022   1.6362   1.6964   1.7169   1.8158   1.8298   1.8831
     1.9901   1.9997   2.1360   2.1767   2.1800   2.2175   2.2761   2.3348
     2.3622   2.3908   2.3937   2.4389   2.6274   2.6805   4.7651   5.0566
     5.0690   5.7197   5.8103   6.3237   6.4251   6.4584   6.5363   6.6859
     6.6933   6.7179   7.0842   7.2747   7.3346   7.5130   7.5207   7.6081
     7.7686   7.8666   7.9056   7.9266   7.9649   8.1313   8.1542   8.2427
     8.3047   8.3732   8.4152   8.4622   8.6292   8.8107   8.8746   8.9005
     8.9353   9.0334

          k = 0.1250 0.2618 0.0000 ( 71925 PWs)   bands (ev):

   -38.3539 -38.2912 -35.9897 -35.9187 -23.0723 -23.0646 -23.0615 -22.9582
   -22.9476 -22.9229 -22.7687 -22.5267 -18.7905 -18.7365 -18.7191 -18.6579
   -18.4713 -18.4079 -17.3109 -17.2426 -17.2110 -17.1444 -17.0885 -17.0144
   -15.6010 -15.5601 -15.2055 -15.1876 -15.0037 -14.9014 -14.8845 -14.8422
   -14.8407 -14.7676 -14.7388 -14.7248 -14.7223 -14.6993 -14.5368 -14.5122
   -14.4078 -14.3697 -14.3681 -14.3259 -14.2919 -14.2582 -14.2559 -14.2515
   -14.2452 -14.1898 -14.0918 -14.0596 -13.0786 -12.7490  -8.4017  -8.3351
    -8.3223  -8.2507  -8.2387  -8.2033  -8.1626  -8.1523  -8.0899  -8.0797
    -8.0598  -7.9920  -7.9817  -7.9787  -7.9653  -7.9400  -7.9354  -7.9334
    -7.9246  -7.8336  -7.8004  -7.7822  -7.4598  -7.3938  -3.3546  -3.3179
    -3.1849  -3.0903  -2.5906  -2.5759  -2.5497  -2.4780  -2.4602  -2.4527
    -2.3545  -2.3449  -2.3292  -2.2851  -2.2326  -2.1762  -2.1181  -2.0797
    -2.0287  -2.0246  -2.0198  -1.9745  -1.9303  -1.8754  -1.7672  -1.7293
    -1.7158  -1.7153  -1.6419  -1.6317  -1.6191  -1.6093  -1.6061  -1.5845
    -1.5497  -1.4713  -1.2859  -1.1381  -1.1230  -1.0769  -0.9870  -0.9678
    -0.9206  -0.8976  -0.8600  -0.8533  -0.8094  -0.8046  -0.6755  -0.6553
    -0.6047  -0.5915  -0.5888  -0.5695  -0.5653  -0.5393  -0.5212  -0.4666
    -0.3995  -0.3963  -0.3545  -0.3529  -0.2897  -0.2624  -0.2371  -0.2202
    -0.2126  -0.1755  -0.1500  -0.1330  -0.1288  -0.1043  -0.0754  -0.0638
    -0.0577  -0.0509  -0.0233  -0.0204   0.0112   0.0441   0.0596   0.0717
     0.0789   0.1148   0.1304   0.1609   0.1645   0.1753   0.1861   0.1946
     0.2344   0.2394   0.2626   0.2704   0.4094   0.4188   0.4256   0.4948
     0.5262   0.5413   0.6189   0.6406   0.6997   0.7220   0.7529   0.8102
     0.8454   0.8659   0.8930   0.9415   0.9670   0.9755   0.9847   0.9971
     1.0058   1.0502   1.0531   1.0681   1.0776   1.1335   1.1643   1.1787
     1.1807   1.1877   1.2654   1.2815   1.3016   1.3582   1.3804   1.4331
     1.4393   1.4815   1.4903   1.4927   1.5003   1.5342   1.5546   1.5678
     1.5745   1.6111   1.6375   1.7318   1.7722   1.8753   1.9315   1.9725
     1.9797   2.2618   2.3927   2.4144   2.4882   2.5576   2.5849   2.6055
     2.6576   2.6670   2.7040   2.7318   2.9077   2.9360   5.0374   5.4225
     5.4317   5.9854   6.0645   6.4410   6.7181   6.7262   6.7435   6.7787
     6.8320   7.0422   7.1965   7.3509   7.4072   7.4809   7.5398   7.6505
     7.6796   7.8094   7.9939   8.0834   8.1484   8.2683   8.2931   8.4152
     8.4723   8.5449   8.5922   8.6888   8.8032   8.8312   8.9370   8.9841
     8.9988   9.0818

          k = 0.1250 0.5236 0.0000 ( 71896 PWs)   bands (ev):

   -38.3474 -38.2847 -35.9856 -35.9146 -23.0185 -23.0123 -23.0015 -22.9108
   -22.9002 -22.8649 -22.7216 -22.4761 -18.7121 -18.7016 -18.6902 -18.6495
   -18.6404 -18.6358 -17.2434 -17.2256 -17.1992 -17.1705 -17.1564 -17.1324
   -15.3614 -15.3230 -15.0641 -15.0459 -14.9267 -14.8884 -14.8716 -14.8104
   -14.7494 -14.7256 -14.7120 -14.6433 -14.5761 -14.5537 -14.5220 -14.4737
   -14.4414 -14.4016 -14.3868 -14.3670 -14.3611 -14.2614 -14.2404 -14.2269
   -14.2049 -14.1935 -14.1444 -14.0736 -12.9672 -12.8895  -8.5535  -8.5431
    -8.3812  -8.3796  -8.3153  -8.3044  -8.2837  -8.2729  -8.2659  -8.2318
    -8.2207  -8.1891  -8.1854  -8.1767  -8.1264  -8.0891  -8.0371  -8.0011
    -7.9377  -7.9275  -7.8600  -7.7546  -7.6150  -7.4949  -3.7608  -3.7068
    -3.4208  -3.3315  -3.0885  -3.0635  -2.9369  -2.8730  -2.6903  -2.6776
    -2.6067  -2.5596  -2.5024  -2.4955  -2.4947  -2.4602  -2.4531  -2.3826
    -2.3171  -2.3094  -2.3051  -2.2975  -2.1971  -2.1569  -2.1135  -2.0816
    -2.0491  -2.0289  -1.9462  -1.9200  -1.9032  -1.8721  -1.8616  -1.8119
    -1.4945  -1.4450  -1.3726  -1.2453  -1.2352  -1.2002  -1.1550  -1.1289
    -1.0835  -1.0610  -1.0272  -0.9973  -0.9495  -0.9358  -0.9294  -0.8734
    -0.8652  -0.8257  -0.7940  -0.7602  -0.7397  -0.7245  -0.7211  -0.6754
    -0.6620  -0.6154  -0.5903  -0.5581  -0.5558  -0.5066  -0.4849  -0.4807
    -0.4219  -0.3236  -0.3037  -0.2584  -0.1633  -0.1290  -0.1139  -0.0905
    -0.0572  -0.0516   0.0130   0.0239   0.0581   0.0922   0.0980   0.1185
     0.1901   0.2144   0.2157   0.2691   0.4032   0.4185   0.4263   0.4566
     0.5261   0.5914   0.6101   0.6299   0.6338   0.7579   0.8082   0.8218
     0.8358   0.8565   0.8631   0.8863   0.9245   0.9411   0.9761   0.9887
     1.0067   1.0458   1.0514   1.0985   1.1052   1.1205   1.1352   1.1425
     1.1778   1.1952   1.2007   1.2281   1.2475   1.2630   1.2955   1.3293
     1.3479   1.3880   1.4130   1.4176   1.4581   1.4777   1.5076   1.5156
     1.5313   1.5621   1.5838   1.6031   1.6109   1.6133   1.6220   1.6934
     1.6984   1.7593   1.8179   1.8419   1.8522   1.9327   2.0176   2.0881
     2.1332   2.1506   2.3497   2.5331   2.7966   2.8132   2.8748   2.9063
     2.9110   2.9255   3.5407   3.5630   3.6331   3.6644   5.5439   6.3005
     6.3084   6.4077   6.4189   6.6017   6.7052   6.7574   6.8465   6.9164
     7.5189   7.5482   7.6313   7.6490   7.8852   7.9217   7.9988   8.1789
     8.1923   8.2370   8.2876   8.3415   8.3715   8.4921   8.5090   8.5689
     8.6323   8.7034   8.7526   8.8683   8.8773   9.0490   9.0975   9.1385
     9.1674   9.1804

          k = 0.1250 0.7854 0.0000 ( 71866 PWs)   bands (ev):

   -38.3409 -38.2782 -35.9815 -35.9105 -22.9715 -22.9505 -22.9397 -22.8622
   -22.8516 -22.8052 -22.6733 -22.4242 -18.9201 -18.8580 -18.6843 -18.6230
   -18.5854 -18.5305 -17.3636 -17.2894 -17.1882 -17.1538 -17.1213 -17.0859
   -15.1350 -15.1143 -15.0317 -14.9771 -14.8964 -14.8757 -14.8297 -14.7742
   -14.7532 -14.7295 -14.6779 -14.5609 -14.5494 -14.5430 -14.4380 -14.4251
   -14.4134 -14.4039 -14.3502 -14.3293 -14.3159 -14.2463 -14.1910 -14.1848
   -14.1749 -14.1582 -14.1462 -14.1108 -13.0240 -12.8462  -8.9051  -8.8946
    -8.7257  -8.6130  -8.6029  -8.5854  -8.4193  -8.3593  -8.3257  -8.2994
    -8.2870  -8.2356  -8.2322  -8.2244  -8.2203  -8.2093  -8.1017  -7.9748
    -7.8836  -7.8821  -7.8731  -7.6967  -7.6911  -7.5176  -4.2454  -4.1924
    -3.8268  -3.7442  -3.4959  -3.4753  -3.3080  -3.2384  -3.0733  -3.0639
    -3.0443  -3.0120  -3.0026  -2.9475  -2.8206  -2.8128  -2.7260  -2.6683
    -2.5682  -2.5263  -2.4251  -2.4200  -2.3553  -2.3508  -2.1316  -2.0776
    -2.0756  -2.0566  -2.0339  -1.9946  -1.9447  -1.8993  -1.8311  -1.7864
    -1.6788  -1.4849  -1.4516  -1.4434  -1.3798  -1.3303  -1.2957  -1.2698
    -1.2672  -1.2636  -1.2417  -1.2089  -1.2076  -1.1906  -1.0860  -1.0379
    -1.0303  -1.0083  -0.9992  -0.9671  -0.9502  -0.9370  -0.9362  -0.9280
    -0.8237  -0.8140  -0.8131  -0.7918  -0.7775  -0.7267  -0.6490  -0.4386
    -0.4316  -0.3671  -0.3093  -0.2747  -0.2249  -0.1636  -0.1556  -0.0499
    -0.0439  -0.0397  -0.0051   0.0417   0.0517   0.0808   0.1179   0.1204
     0.2485   0.3208   0.3509   0.3615   0.5573   0.5919   0.6624   0.6714
     0.7452   0.7836   0.8108   0.8391   0.8699   0.8803   0.9644   0.9928
     1.0099   1.0231   1.0416   1.0433   1.0772   1.0813   1.1108   1.1403
     1.1594   1.1770   1.1947   1.2466   1.3102   1.3282   1.3526   1.3629
     1.4019   1.4460   1.4637   1.4685   1.4840   1.4938   1.5254   1.5419
     1.5760   1.5824   1.5877   1.6020   1.6095   1.6385   1.6508   1.6629
     1.7038   1.7349   1.7671   1.7697   1.7935   1.8784   1.8967   1.9456
     1.9596   2.0274   2.0414   2.0498   2.0577   2.1469   2.1807   2.2199
     2.2481   2.2571   2.4399   2.4868   2.6693   2.7329   2.7416   2.8373
     2.8438   2.8994   4.1383   4.1699   4.2146   4.2326   5.6931   5.9276
     5.9351   6.4875   6.5846   6.9730   7.1750   7.1874   7.5151   7.5767
     7.8381   8.0387   8.0668   8.0904   8.1704   8.3616   8.3725   8.4719
     8.5344   8.5550   8.6201   8.6403   8.6930   8.7840   8.8239   8.8987
     8.9446   8.9826   9.0367   9.0862   9.1513   9.1732   9.2425   9.2917
     9.3314   9.3700

          k = 0.1250-1.0472 0.0000 ( 71978 PWs)   bands (ev):

   -38.3382 -38.2755 -35.9798 -35.9088 -22.9517 -22.9244 -22.9136 -22.8417
   -22.8311 -22.7801 -22.6529 -22.4023 -19.0006 -18.9387 -18.6771 -18.6157
   -18.5382 -18.4831 -17.4139 -17.3398 -17.1836 -17.1181 -17.1167 -17.0502
   -15.1435 -15.1189 -14.9533 -14.9205 -14.9083 -14.8373 -14.7970 -14.7671
   -14.7576 -14.7243 -14.7057 -14.5529 -14.5379 -14.4574 -14.4178 -14.4170
   -14.4104 -14.3674 -14.3446 -14.3242 -14.2542 -14.2045 -14.1951 -14.1622
   -14.1579 -14.1456 -14.1407 -14.1284 -13.0773 -12.7927  -9.0378  -9.0273
    -8.8623  -8.7434  -8.7333  -8.7034  -8.5332  -8.4509  -8.3524  -8.3026
    -8.2881  -8.2505  -8.2402  -8.2299  -8.2167  -8.2157  -8.1252  -7.9639
    -7.8921  -7.8599  -7.8495  -7.6945  -7.6699  -7.5266  -4.4460  -4.3943
    -4.0134  -3.9325  -3.6518  -3.6335  -3.4604  -3.3861  -3.3081  -3.2980
    -3.2536  -3.2423  -3.2328  -3.1638  -2.8463  -2.8383  -2.7434  -2.6961
    -2.6820  -2.6545  -2.4479  -2.4433  -2.3445  -2.3401  -2.1925  -2.1420
    -2.1144  -2.0850  -2.0740  -2.0322  -1.8968  -1.8201  -1.7483  -1.6874
    -1.6431  -1.6232  -1.5901  -1.5250  -1.5112  -1.4429  -1.4004  -1.3741
    -1.3594  -1.3508  -1.2832  -1.2798  -1.2781  -1.2422  -1.1396  -1.1310
    -1.1022  -1.0881  -1.0714  -1.0540  -1.0439  -1.0343  -1.0257  -0.9893
    -0.9127  -0.9039  -0.8989  -0.8848  -0.7645  -0.7315  -0.6712  -0.4049
    -0.3982  -0.3359  -0.3026  -0.2581  -0.2370  -0.2077  -0.1887  -0.1873
    -0.0406  -0.0372  -0.0104   0.0279   0.0472   0.0875   0.0960   0.1134
     0.2783   0.3648   0.3819   0.4303   0.6169   0.6848   0.7046   0.7632
     0.7662   0.8336   0.8503   0.8645   0.9180   0.9703   0.9731   1.0151
     1.0198   1.0554   1.0894   1.1272   1.1528   1.1539   1.1669   1.1754
     1.1802   1.2071   1.2345   1.2759   1.3141   1.3891   1.4113   1.4277
     1.4730   1.5014   1.5773   1.6050   1.6205   1.6209   1.6487   1.6920
     1.7034   1.7069   1.7095   1.7353   1.7480   1.7531   1.7751   1.7829
     1.9136   1.9354   1.9472   1.9526   1.9811   1.9838   1.9956   2.0009
     2.0122   2.0149   2.1182   2.2031   2.2421   2.2511   2.2608   2.3555
     2.4124   2.4215   2.4341   2.4506   2.4822   2.5204   2.5742   2.6900
     2.7053   2.7925   4.3202   4.3551   4.4179   4.4332   5.6351   5.7012
     5.7088   6.3693   6.4789   7.4031   7.5171   7.5276   7.7906   7.8527
     7.9424   7.9496   8.0107   8.0704   8.1992   8.2984   8.6278   8.6345
     8.6930   8.7281   8.7768   8.8041   8.8292   8.8816   8.9660   8.9975
     9.0163   9.0392   9.0642   9.1208   9.1874   9.2182   9.2987   9.3334
     9.4620   9.5453

          k = 0.2500 0.0000 0.0000 ( 71933 PWs)   bands (ev):

   -38.3566 -38.2939 -35.9914 -35.9204 -23.0840 -23.0819 -23.0733 -22.9910
   -22.9803 -22.9383 -22.7968 -22.5492 -18.8273 -18.7735 -18.7184 -18.6572
   -18.3606 -18.2966 -17.3475 -17.2795 -17.2441 -17.1783 -17.0227 -16.9484
   -15.6322 -15.5906 -15.2201 -15.2049 -15.0511 -14.9328 -14.9305 -14.9076
   -14.9004 -14.8600 -14.8489 -14.7723 -14.7555 -14.7511 -14.5419 -14.5112
   -14.3923 -14.3556 -14.3132 -14.2841 -14.2740 -14.2739 -14.2667 -14.2565
   -14.2420 -14.1632 -14.1040 -14.0289 -13.0754 -12.7437  -8.4119  -8.3470
    -8.3328  -8.2440  -8.2313  -8.2018  -8.1034  -8.0932  -8.0888  -7.9803
    -7.9699  -7.9413  -7.9413  -7.9312  -7.9053  -7.8232  -7.8098  -7.8063
    -7.8025  -7.7993  -7.7882  -7.6344  -7.4013  -7.2948  -3.1446  -3.1209
    -3.0391  -2.9418  -2.4724  -2.4614  -2.4224  -2.4158  -2.3526  -2.3498
    -2.3174  -2.2503  -2.2185  -2.1805  -2.1619  -2.1267  -2.1186  -2.0642
    -2.0301  -2.0014  -1.9907  -1.9760  -1.7923  -1.7686  -1.7369  -1.7314
    -1.3923  -1.3741  -1.3285  -1.2847  -1.2653  -1.2489  -1.2216  -1.1955
    -1.1918  -1.1859  -1.1824  -1.1607  -1.1143  -1.0713  -1.0202  -0.9241
    -0.8957  -0.8890  -0.7486  -0.6880  -0.6664  -0.6461  -0.5862  -0.5764
    -0.5684  -0.5582  -0.5513  -0.5169  -0.5164  -0.5162  -0.4978  -0.4895
    -0.4884  -0.4817  -0.4574  -0.4099  -0.3831  -0.2838  -0.2660  -0.2462
    -0.2430  -0.2307  -0.2257  -0.2075  -0.1982  -0.1339  -0.1300  -0.0800
    -0.0516  -0.0005   0.0068   0.0165   0.0172   0.0190   0.0254   0.0399
     0.0510   0.1315   0.1428   0.1455   0.1628   0.1907   0.2198   0.2634
     0.2763   0.2818   0.2867   0.3019   0.3229   0.3484   0.3499   0.3600
     0.4469   0.4617   0.5878   0.6144   0.6431   0.6561   0.6629   0.7246
     0.7556   0.7680   0.7866   0.7962   0.7989   0.8563   0.8644   0.8747
     0.9543   0.9964   1.0065   1.0352   1.0663   1.0711   1.1349   1.1503
     1.1775   1.2145   1.2152   1.2960   1.2977   1.3176   1.3437   1.3438
     1.3876   1.4463   1.4936   1.5052   1.5434   1.5539   1.5800   1.5945
     1.5968   1.5970   1.7793   1.7825   1.8017   1.8041   1.8093   1.8467
     1.9639   1.9781   2.1041   2.1519   2.1953   2.2015   2.2582   2.3098
     2.3765   2.3964   2.4165   2.4431   2.6064   2.6597   4.8843   5.1919
     5.2009   5.8599   5.9327   6.0037   6.3007   6.3080   6.5861   6.6291
     6.6844   6.8856   7.1506   7.1925   7.4155   7.7075   7.7306   7.7733
     7.7874   7.8695   7.9295   7.9770   7.9958   8.0328   8.1452   8.2358
     8.3029   8.4267   8.5255   8.5540   8.5654   8.7105   8.8693   8.9106
     8.9793   9.0668

          k = 0.2500 0.2618 0.0000 ( 71920 PWs)   bands (ev):

   -38.3539 -38.2912 -35.9897 -35.9187 -23.0632 -23.0603 -23.0495 -22.9710
   -22.9603 -22.9151 -22.7771 -22.5285 -18.7888 -18.7348 -18.7113 -18.6500
   -18.4713 -18.4079 -17.3176 -17.2496 -17.2379 -17.1720 -17.0883 -17.0142
   -15.5283 -15.4873 -15.1707 -15.1557 -14.9963 -14.9052 -14.8862 -14.8682
   -14.8472 -14.8167 -14.8116 -14.7581 -14.7384 -14.7178 -14.5036 -14.4700
   -14.3932 -14.3692 -14.3567 -14.3322 -14.3049 -14.2637 -14.2569 -14.2532
   -14.2502 -14.1949 -14.1086 -14.0500 -13.0415 -12.7885  -8.4017  -8.3415
    -8.3289  -8.2704  -8.2591  -8.2163  -8.2139  -8.2057  -8.1355  -8.1250
    -8.0978  -8.0064  -7.9947  -7.9708  -7.9603  -7.9184  -7.9082  -7.8756
    -7.8654  -7.8342  -7.7393  -7.7259  -7.4323  -7.3675  -3.2509  -3.2135
    -3.0833  -2.9888  -2.6290  -2.6098  -2.5637  -2.4865  -2.4404  -2.4316
    -2.3833  -2.3685  -2.3357  -2.2946  -2.2855  -2.2256  -2.1790  -2.1410
    -2.1206  -2.0814  -2.0609  -2.0379  -1.9283  -1.8644  -1.7446  -1.7251
    -1.7054  -1.6771  -1.6367  -1.6255  -1.6189  -1.6088  -1.5306  -1.5017
    -1.4751  -1.3993  -1.2632  -1.1484  -1.1425  -1.0913  -1.0206  -0.9714
    -0.9493  -0.9098  -0.9034  -0.8746  -0.8319  -0.8161  -0.7963  -0.7822
    -0.7205  -0.6877  -0.5931  -0.5711  -0.5495  -0.5268  -0.5200  -0.4644
    -0.3800  -0.3762  -0.3249  -0.3168  -0.2776  -0.2625  -0.2412  -0.2276
    -0.2212  -0.2117  -0.1898  -0.1800  -0.1412  -0.1241  -0.0778  -0.0711
    -0.0610  -0.0541  -0.0377  -0.0136   0.0297   0.0575   0.0820   0.1049
     0.1130   0.1394   0.1412   0.1626   0.1667   0.1780   0.1932   0.2047
     0.2526   0.2768   0.2930   0.3279   0.3720   0.3838   0.4423   0.4882
     0.5251   0.5342   0.6357   0.6647   0.6906   0.7064   0.7934   0.8503
     0.8619   0.8740   0.8926   0.9108   0.9136   0.9380   0.9596   0.9814
     0.9873   0.9905   1.0273   1.0333   1.0898   1.0968   1.1068   1.1353
     1.2115   1.2211   1.2329   1.2768   1.2902   1.3997   1.4226   1.4298
     1.4387   1.4460   1.4464   1.4541   1.4958   1.5085   1.5134   1.5383
     1.5636   1.5687   1.6090   1.7999   1.8801   1.9466   2.0627   2.1301
     2.1918   2.3382   2.3945   2.4496   2.4905   2.5487   2.5761   2.6021
     2.6619   2.6726   2.6967   2.7255   2.8769   2.9056   5.1244   5.5292
     5.5377   6.0951   6.1358   6.1937   6.4368   6.4448   6.8956   6.9414
     6.9709   7.2012   7.2074   7.2671   7.4725   7.5814   7.6729   7.8515
     7.8600   7.8985   7.9899   8.1173   8.1484   8.1986   8.2974   8.3730
     8.4419   8.5802   8.6290   8.7117   8.7300   8.8360   8.8502   8.8730
     8.9827   8.9940

          k = 0.2500 0.5236 0.0000 ( 71854 PWs)   bands (ev):

   -38.3474 -38.2847 -35.9856 -35.9146 -23.0173 -23.0018 -22.9910 -22.9218
   -22.9112 -22.8583 -22.7286 -22.4776 -18.7120 -18.6940 -18.6889 -18.6493
   -18.6345 -18.6327 -17.2472 -17.2286 -17.2225 -17.1757 -17.1601 -17.1544
   -15.2937 -15.2559 -15.0444 -15.0294 -14.9223 -14.8840 -14.8689 -14.7951
   -14.7509 -14.7295 -14.7132 -14.6551 -14.6491 -14.6415 -14.5293 -14.4839
   -14.4174 -14.4040 -14.3799 -14.3730 -14.3473 -14.2511 -14.2366 -14.2222
   -14.2091 -14.1976 -14.1440 -14.0755 -12.9568 -12.8971  -8.5890  -8.5786
    -8.4094  -8.3806  -8.3359  -8.3255  -8.2996  -8.2913  -8.2877  -8.2368
    -8.2255  -8.1888  -8.1552  -8.1495  -8.1448  -8.1085  -8.0190  -8.0005
    -7.8906  -7.8805  -7.8635  -7.7191  -7.6119  -7.4539  -3.6601  -3.6068
    -3.3180  -3.2301  -3.1263  -3.0956  -2.9465  -2.8819  -2.6715  -2.6597
    -2.5985  -2.5481  -2.5076  -2.5006  -2.4861  -2.4580  -2.4507  -2.3901
    -2.3251  -2.3164  -2.3019  -2.2945  -2.2153  -2.1445  -2.1304  -2.1017
    -2.0794  -2.0730  -2.0561  -1.9983  -1.8639  -1.8354  -1.8161  -1.7894
    -1.5268  -1.4796  -1.3965  -1.2807  -1.2784  -1.2262  -1.1948  -1.1670
    -1.1585  -1.1311  -1.1111  -1.0824  -1.0637  -1.0443  -0.9657  -0.9293
    -0.8618  -0.8204  -0.7781  -0.7489  -0.7330  -0.7084  -0.7075  -0.6853
    -0.6472  -0.6245  -0.6012  -0.5381  -0.5349  -0.5162  -0.4794  -0.4548
    -0.4198  -0.3296  -0.3005  -0.2712  -0.2295  -0.2113  -0.1160  -0.0922
    -0.0484  -0.0294   0.0168   0.0393   0.0990   0.1160   0.1505   0.1666
     0.2193   0.2731   0.2887   0.3031   0.3681   0.4037   0.4972   0.5122
     0.5441   0.5919   0.6369   0.6589   0.6662   0.7212   0.7823   0.8121
     0.8260   0.8529   0.8567   0.8761   0.8977   0.9054   0.9222   0.9345
     0.9815   1.0030   1.0221   1.0251   1.0364   1.1426   1.1440   1.1741
     1.2017   1.2206   1.2534   1.2591   1.2643   1.2688   1.2923   1.3300
     1.3363   1.3730   1.3845   1.4139   1.4288   1.4587   1.4844   1.4976
     1.5003   1.5057   1.5160   1.5631   1.6014   1.6295   1.6446   1.6662
     1.6837   1.6953   1.8173   1.8252   1.9774   2.2387   2.2652   2.2840
     2.3399   2.3721   2.4360   2.6197   2.7935   2.8179   2.8768   2.9019
     2.9184   2.9345   3.4384   3.4617   3.5435   3.5760   5.5912   6.3408
     6.3489   6.4232   6.4360   6.5415   6.7505   6.8119   6.9002   6.9657
     7.5649   7.6288   7.7660   7.7791   7.8974   7.9261   8.0660   8.1007
     8.1500   8.1726   8.2023   8.3229   8.3811   8.5121   8.5446   8.5853
     8.6891   8.7221   8.7877   8.8655   8.8834   9.0293   9.0635   9.0945
     9.1209   9.1737

          k = 0.2500 0.7854 0.0000 ( 71912 PWs)   bands (ev):

   -38.3409 -38.2782 -35.9815 -35.9105 -22.9706 -22.9417 -22.9309 -22.8714
   -22.8608 -22.7999 -22.6789 -22.4254 -18.9200 -18.8579 -18.6769 -18.6155
   -18.5841 -18.5292 -17.3635 -17.2893 -17.2105 -17.1589 -17.1442 -17.0912
   -15.0900 -15.0726 -14.9889 -14.9275 -14.9013 -14.8846 -14.8080 -14.7617
   -14.7561 -14.7234 -14.6812 -14.5726 -14.5566 -14.5446 -14.4836 -14.4835
   -14.4594 -14.4352 -14.3436 -14.3167 -14.3085 -14.2418 -14.1870 -14.1807
   -14.1716 -14.1610 -14.1486 -14.1151 -13.0041 -12.8680  -8.8651  -8.8547
    -8.6845  -8.5545  -8.5039  -8.4937  -8.3622  -8.3587  -8.3518  -8.3215
    -8.2835  -8.2719  -8.2654  -8.2386  -8.2269  -8.2119  -8.1984  -7.9787
    -7.9397  -7.9295  -7.8816  -7.7707  -7.7562  -7.5473  -4.1419  -4.0909
    -3.7320  -3.6514  -3.5465  -3.5212  -3.3345  -3.2634  -3.0660  -3.0567
    -3.0361  -3.0192  -3.0097  -2.9541  -2.7770  -2.7683  -2.6856  -2.6224
    -2.4816  -2.4454  -2.4351  -2.4256  -2.3511  -2.3461  -2.1619  -2.1052
    -2.0784  -2.0550  -2.0324  -2.0075  -1.9766  -1.9705  -1.9353  -1.8867
    -1.6275  -1.6224  -1.5949  -1.4751  -1.4713  -1.4683  -1.4200  -1.3476
    -1.3200  -1.2944  -1.2940  -1.2678  -1.2040  -1.1840  -1.0787  -1.0084
    -0.9933  -0.9850  -0.9826  -0.9756  -0.9559  -0.9282  -0.9128  -0.8958
    -0.8338  -0.8216  -0.7868  -0.7595  -0.7282  -0.6993  -0.6561  -0.4737
    -0.4676  -0.3951  -0.3120  -0.2887  -0.2805  -0.2532  -0.0822  -0.0371
    -0.0185  -0.0028   0.0588   0.0917   0.1304   0.1582   0.1718   0.2203
     0.2397   0.3207   0.4447   0.4829   0.4883   0.5819   0.6392   0.7082
     0.7439   0.7529   0.7807   0.8352   0.9113   0.9423   0.9512   0.9588
     0.9792   0.9929   1.0283   1.0402   1.0806   1.0929   1.1055   1.1242
     1.1489   1.1564   1.1768   1.2059   1.2724   1.2990   1.3137   1.3550
     1.3635   1.3943   1.4300   1.4444   1.4855   1.4960   1.5182   1.5366
     1.5388   1.5686   1.5922   1.6045   1.6409   1.6526   1.6654   1.6770
     1.6841   1.7301   1.7439   1.7712   1.7871   1.9350   1.9658   2.0086
     2.0257   2.0661   2.0746   2.1916   2.2233   2.2333   2.2531   2.2626
     2.3258   2.4374   2.4400   2.5713   2.6740   2.7367   2.7453   2.8358
     2.8775   2.9293   3.9486   3.9794   4.0412   4.0622   5.7890   6.0831
     6.0913   6.5692   6.6574   7.0004   7.0656   7.0825   7.4565   7.5237
     7.7140   7.9363   7.9800   7.9989   8.1827   8.3736   8.3911   8.4801
     8.5158   8.5630   8.6684   8.6929   8.7339   8.8474   8.9405   8.9495
     8.9827   9.0275   9.0906   9.1489   9.1849   9.2297   9.2673   9.3078
     9.3566   9.3776

          k = 0.2500-1.0472 0.0000 ( 71856 PWs)   bands (ev):

   -38.3382 -38.2755 -35.9798 -35.9088 -22.9509 -22.9163 -22.9054 -22.8502
   -22.8396 -22.7753 -22.6579 -22.4034 -19.0005 -18.9386 -18.6698 -18.6083
   -18.5371 -18.4819 -17.4140 -17.3399 -17.2052 -17.1388 -17.1229 -17.0551
   -15.1117 -15.0866 -14.8975 -14.8879 -14.8550 -14.8503 -14.8004 -14.7609
   -14.7569 -14.7316 -14.7062 -14.5456 -14.5304 -14.4886 -14.4607 -14.4494
   -14.4451 -14.4176 -14.3275 -14.3121 -14.2547 -14.2132 -14.2053 -14.1624
   -14.1563 -14.1440 -14.1431 -14.1309 -13.0473 -12.8299  -8.9510  -8.9405
    -8.7805  -8.6547  -8.6445  -8.6313  -8.4506  -8.3786  -8.3502  -8.3487
    -8.3384  -8.2920  -8.2784  -8.2369  -8.2244  -8.2154  -8.2150  -7.9802
    -7.9698  -7.9656  -7.8907  -7.7817  -7.7690  -7.6246  -4.3397  -4.2903
    -3.9196  -3.8405  -3.7065  -3.6834  -3.4932  -3.4170  -3.3006  -3.2908
    -3.2501  -3.2470  -3.2405  -3.1699  -2.7939  -2.7850  -2.6921  -2.6249
    -2.6176  -2.5773  -2.4555  -2.4505  -2.3451  -2.3403  -2.1722  -2.1259
    -2.1214  -2.0360  -2.0181  -1.9936  -1.9386  -1.9012  -1.8905  -1.8663
    -1.8259  -1.7568  -1.6815  -1.6497  -1.6356  -1.5522  -1.5102  -1.4271
    -1.3683  -1.3462  -1.3236  -1.3196  -1.2248  -1.1888  -1.1398  -1.0880
    -1.0807  -1.0634  -1.0591  -1.0568  -1.0249  -1.0141  -1.0007  -0.9291
    -0.9228  -0.9121  -0.8770  -0.8088  -0.7766  -0.7103  -0.6672  -0.4485
    -0.4429  -0.3708  -0.3182  -0.3116  -0.2913  -0.2450  -0.0755  -0.0335
    -0.0061   0.0100   0.0204   0.1020   0.1274   0.1312   0.1452   0.1624
     0.2571   0.3370   0.5199   0.5309   0.5667   0.6499   0.7610   0.7824
     0.7844   0.8144   0.8384   0.8739   0.9277   0.9860   0.9880   1.0028
     1.0150   1.0320   1.0360   1.0835   1.1392   1.1589   1.1607   1.1668
     1.1780   1.1916   1.2095   1.2105   1.3258   1.3674   1.4076   1.4170
     1.4423   1.4843   1.5452   1.5544   1.5739   1.5926   1.6345   1.6481
     1.6578   1.6778   1.6877   1.7031   1.7326   1.7373   1.8590   1.8929
     1.9335   1.9748   1.9876   1.9896   2.0029   2.0392   2.1092   2.1737
     2.1899   2.2028   2.2348   2.2568   2.2613   2.2703   2.3236   2.3276
     2.3435   2.3918   2.4010   2.4261   2.4509   2.5297   2.5939   2.6975
     2.7693   2.8366   4.0926   4.1270   4.2009   4.2192   5.7719   5.8933
     5.9015   6.4586   6.5584   7.2674   7.2777   7.3480   7.6571   7.6992
     7.7830   7.8326   7.9666   8.0430   8.2390   8.3211   8.6638   8.7145
     8.7830   8.8063   8.9150   8.9183   8.9640   9.0236   9.0382   9.0551
     9.0902   9.1476   9.1616   9.2275   9.2371   9.3400   9.3556   9.3668
     9.4250   9.5008

          k = 0.3750 0.0000 0.0000 ( 71958 PWs)   bands (ev):

   -38.3566 -38.2939 -35.9914 -35.9204 -23.0804 -23.0659 -23.0551 -23.0098
   -22.9993 -22.9288 -22.8070 -22.5512 -18.8255 -18.7717 -18.7103 -18.6490
   -18.3606 -18.2966 -17.3545 -17.2867 -17.2716 -17.2065 -17.0227 -16.9484
   -15.5363 -15.4952 -15.2012 -15.1816 -15.0725 -14.9930 -14.9577 -14.9225
   -14.9084 -14.8593 -14.8407 -14.8066 -14.7794 -14.7787 -14.5222 -14.4866
   -14.3723 -14.3407 -14.3154 -14.2941 -14.2782 -14.2773 -14.2727 -14.2610
   -14.2529 -14.1705 -14.1159 -14.0282 -13.0037 -12.8224  -8.4122  -8.3511
    -8.3371  -8.2495  -8.2370  -8.2117  -8.1041  -8.0632  -8.0531  -7.9701
    -7.9599  -7.9454  -7.9433  -7.9349  -7.8715  -7.8473  -7.8369  -7.8075
    -7.7972  -7.7951  -7.7769  -7.6661  -7.4113  -7.3015  -2.9885  -2.9656
    -2.8994  -2.8011  -2.6053  -2.5912  -2.5227  -2.4104  -2.3948  -2.3742
    -2.3417  -2.3074  -2.2854  -2.2751  -2.1541  -2.1194  -2.1116  -2.0516
    -2.0513  -2.0200  -2.0094  -1.9685  -1.8191  -1.7873  -1.7488  -1.6826
    -1.3718  -1.3360  -1.3281  -1.2800  -1.2316  -1.1931  -1.1895  -1.1838
    -1.1803  -1.1227  -1.1127  -1.1034  -1.0386  -1.0188  -0.9686  -0.9381
    -0.8843  -0.8102  -0.8032  -0.7370  -0.7286  -0.6983  -0.6779  -0.6505
    -0.6369  -0.6148  -0.5772  -0.5700  -0.5685  -0.5435  -0.5203  -0.5038
    -0.4933  -0.4774  -0.4109  -0.4018  -0.3740  -0.3290  -0.3041  -0.2794
    -0.2751  -0.2495  -0.2412  -0.2239  -0.2130  -0.1383  -0.1290  -0.0944
    -0.0732   0.0065   0.0137   0.0202   0.0274   0.0642   0.0695   0.1157
     0.1230   0.1440   0.1528   0.1891   0.2038   0.2052   0.2458   0.2562
     0.2746   0.2754   0.2982   0.3144   0.3347   0.3481   0.3559   0.3622
     0.4749   0.4934   0.5531   0.5879   0.5888   0.6191   0.6425   0.6513
     0.6580   0.6633   0.7341   0.7894   0.7904   0.7952   0.9151   0.9388
     0.9630   1.0320   1.0484   1.0830   1.1095   1.1188   1.1272   1.1291
     1.1961   1.2181   1.2285   1.2595   1.2731   1.2809   1.2831   1.3236
     1.3237   1.3795   1.4175   1.4903   1.5726   1.5892   1.6232   1.6270
     1.6669   1.6741   1.7302   1.7486   1.8034   1.8532   1.8819   1.9195
     1.9490   1.9733   2.0403   2.1536   2.1569   2.2076   2.2446   2.3538
     2.3657   2.4322   2.4389   2.4599   2.5634   2.6166   5.0444   5.3946
     5.4029   5.6759   5.9545   5.9617   6.0906   6.1693   6.8191   6.8815
     6.8892   6.9347   6.9830   7.1456   7.5072   7.5916   7.6000   7.6591
     7.8450   7.8724   7.9323   7.9393   8.0975   8.1767   8.2029   8.2362
     8.3380   8.3940   8.4895   8.6571   8.8267   8.8352   8.8609   8.8965
     8.9440   9.0343

          k = 0.3750 0.2618 0.0000 ( 71960 PWs)   bands (ev):

   -38.3539 -38.2912 -35.9897 -35.9187 -23.0617 -23.0431 -23.0323 -22.9888
   -22.9783 -22.9063 -22.7866 -22.5304 -18.7871 -18.7331 -18.7033 -18.6420
   -18.4713 -18.4079 -17.3243 -17.2642 -17.2564 -17.1989 -17.0882 -17.0140
   -15.4329 -15.3924 -15.1485 -15.1324 -15.0176 -14.9370 -14.9304 -14.8990
   -14.8605 -14.8281 -14.8036 -14.7802 -14.7563 -14.7426 -14.4856 -14.4473
   -14.3873 -14.3635 -14.3483 -14.3387 -14.3166 -14.2670 -14.2576 -14.2559
   -14.2552 -14.1977 -14.1213 -14.0445 -12.9853 -12.8470  -8.4017  -8.3512
    -8.3390  -8.2954  -8.2846  -8.2431  -8.2323  -8.2250  -8.1592  -8.1485
    -8.1353  -8.0226  -8.0195  -7.9858  -7.9803  -7.8663  -7.8562  -7.8358
    -7.8351  -7.8245  -7.6986  -7.6820  -7.4066  -7.3435  -3.0921  -3.0544
    -2.9340  -2.8403  -2.7296  -2.7017  -2.6215  -2.5258  -2.4264  -2.4132
    -2.4130  -2.3943  -2.3639  -2.3283  -2.3116  -2.2843  -2.2740  -2.2544
    -2.1709  -2.1235  -2.0639  -2.0434  -1.9289  -1.8549  -1.7349  -1.7232
    -1.6831  -1.6404  -1.6323  -1.6233  -1.6180  -1.6134  -1.4203  -1.3829
    -1.3455  -1.2814  -1.2276  -1.1655  -1.1647  -1.1481  -1.0908  -1.0808
    -0.9902  -0.9650  -0.9545  -0.9227  -0.9141  -0.9101  -0.8339  -0.8254
    -0.7539  -0.7498  -0.6327  -0.5899  -0.5535  -0.5063  -0.4852  -0.4384
    -0.3827  -0.3698  -0.3477  -0.3321  -0.2901  -0.2850  -0.2517  -0.2496
    -0.2164  -0.2104  -0.1811  -0.1756  -0.1407  -0.1243  -0.0894  -0.0854
    -0.0545  -0.0497  -0.0156  -0.0068   0.0189   0.0850   0.0963   0.1425
     0.1468   0.1498   0.1604   0.1636   0.1778   0.1970   0.2123   0.2263
     0.2563   0.2914   0.3019   0.3273   0.3427   0.4384   0.4626   0.4767
     0.4962   0.5510   0.6490   0.6770   0.6897   0.7236   0.7584   0.7977
     0.8026   0.8367   0.8782   0.8981   0.9070   0.9562   0.9841   0.9915
     1.0148   1.0288   1.0305   1.0319   1.0637   1.0866   1.1062   1.1268
     1.2009   1.2495   1.2534   1.2787   1.2920   1.3079   1.3453   1.3507
     1.4010   1.4045   1.4130   1.4391   1.4709   1.5212   1.5299   1.5307
     1.5633   1.6025   1.6080   1.6524   1.9996   2.0839   2.2443   2.3009
     2.3789   2.3942   2.4106   2.4766   2.5287   2.5437   2.5536   2.5933
     2.6677   2.6813   2.6835   2.7094   2.8122   2.8412   5.2421   5.6951
     5.7030   5.8937   6.1584   6.1660   6.2811   6.3551   6.9838   7.0459
     7.1246   7.1985   7.2062   7.4484   7.5885   7.6728   7.7315   7.8219
     7.8254   7.8836   8.0025   8.0782   8.2315   8.2917   8.3507   8.3568
     8.4421   8.4823   8.5429   8.6500   8.7786   8.7965   8.8825   8.9498
     8.9623   8.9951

          k = 0.3750 0.5236 0.0000 ( 71879 PWs)   bands (ev):

   -38.3474 -38.2847 -35.9856 -35.9146 -23.0162 -22.9870 -22.9762 -22.9371
   -22.9266 -22.8509 -22.7365 -22.4791 -18.7118 -18.6875 -18.6863 -18.6491
   -18.6332 -18.6249 -17.2521 -17.2471 -17.2288 -17.1832 -17.1801 -17.1573
   -15.2034 -15.1678 -15.0335 -15.0211 -14.9185 -14.8846 -14.8790 -14.7833
   -14.7567 -14.7491 -14.7326 -14.7163 -14.6733 -14.6555 -14.5355 -14.4943
   -14.4357 -14.4037 -14.3995 -14.3596 -14.3300 -14.2379 -14.2319 -14.2178
   -14.2144 -14.2028 -14.1442 -14.0770 -12.9420 -12.9093  -8.5871  -8.5768
    -8.4495  -8.4392  -8.4039  -8.3795  -8.2990  -8.2949  -8.2871  -8.2660
    -8.2314  -8.2201  -8.1797  -8.1627  -8.0442  -8.0338  -8.0131  -7.8994
    -7.8933  -7.8833  -7.8653  -7.7248  -7.5577  -7.4532  -3.5145  -3.4634
    -3.2114  -3.1757  -3.1718  -3.0837  -2.9751  -2.9060  -2.6361  -2.6262
    -2.5720  -2.5247  -2.5207  -2.5089  -2.4784  -2.4512  -2.4432  -2.3992
    -2.3652  -2.3561  -2.3530  -2.2962  -2.2898  -2.2661  -2.2432  -2.2338
    -2.0604  -2.0127  -1.9388  -1.9044  -1.8041  -1.7675  -1.7644  -1.7158
    -1.5952  -1.5479  -1.4801  -1.4458  -1.4344  -1.3538  -1.3003  -1.2404
    -1.2225  -1.1930  -1.1350  -1.1250  -1.0916  -1.0754  -0.9127  -0.8913
    -0.8837  -0.8327  -0.7974  -0.7557  -0.7115  -0.6859  -0.6822  -0.6661
    -0.6446  -0.6124  -0.6054  -0.5472  -0.5388  -0.5166  -0.4787  -0.4264
    -0.4142  -0.3918  -0.3497  -0.3402  -0.2924  -0.2645  -0.1165  -0.1106
     0.0115   0.0380   0.0784   0.0858   0.1140   0.1690   0.1996   0.2202
     0.2591   0.3095   0.3463   0.3573   0.3688   0.4251   0.4757   0.5583
     0.5624   0.6467   0.6611   0.6979   0.7150   0.7197   0.7580   0.7617
     0.7963   0.8029   0.8403   0.8572   0.8619   0.8672   0.8814   0.8995
     0.9206   0.9521   0.9606   1.0574   1.0786   1.0947   1.1468   1.1637
     1.1969   1.2091   1.2531   1.2742   1.2883   1.2993   1.3200   1.3236
     1.3329   1.3594   1.3701   1.3969   1.4104   1.4306   1.4375   1.4504
     1.4870   1.5005   1.5376   1.5515   1.5755   1.5884   1.6447   1.6819
     1.6893   1.6941   1.7794   1.7867   2.1622   2.2960   2.3760   2.3888
     2.6287   2.6708   2.7386   2.7913   2.8183   2.8301   2.8781   2.8962
     2.9633   2.9741   3.2580   3.2834   3.3829   3.4181   5.6437   6.3880
     6.3969   6.4344   6.4483   6.4756   6.8291   6.8882   6.9361   6.9995
     7.6465   7.7155   7.8239   7.8732   7.9402   7.9556   7.9799   8.0377
     8.1270   8.1390   8.2695   8.3994   8.4413   8.5352   8.5799   8.6701
     8.6991   8.8004   8.8580   8.8690   8.8863   8.9237   8.9688   9.0082
     9.0580   9.1213

          k = 0.3750 0.7854 0.0000 ( 71924 PWs)   bands (ev):

   -38.3409 -38.2782 -35.9815 -35.9105 -22.9697 -22.9295 -22.9186 -22.8840
   -22.8735 -22.7940 -22.6851 -22.4265 -18.9200 -18.8578 -18.6694 -18.6079
   -18.5828 -18.5279 -17.3635 -17.2893 -17.2326 -17.1668 -17.1641 -17.0965
   -15.0369 -15.0211 -14.9333 -14.9185 -14.9161 -14.8537 -14.7757 -14.7618
   -14.7449 -14.7028 -14.6841 -14.5997 -14.5746 -14.5601 -14.5425 -14.5346
   -14.4878 -14.4747 -14.3348 -14.3095 -14.3000 -14.2470 -14.1818 -14.1755
   -14.1666 -14.1656 -14.1526 -14.1200 -12.9740 -12.9001  -8.7837  -8.7734
    -8.6062  -8.5113  -8.5010  -8.4995  -8.3588  -8.3586  -8.3478  -8.3421
    -8.2746  -8.2626  -8.2449  -8.2427  -8.2335  -8.2114  -8.1793  -8.0447
    -8.0344  -7.9803  -7.8847  -7.8547  -7.7903  -7.6216  -3.9987  -3.9518
    -3.6351  -3.6067  -3.6041  -3.5290  -3.3854  -3.3096  -3.0552  -3.0459
    -3.0299  -3.0263  -3.0204  -2.9622  -2.6987  -2.6885  -2.6055  -2.5310
    -2.4746  -2.4670  -2.3475  -2.3363  -2.3343  -2.3093  -2.3042  -2.2063
    -2.2024  -2.1654  -2.0484  -2.0192  -2.0004  -1.9629  -1.8727  -1.8413
    -1.8295  -1.8052  -1.7647  -1.6808  -1.5503  -1.5049  -1.4725  -1.3463
    -1.3416  -1.3109  -1.3022  -1.2858  -1.1534  -1.1217  -1.0908  -1.0376
    -1.0061  -0.9929  -0.9573  -0.9374  -0.9025  -0.8904  -0.8861  -0.8538
    -0.8490  -0.8077  -0.7724  -0.7383  -0.6949  -0.6908  -0.6364  -0.5295
    -0.5210  -0.4470  -0.4397  -0.4267  -0.3108  -0.2795  -0.0888  -0.0342
     0.0649   0.1334   0.1577   0.1698   0.1941   0.2588   0.2777   0.2928
     0.2937   0.3942   0.4126   0.4610   0.5772   0.6492   0.6743   0.6978
     0.7575   0.7749   0.8003   0.8060   0.8599   0.8645   0.8725   0.9111
     0.9375   0.9804   1.0393   1.0561   1.0913   1.0979   1.1177   1.1258
     1.1589   1.1775   1.1990   1.2073   1.2338   1.2497   1.2654   1.2772
     1.3559   1.3820   1.4096   1.4371   1.4644   1.4743   1.4894   1.5072
     1.5285   1.5584   1.5689   1.5847   1.6056   1.6105   1.6319   1.6884
     1.6954   1.7239   1.7375   1.7998   1.8094   1.9142   1.9557   1.9744
     2.0060   2.1033   2.1116   2.1891   2.1978   2.2686   2.3145   2.3555
     2.6341   2.6595   2.6780   2.7397   2.7470   2.7963   2.8243   2.8489
     3.0597   3.0781   3.6399   3.6710   3.7640   3.7887   5.8954   6.3124
     6.3222   6.6665   6.7412   6.8741   6.8882   7.0504   7.3491   7.4205
     7.5986   7.8674   7.9055   7.9281   8.2407   8.4079   8.4277   8.4460
     8.4694   8.5791   8.6593   8.6737   8.7907   8.8907   8.9883   9.0430
     9.0871   9.1113   9.1921   9.2266   9.2316   9.2708   9.3912   9.4021
     9.4614   9.5163

          k = 0.3750-1.0472 0.0000 ( 71902 PWs)   bands (ev):

   -38.3382 -38.2755 -35.9798 -35.9088 -22.9501 -22.9052 -22.8943 -22.8615
   -22.8510 -22.7700 -22.6635 -22.4044 -19.0004 -18.9385 -18.6623 -18.6008
   -18.5359 -18.4808 -17.4140 -17.3399 -17.2266 -17.1606 -17.1276 -17.0600
   -15.0651 -15.0383 -14.9167 -14.8938 -14.8167 -14.8004 -14.7708 -14.7680
   -14.7158 -14.7133 -14.6861 -14.5427 -14.5335 -14.5315 -14.5239 -14.4925
   -14.4883 -14.4722 -14.3017 -14.2952 -14.2623 -14.2398 -14.2060 -14.1625
   -14.1536 -14.1465 -14.1414 -14.1342 -13.0009 -12.8832  -8.8195  -8.8091
    -8.6580  -8.5447  -8.5166  -8.5064  -8.4914  -8.4811  -8.3513  -8.3455
[...]
    -2.1811  -2.1378  -2.0615  -2.0473  -1.9293  -1.8509  -1.7295  -1.7263
    -1.6709  -1.6289  -1.6273  -1.6267  -1.6173  -1.6106  -1.3003  -1.2991
    -1.2725  -1.2309  -1.1985  -1.1857  -1.1676  -1.1508  -1.1419  -1.1048
    -1.0830  -1.0644  -1.0613  -0.9965  -0.9516  -0.9200  -0.8209  -0.8068
    -0.7216  -0.6958  -0.6953  -0.6509  -0.5513  -0.4973  -0.4549  -0.4273
    -0.4053  -0.3805  -0.3609  -0.3489  -0.2979  -0.2972  -0.2404  -0.2365
    -0.2270  -0.2101  -0.1703  -0.1562  -0.1402  -0.1175  -0.0960  -0.0903
    -0.0546  -0.0423  -0.0021  -0.0013   0.0115   0.0934   0.1005   0.1373
     0.1529   0.1547   0.1774   0.1940   0.2015   0.2064   0.2332   0.2341
     0.2520   0.2544   0.2722   0.3363   0.3528   0.4440   0.4544   0.4903
     0.5420   0.5679   0.6477   0.6777   0.6880   0.7054   0.7151   0.7344
     0.8135   0.8269   0.8441   0.8570   0.8964   0.9681   1.0245   1.0356
     1.0406   1.0466   1.0502   1.0519   1.0821   1.1224   1.1444   1.1720
     1.1811   1.1886   1.1979   1.2516   1.2534   1.2956   1.3378   1.3435
     1.3489   1.3580   1.4016   1.4084   1.5121   1.5397   1.5463   1.5526
     1.5548   1.5617   1.6055   1.6106   2.0811   2.0925   2.3479   2.3824
     2.3835   2.3994   2.4363   2.5227   2.5277   2.5492   2.5906   2.6110
     2.6507   2.6928   2.6942   2.7009   2.7482   2.7755   5.3132   5.7817
     5.8999   5.9071   5.9171   5.9247   6.4043   6.4735   6.8421   6.9179
     7.2924   7.4813   7.4839   7.4923   7.5340   7.5442   7.6326   7.7213
     7.7933   7.9258   7.9577   8.0105   8.2321   8.3362   8.3526   8.3890
     8.4865   8.5704   8.5883   8.6540   8.7151   8.7192   8.8547   8.8998
     8.9240   8.9698

          k =-0.5000 0.5236 0.0000 ( 71862 PWs)   bands (ev):

   -38.3474 -38.2847 -35.9856 -35.9146 -23.0157 -22.9770 -22.9660 -22.9474
   -22.9370 -22.8475 -22.7401 -22.4797 -18.7118 -18.6869 -18.6831 -18.6490
   -18.6326 -18.6217 -17.2576 -17.2533 -17.2293 -17.1922 -17.1833 -17.1576
   -15.1436 -15.1114 -15.0463 -15.0314 -14.9163 -14.9040 -14.8754 -14.8019
   -14.7579 -14.7574 -14.7458 -14.7199 -14.6692 -14.6638 -14.5373 -14.4988
   -14.4496 -14.4094 -14.4002 -14.3553 -14.3236 -14.2311 -14.2293 -14.2178
   -14.2174 -14.2047 -14.1445 -14.0775 -12.9276 -12.9225  -8.5531  -8.5428
    -8.5240  -8.5137  -8.3789  -8.3701  -8.3365  -8.2984  -8.2866  -8.2859
    -8.2308  -8.2196  -8.1973  -8.1801  -8.0131  -7.9541  -7.9439  -7.9433
    -7.9329  -7.8657  -7.8357  -7.7516  -7.5028  -7.4843  -3.3907  -3.3423
    -3.3027  -3.2625  -3.0591  -3.0372  -2.9696  -2.9666  -2.5974  -2.5884
    -2.5586  -2.5491  -2.5092  -2.5077  -2.4486  -2.4410  -2.4369  -2.4239
    -2.4121  -2.4098  -2.4035  -2.3862  -2.2916  -2.2843  -2.2700  -2.2626
    -2.0489  -2.0198  -1.7783  -1.7645  -1.7466  -1.7274  -1.7196  -1.6884
    -1.6394  -1.6336  -1.6075  -1.5785  -1.5439  -1.4681  -1.3005  -1.2838
    -1.2255  -1.1992  -1.1575  -1.1090  -1.0853  -1.0666  -0.9269  -0.9100
    -0.8418  -0.8327  -0.8066  -0.7726  -0.6832  -0.6818  -0.6683  -0.6564
    -0.6365  -0.6035  -0.5726  -0.5700  -0.5578  -0.5346  -0.4857  -0.4655
    -0.4069  -0.4052  -0.3997  -0.3529  -0.2893  -0.2741  -0.1158  -0.1144
     0.0567   0.0619   0.0801   0.1170   0.1667   0.1684   0.2110   0.2665
     0.2708   0.3006   0.3371   0.3387   0.4100   0.4808   0.4955   0.5555
     0.5723   0.6340   0.6767   0.7235   0.7291   0.7435   0.7526   0.7622
     0.7696   0.7783   0.8260   0.8438   0.8446   0.8470   0.8546   0.8555
     0.9123   0.9301   0.9455   1.0634   1.0997   1.1120   1.1414   1.2019
     1.2190   1.2192   1.2216   1.2276   1.2738   1.2765   1.2836   1.3069
     1.3363   1.3456   1.3609   1.3758   1.4249   1.4431   1.4662   1.4703
     1.4859   1.5080   1.5245   1.5316   1.5614   1.5911   1.6330   1.6778
     1.7319   1.7347   1.7358   1.7440   2.2654   2.2787   2.3930   2.3954
     2.7889   2.7899   2.8409   2.8596   2.8753   2.8880   2.9753   3.0021
     3.0229   3.0551   3.1168   3.1530   3.1887   3.2264   5.6676   6.4110
     6.4220   6.4409   6.4410   6.4506   6.8832   6.9351   6.9413   6.9935
     7.7109   7.7521   7.7634   7.8518   7.9056   7.9748   8.0699   8.0788
     8.0922   8.1014   8.3550   8.4762   8.5374   8.5744   8.5847   8.6735
     8.7457   8.8114   8.8142   8.8579   8.8664   8.8851   8.9055   9.0004
     9.0180   9.1382

          k =-0.5000 0.7854 0.0000 ( 71874 PWs)   bands (ev):

   -38.3409 -38.2782 -35.9815 -35.9105 -22.9693 -22.9217 -22.9107 -22.8920
   -22.8815 -22.7914 -22.6879 -22.4270 -18.9199 -18.8578 -18.6662 -18.6047
   -18.5823 -18.5274 -17.3634 -17.2892 -17.2417 -17.1760 -17.1662 -17.0987
   -14.9969 -14.9791 -14.9641 -14.9524 -14.8745 -14.8068 -14.7803 -14.7531
   -14.7315 -14.6921 -14.6887 -14.6312 -14.5969 -14.5810 -14.5519 -14.5409
   -14.4986 -14.4975 -14.3293 -14.3126 -14.2899 -14.2532 -14.1782 -14.1724
   -14.1695 -14.1628 -14.1561 -14.1223 -12.9411 -12.9338  -8.6797  -8.6694
    -8.6412  -8.6308  -8.5210  -8.4621  -8.4485  -8.3577  -8.2780  -8.2659
    -8.2631  -8.2586  -8.2519  -8.2061  -8.1835  -8.1827  -8.1729  -8.1725
    -8.0919  -7.9768  -7.9392  -7.8862  -7.7324  -7.7073  -3.8991  -3.8570
    -3.7110  -3.6730  -3.5156  -3.4494  -3.4440  -3.3573  -3.0430  -3.0420
    -3.0337  -3.0325  -3.0215  -2.9663  -2.6183  -2.6077  -2.5411  -2.5290
    -2.4861  -2.4676  -2.3949  -2.3757  -2.3152  -2.3041  -2.2852  -2.2726
    -2.1934  -2.1555  -2.0623  -2.0335  -2.0206  -2.0123  -1.9312  -1.9175
    -1.8745  -1.8703  -1.7474  -1.7012  -1.6166  -1.5660  -1.3961  -1.3646
    -1.3547  -1.3407  -1.3028  -1.2901  -1.1071  -1.0917  -1.0750  -1.0561
    -1.0139  -0.9897  -0.9870  -0.9610  -0.8790  -0.8768  -0.8649  -0.8617
    -0.8187  -0.7654  -0.7516  -0.7246  -0.7009  -0.6719  -0.5927  -0.5811
    -0.5580  -0.5332  -0.4942  -0.4729  -0.3133  -0.2843  -0.0768  -0.0472
     0.1390   0.1509   0.2176   0.2232   0.2311   0.2413   0.3089   0.3273
     0.3501   0.3785   0.4268   0.5100   0.5388   0.7297   0.7329   0.7341
     0.7603   0.7629   0.7865   0.8125   0.8199   0.8470   0.8540   0.8818
     0.9029   0.9426   1.0313   1.0680   1.0753   1.0902   1.1138   1.1157
     1.1191   1.1530   1.1797   1.2056   1.2190   1.2758   1.3254   1.3343
     1.3530   1.3651   1.3753   1.3851   1.4364   1.4871   1.5085   1.5334
     1.5369   1.5554   1.5688   1.5704   1.5908   1.6047   1.6061   1.6292
     1.6896   1.6961   1.7210   1.7278   1.8090   1.9147   1.9772   1.9921
     2.1414   2.1491   2.1518   2.1605   2.1720   2.1758   2.3037   2.3207
     2.6796   2.6816   2.7127   2.7428   2.8097   2.8319   3.2154   3.2484
     3.2511   3.2830   3.3882   3.4211   3.4303   3.4538   5.9436   6.5593
     6.5684   6.5814   6.6069   6.7819   6.8451   7.0606   7.2833   7.3593
     7.5490   7.8308   7.8894   7.9161   8.2675   8.3971   8.4450   8.4841
     8.4856   8.5661   8.5827   8.6150   8.8769   8.9005   8.9585   9.0233
     9.1748   9.2798   9.2980   9.3026   9.3364   9.3657   9.3748   9.3970
     9.4811   9.4884

          k =-0.5000-1.0472 0.0000 ( 71908 PWs)   bands (ev):

   -38.3381 -38.2755 -35.9798 -35.9088 -22.9498 -22.8983 -22.8873 -22.8685
   -22.8581 -22.7677 -22.6659 -22.4048 -19.0004 -18.9384 -18.6592 -18.5976
   -18.5354 -18.4803 -17.4140 -17.3399 -17.2353 -17.1696 -17.1296 -17.0620
   -15.0306 -14.9993 -14.9492 -14.9345 -14.8093 -14.7720 -14.7431 -14.7243
   -14.7117 -14.6860 -14.6631 -14.5823 -14.5594 -14.5424 -14.5335 -14.5201
   -14.5189 -14.4842 -14.2792 -14.2748 -14.2731 -14.2689 -14.2063 -14.1625
   -14.1505 -14.1498 -14.1383 -14.1375 -12.9490 -12.9380  -8.6831  -8.6727
    -8.6324  -8.6221  -8.5422  -8.5016  -8.4646  -8.3582  -8.3510  -8.3477
    -8.3347  -8.3240  -8.2569  -8.2545  -8.2444  -8.2429  -8.2263  -8.2224
    -8.2150  -8.0432  -7.9676  -7.9022  -7.8842  -7.8178  -4.0988  -4.0588
    -3.8703  -3.8341  -3.7103  -3.6437  -3.6080  -3.5188  -3.2760  -3.2751
    -3.2664  -3.2655  -3.2347  -3.1814  -2.6230  -2.6134  -2.5195  -2.5052
    -2.4680  -2.4100  -2.3922  -2.3564  -2.3545  -2.3436  -2.2701  -2.2566
    -2.2523  -2.2190  -2.1927  -2.1714  -2.1215  -2.0393  -2.0356  -2.0271
    -2.0055  -1.9794  -1.7644  -1.7203  -1.6444  -1.5960  -1.4329  -1.4067
    -1.3960  -1.3882  -1.3609  -1.3540  -1.1921  -1.1541  -1.1062  -1.0817
    -1.0760  -1.0490  -1.0018  -0.9763  -0.9590  -0.9586  -0.9477  -0.9394
    -0.8593  -0.8273  -0.8090  -0.7798  -0.7796  -0.6783  -0.5977  -0.5950
    -0.5779  -0.5553  -0.5115  -0.4894  -0.3163  -0.2852  -0.0552  -0.0185
     0.1697   0.1756   0.2367   0.2439   0.2797   0.2898   0.3031   0.3224
     0.3240   0.3711   0.4450   0.5567   0.5588   0.7722   0.7776   0.8237
     0.8332   0.8529   0.8729   0.9088   0.9111   0.9398   0.9411   0.9919
     0.9926   0.9962   1.0586   1.0886   1.1017   1.1214   1.1360   1.1609
     1.1721   1.2120   1.2183   1.2356   1.2441   1.2577   1.2835   1.2877
     1.3279   1.3673   1.3809   1.4852   1.5590   1.5742   1.6258   1.6412
     1.6442   1.6750   1.7424   1.7728   1.7883   1.8019   1.8678   1.8709
     1.8983   1.9329   1.9396   1.9727   1.9735   1.9854   1.9869   2.0947
     2.1813   2.2074   2.2310   2.2563   2.3212   2.3301   2.3301   2.3394
     2.4674   2.4755   2.5232   2.5445   2.6688   2.7384   3.2367   3.2696
     3.3004   3.3350   3.3968   3.4303   3.5089   3.5308   6.0215   6.5029
     6.5116   6.5212   6.5536   6.7084   6.7693   7.1445   7.3112   7.3743
     7.6576   7.9080   7.9920   7.9994   8.2041   8.5445   8.6483   8.6587
     8.9106   8.9375   8.9603   9.0331   9.0621   9.1421   9.1668   9.1851
     9.2304   9.2634   9.3399   9.3445   9.5210   9.5501   9.5569   9.5674
     9.5700   9.5807

     the Fermi energy is     2.5015 ev

!    total energy              =   -3711.52897527 Ry
     Harris-Foulkes estimate   =   -3711.52897528 Ry
     estimated scf accuracy    <          3.5E-09 Ry

     The total energy is the sum of the following terms:

     one-electron contribution =  -55992.70351389 Ry
     hartree contribution      =   28299.19078177 Ry
     xc contribution           =   -1263.80318672 Ry
     ewald contribution        =   25245.80692869 Ry
     smearing contrib. (-TS)   =      -0.01998512 Ry

     convergence has been achieved in  36 iterations

     negative rho (up, down):  9.212E-02 0.000E+00

     Forces acting on atoms (cartesian axes, Ry/au):

     atom    1 type  4   force =    -0.00000527    0.00000000   -0.00049503
     atom    2 type  4   force =     0.00000527    0.00000000   -0.00049503
     atom    3 type  3   force =    -0.00000423    0.00000000    0.00010414
     atom    4 type  3   force =     0.00000423    0.00000000    0.00010414
     atom    5 type  4   force =     0.00000284    0.00000000    0.00013700
     atom    6 type  4   force =    -0.00000284    0.00000000    0.00013700
     atom    7 type  1   force =     0.00000000    0.00000000   -0.00037364
     atom    8 type  1   force =     0.00000000    0.00000000   -0.00034046
     atom    9 type  3   force =     0.00010880    0.00000000   -0.00034008
     atom   10 type  3   force =    -0.00010880    0.00000000   -0.00034008
     atom   11 type  4   force =     0.00000000    0.00000000    0.00107149
     atom   12 type  4   force =     0.00004988    0.00000000    0.00133051
     atom   13 type  4   force =    -0.00004988    0.00000000    0.00133051
     atom   14 type  4   force =     0.00000000    0.00000000    0.00140227
     atom   15 type  2   force =     0.00000000    0.00000000   -0.00318609
     atom   16 type  5   force =     0.00000000    0.00000000   -0.00471211
     atom   17 type  4   force =     0.00092040    0.00000000    0.00609001
     atom   18 type  4   force =    -0.00092040    0.00000000    0.00609001
     atom   19 type  4   force =     0.00000000    0.00000000    0.00392358
     atom   20 type  4   force =     0.00000000    0.00000000    0.00510732
     atom   21 type  3   force =     0.00053912    0.00000000   -0.00174326
     atom   22 type  3   force =    -0.00053912    0.00000000   -0.00174326
     atom   23 type  1   force =     0.00000000    0.00000000    0.00729633
     atom   24 type  1   force =     0.00000000    0.00000000    0.01364575
     atom   25 type  4   force =     0.00242875    0.00000000   -0.01798507
     atom   26 type  4   force =    -0.00242875    0.00000000   -0.01798507
     atom   27 type  4   force =    -0.01262209    0.00000000    0.02842174
     atom   28 type  4   force =     0.01262209    0.00000000    0.02842174
     atom   29 type  3   force =     0.01225044    0.00000000   -0.02312781
     atom   30 type  3   force =    -0.01225044    0.00000000   -0.02312781
     atom   31 type  4   force =     0.01450127    0.00000000    0.02566384
     atom   32 type  4   force =    -0.01450127    0.00000000    0.02566384
     atom   33 type  1   force =     0.00000000    0.00000000   -0.00730197
     atom   34 type  1   force =     0.00000000    0.00000000   -0.01641468
     atom   35 type  3   force =    -0.00343266    0.00000000   -0.02094011
     atom   36 type  3   force =     0.00343266    0.00000000   -0.02094011
     atom   37 type  4   force =     0.00000000    0.00000000    0.00327107
     atom   38 type  4   force =     0.00000000    0.00000000    0.00087341
     atom   39 type  4   force =     0.00278087    0.00000000    0.00051654
     atom   40 type  4   force =    -0.00278087    0.00000000    0.00051654
     atom   41 type  5   force =     0.00000000    0.00000000    0.00203541
     atom   42 type  2   force =     0.00000000    0.00000000    0.00038486
     atom   43 type  4   force =     0.00000000    0.00000000    0.00022335
     atom   44 type  4   force =     0.00003099    0.00000000   -0.00133813
     atom   45 type  4   force =    -0.00003099    0.00000000   -0.00133813
     atom   46 type  4   force =     0.00000000    0.00000000   -0.00007040
     atom   47 type  3   force =    -0.00004079    0.00000000    0.00033866
     atom   48 type  3   force =     0.00004079    0.00000000    0.00033866
     atom   49 type  1   force =     0.00000000    0.00000000    0.00017384
     atom   50 type  1   force =     0.00000000    0.00000000    0.00022692
     atom   51 type  4   force =    -0.00004602    0.00000000   -0.00076065
     atom   52 type  4   force =     0.00004602    0.00000000   -0.00076065
     atom   53 type  3   force =    -0.00003619    0.00000000    0.00087817
     atom   54 type  3   force =     0.00003619    0.00000000    0.00087817
     atom   55 type  4   force =     0.00001833    0.00000000   -0.00036859
     atom   56 type  4   force =    -0.00001833    0.00000000   -0.00036859

     Total force =     0.085827     Total SCF correction =     0.000290


     Computing stress (Cartesian axis) and pressure


     negative rho (up, down):  9.212E-02 0.000E+00
          total   stress  (Ry/bohr**3)                   (kbar)     P=       -5.98
  -0.00000159   0.00000000   0.00000000           -0.23        0.00        0.00
   0.00000000  -0.00008730   0.00000000            0.00      -12.84        0.00
   0.00000000   0.00000000  -0.00003304            0.00        0.00       -4.86

 
     init_run     :     24.30s CPU     25.41s WALL (       1 calls)
     electrons    :   1794.65s CPU   1857.94s WALL (       1 calls)
     forces       :     11.11s CPU     11.48s WALL (       1 calls)
     stress       :    104.81s CPU    105.82s WALL (       1 calls)

     Called by init_run:
     wfcinit      :     19.90s CPU     20.31s WALL (       1 calls)
     potinit      :      1.01s CPU      1.03s WALL (       1 calls)
     hinit0       :      1.70s CPU      1.72s WALL (       1 calls)

     Called by electrons:
     c_bands      :   1491.83s CPU   1523.21s WALL (      36 calls)
     sum_band     :    225.20s CPU    243.17s WALL (      36 calls)
     v_of_rho     :      4.74s CPU      4.82s WALL (      37 calls)
     newd         :     38.28s CPU     52.36s WALL (      37 calls)
     mix_rho      :     34.90s CPU     35.21s WALL (      36 calls)

     Called by c_bands:
     init_us_2    :      9.07s CPU      9.16s WALL (    1875 calls)
     cegterg      :   1416.28s CPU   1446.44s WALL (     900 calls)

     Called by sum_band:
     sum_band:bec :      1.09s CPU      1.10s WALL (     900 calls)
     addusdens    :     38.49s CPU     54.15s WALL (      36 calls)

     Called by *egterg:
     h_psi        :    675.18s CPU    687.39s WALL (    4559 calls)
     s_psi        :    106.43s CPU    106.96s WALL (    4559 calls)
     g_psi        :      1.54s CPU      1.56s WALL (    3634 calls)
     cdiaghg      :    316.90s CPU    318.17s WALL (    4534 calls)

     Called by h_psi:
     h_psi:calbec :    113.79s CPU    114.29s WALL (    4559 calls)
     vloc_psi     :    451.92s CPU    458.40s WALL (    4559 calls)
     add_vuspsi   :    106.65s CPU    107.20s WALL (    4559 calls)

     General routines
     calbec       :    177.41s CPU    178.16s WALL (    5584 calls)
     fft          :      4.34s CPU      4.36s WALL (     504 calls)
     ffts         :     19.88s CPU     20.06s WALL (   20604 calls)
     fftw         :    518.38s CPU    525.67s WALL ( 1280124 calls)
     interpolate  :      0.39s CPU      0.39s WALL (      37 calls)
 
     Parallel routines
     fft_scatt_xy :     60.99s CPU     61.90s WALL ( 1301232 calls)
     fft_scatt_yz :    339.08s CPU    343.79s WALL ( 1301232 calls)
 
     PWSCF        :  32m15.93s CPU  33m21.80s WALL

 
   This run was terminated on:  10:33:43  28May2021            

=------------------------------------------------------------------------------=
   JOB DONE.
=------------------------------------------------------------------------------=
[1622212423.395894] [holy7c04206:226223:0]          mpool.c:43   UCX  WARN  object 0x3508500 was not returned to mpool ucp_requests
[1622212423.395917] [holy7c04206:226223:0]          mpool.c:43   UCX  WARN  object 0x3508880 was not returned to mpool ucp_requests
[1622212423.402413] [holy7c04207:24079:0]          mpool.c:43   UCX  WARN  object 0x3e8e500 was not returned to mpool ucp_requests
[1622212423.402597] [holy7c04203:262158:0]          mpool.c:43   UCX  WARN  object 0x34c43c0 was not returned to mpool ucp_requests
[1622212423.405657] [holy7c04205:68669:0]          mpool.c:43   UCX  WARN  object 0x3a0de00 was not returned to mpool ucp_requests
[1622212423.412444] [holy7c04207:24078:0]          mpool.c:43   UCX  WARN  object 0x3310280 was not returned to mpool ucp_requests
[1622212423.401323] [holy7c04203:262157:0]          mpool.c:43   UCX  WARN  object 0x4372900 was not returned to mpool ucp_requests
[1622212423.402877] [holy7c04203:262162:0]          mpool.c:43   UCX  WARN  object 0x3666cc0 was not returned to mpool ucp_requests
[1622212423.402901] [holy7c04203:262162:0]          mpool.c:43   UCX  WARN  object 0x3667200 was not returned to mpool ucp_requests
[1622212423.401951] [holy7c04203:262159:0]          mpool.c:43   UCX  WARN  object 0x3117280 was not returned to mpool ucp_requests
[1622212423.401972] [holy7c04203:262159:0]          mpool.c:43   UCX  WARN  object 0x3117600 was not returned to mpool ucp_requests
[1622212423.407521] [holy7c04205:68661:0]          mpool.c:43   UCX  WARN  object 0x47b45c0 was not returned to mpool ucp_requests
[1622212423.410127] [holy7c04205:68665:0]          mpool.c:43   UCX  WARN  object 0x37d6340 was not returned to mpool ucp_requests
[1622212423.412188] [holy7c04205:68667:0]          mpool.c:43   UCX  WARN  object 0x3b90a40 was not returned to mpool ucp_requests
[1622212423.412215] [holy7c04205:68667:0]          mpool.c:43   UCX  WARN  object 0x3b90c00 was not returned to mpool ucp_requests
[1622212423.420365] [holy7c04205:68671:0]          mpool.c:43   UCX  WARN  object 0x28f5980 was not returned to mpool ucp_requests
[1622212423.420442] [holy7c04205:68662:0]          mpool.c:43   UCX  WARN  object 0x372ea40 was not returned to mpool ucp_requests
[1622212423.420466] [holy7c04205:68662:0]          mpool.c:43   UCX  WARN  object 0x372ec00 was not returned to mpool ucp_requests
