
     Program PWSCF v.6.5 starts on 27May2021 at 23:32:44 

     This program is part of the open-source Quantum ESPRESSO suite
     for quantum simulation of materials; please cite
         "P. Giannozzi et al., J. Phys.:Condens. Matter 21 395502 (2009);
         "P. Giannozzi et al., J. Phys.:Condens. Matter 29 465901 (2017);
          URL http://www.quantum-espresso.org", 
     in publications or presentations arising from this work. More details at
     http://www.quantum-espresso.org/quote

     Parallel version (MPI), running on    32 processors

     MPI processes distributed on    12 nodes
     R & G space division:  proc/nbgrp/npool/nimage =      32
     Reading input from YCBCO50_212_CuO_cleave_0.25_sep.pwi
Warning: card &IONS ignored
Warning: card     ION_DYNAMICS = 'BFGS' ignored
Warning: card / ignored
Warning: card &CELL ignored
Warning: card     CELL_DYNAMICS = 'BFGS' ignored
Warning: card     PRESS_CONV_THR = 5 ignored
Warning: card / ignored

     Current dimensions of program PWSCF are:
     Max number of different atomic species (ntypx) = 10
     Max number of k-points (npk) =  40000
     Max angular momentum in pseudopotentials (lmaxx) =  3

     Subspace diagonalization in iterative solution of the eigenvalue problem:
     one sub-group per band group will be used
     scalapack distributed-memory algorithm (size of sub-group:  5*  5 procs)

     Message from routine setup:
     using ibrav=0 with symmetry is DISCOURAGED, use correct ibrav instead
 
     Parallelization info
     --------------------
     sticks:   dense  smooth     PW     G-vecs:    dense   smooth      PW
     Min         188      62     17                89354    17188    2565
     Max         189      63     18                89384    17233    2604
     Sum        6019    2003    565              2859873   550727   82827
 


     bravais-lattice index     =            0
     lattice parameter (alat)  =      14.8133  a.u.
     unit-cell volume          =    8766.7572 (a.u.)^3
     number of atoms/cell      =           56
     number of atomic types    =            5
     number of electrons       =       456.00
     number of Kohn-Sham states=          274
     kinetic-energy cutoff     =      60.0000  Ry
     charge density cutoff     =     720.0000  Ry
     convergence threshold     =      1.0E-08
     mixing beta               =       0.5000
     number of iterations used =           10  local-TF  mixing
     Exchange-correlation= SLA PW PBE PBE
                           (   1   4   3   4   0   0   0)

     celldm(1)=  14.813271  celldm(2)=   0.000000  celldm(3)=   0.000000
     celldm(4)=   0.000000  celldm(5)=   0.000000  celldm(6)=   0.000000

     crystal axes: (cart. coord. in units of alat)
               a(1) = (   1.000000   0.000000   0.000000 )  
               a(2) = (   0.000000   0.477453   0.000000 )  
               a(3) = (   0.000000   0.000000   5.648794 )  

     reciprocal axes: (cart. coord. in units 2 pi/alat)
               b(1) = (  1.000000  0.000000  0.000000 )  
               b(2) = (  0.000000  2.094448  0.000000 )  
               b(3) = (  0.000000  0.000000  0.177029 )  


     PseudoPot. # 1 for Ba read from file:
     ./pseudo/Ba.pbe-nsp-van.UPF
     MD5 check sum: 2b9c31dd849566dd297d80989662b7a0
     Pseudo is Ultrasoft + core correction, Zval = 10.0
     Generated by new atomic code, or converted to UPF format
     Using radial grid of  907 points,  6 beta functions with: 
                l(1) =   0
                l(2) =   0
                l(3) =   1
                l(4) =   1
                l(5) =   2
                l(6) =   2
     Q(r) pseudized with  6 coefficients,  rinner =    1.200   1.200   1.200
                                                       1.200   1.200

     PseudoPot. # 2 for Ca read from file:
     ./pseudo/Ca.pbe-nsp-van.UPF
     MD5 check sum: 6471098428ff4fa451746d08035ff179
     Pseudo is Ultrasoft + core correction, Zval = 10.0
     Generated by new atomic code, or converted to UPF format
     Using radial grid of  845 points,  6 beta functions with: 
                l(1) =   0
                l(2) =   0
                l(3) =   1
                l(4) =   1
                l(5) =   2
                l(6) =   2
     Q(r) pseudized with  6 coefficients,  rinner =    1.200   1.200   1.200
                                                       1.200   1.200

     PseudoPot. # 3 for Cu read from file:
     ./pseudo/Cu.pbe-n-van_ak.UPF
     MD5 check sum: 34e3282627ffb533726feb647e090d62
     Pseudo is Ultrasoft + core correction, Zval = 11.0
     Generated by new atomic code, or converted to UPF format
     Using radial grid of  867 points,  6 beta functions with: 
                l(1) =   0
                l(2) =   0
                l(3) =   1
                l(4) =   1
                l(5) =   2
                l(6) =   2
     Q(r) pseudized with  8 coefficients,  rinner =    1.400   1.400   1.400
                                                       1.400   1.400

     PseudoPot. # 4 for O  read from file:
     ./pseudo/O.pbe-van_ak.UPF
     MD5 check sum: 783ce7fe4c79b6a4916957118fed0856
     Pseudo is Ultrasoft, Zval =  6.0
     Generated by new atomic code, or converted to UPF format
     Using radial grid of  737 points,  4 beta functions with: 
                l(1) =   0
                l(2) =   0
                l(3) =   1
                l(4) =   1
     Q(r) pseudized with  8 coefficients,  rinner =    0.800   0.800   0.800


     PseudoPot. # 5 for Y  read from file:
     ./pseudo/Y.pbe-nsp-van.UPF
     MD5 check sum: 4412fed3ab108fed87a1b7d6a69a4a38
     Pseudo is Ultrasoft + core correction, Zval = 11.0
     Generated by new atomic code, or converted to UPF format
     Using radial grid of  885 points,  6 beta functions with: 
                l(1) =   0
                l(2) =   0
                l(3) =   1
                l(4) =   1
                l(5) =   2
                l(6) =   2
     Q(r) pseudized with  6 coefficients,  rinner =    1.200   1.200   1.200
                                                       1.200   1.200

     atomic species   valence    mass     pseudopotential
        Ba            10.00   137.32700     Ba( 1.00)
        Ca            10.00    40.07800     Ca( 1.00)
        Cu            11.00    63.54600     Cu( 1.00)
        O              6.00    15.99900     O ( 1.00)
        Y             11.00    88.90584     Y ( 1.00)

      4 Sym. Ops. (no inversion) found ( 2 have fractional translation)



   Cartesian axes

     site n.     atom                  positions (alat units)
         1           O   tau(   1) = (  -0.0008343   0.2387265  -0.0222443  )
         2           O   tau(   2) = (   0.5008340   0.2387265  -0.0222443  )
         3           Cu  tau(   3) = (   0.5017257   0.0000000   0.0109608  )
         4           Cu  tau(   4) = (  -0.0017260   0.0000000   0.0109608  )
         5           O   tau(   5) = (  -0.0028933   0.0000000   0.2506504  )
         6           O   tau(   6) = (   0.5028929   0.0000000   0.2506504  )
         7           Ba  tau(   7) = (   0.7499995   0.2387265   0.2749435  )
         8           Ba  tau(   8) = (   0.2499998   0.2387265   0.2755214  )
         9           Cu  tau(   9) = (   0.4980963   0.0000000   0.5208446  )
        10           Cu  tau(  10) = (   0.0019033   0.0000000   0.5208446  )
        11           O   tau(  11) = (   0.2499998   0.0000000   0.5341884  )
        12           O   tau(  12) = (   0.5083351   0.2387265   0.5569851  )
        13           O   tau(  13) = (  -0.0083354   0.2387265   0.5569851  )
        14           O   tau(  14) = (   0.7499995   0.0000000   0.5573831  )
        15           Ca  tau(  15) = (   0.2499998   0.2387265   0.7436937  )
        16           Y   tau(  16) = (   0.7499995   0.2387265   0.7469544  )
        17           O   tau(  17) = (  -0.0063798   0.2387265   0.9248530  )
        18           O   tau(  18) = (   0.5063794   0.2387265   0.9248530  )
        19           O   tau(  19) = (   0.7499995   0.0000000   0.9338544  )
        20           O   tau(  20) = (   0.2499998   0.0000000   0.9461329  )
        21           Cu  tau(  21) = (   0.0015717   0.0000000   0.9686860  )
        22           Cu  tau(  22) = (   0.4984280   0.0000000   0.9686860  )
        23           Ba  tau(  23) = (   0.2499998   0.2387265   1.2085224  )
        24           Ba  tau(  24) = (   0.7499995   0.2387265   1.2233294  )
        25           O   tau(  25) = (   0.0063772   0.0000000   1.2547537  )
        26           O   tau(  26) = (   0.4936224   0.0000000   1.2547537  )
        27           O   tau(  27) = (   0.5384045   0.2387265   1.4952521  )
        28           O   tau(  28) = (  -0.0384049   0.2387265   1.4952521  )
        29           Cu  tau(  29) = (   0.5006120   0.0000000   1.4952546  )
        30           Cu  tau(  30) = (  -0.0006123   0.0000000   1.4952546  )
        31           O   tau(  31) = (   0.4936212   0.0000000   1.7676455  )
        32           O   tau(  32) = (   0.0063785   0.0000000   1.7676455  )
        33           Ba  tau(  33) = (   0.7499995   0.2387265   1.7990749  )
        34           Ba  tau(  34) = (   0.2499998   0.2387265   1.8138845  )
        35           Cu  tau(  35) = (   0.4984280   0.0000000   2.0537157  )
        36           Cu  tau(  36) = (   0.0015717   0.0000000   2.0537157  )
        37           O   tau(  37) = (   0.2499998   0.0000000   2.0762739  )
        38           O   tau(  38) = (   0.7499995   0.0000000   2.0885435  )
        39           O   tau(  39) = (   0.5063781   0.2387265   2.0975487  )
        40           O   tau(  40) = (  -0.0063785   0.2387265   2.0975487  )
        41           Y   tau(  41) = (   0.7499995   0.2387265   2.2754422  )
        42           Ca  tau(  42) = (   0.2499998   0.2387265   2.2787118  )
        43           O   tau(  43) = (   0.7499995   0.0000000   2.4650097  )
        44           O   tau(  44) = (  -0.0083354   0.2387265   2.4654115  )
        45           O   tau(  45) = (   0.5083351   0.2387265   2.4654115  )
        46           O   tau(  46) = (   0.2499998   0.0000000   2.4882095  )
        47           Cu  tau(  47) = (   0.0019059   0.0000000   2.5015431  )
        48           Cu  tau(  48) = (   0.4980938   0.0000000   2.5015431  )
        49           Ba  tau(  49) = (   0.2499998   0.2387265   2.7468828  )
        50           Ba  tau(  50) = (   0.7499995   0.2387265   2.7474250  )
        51           O   tau(  51) = (  -0.0028895   0.0000000   2.7717321  )
        52           O   tau(  52) = (   0.5028891   0.0000000   2.7717321  )
        53           Cu  tau(  53) = (   0.5017844   0.0000000   3.0114167  )
        54           Cu  tau(  54) = (  -0.0017847   0.0000000   3.0114167  )
        55           O   tau(  55) = (   0.5008990   0.2387265   3.0446231  )
        56           O   tau(  56) = (  -0.0008994   0.2387265   3.0446231  )

     number of k points=    25  Gaussian smearing, width (Ry)=  0.0100
                       cart. coord. in units 2pi/alat
        k(    1) = (   0.0000000   0.0000000   0.0000000), wk =   0.0312500
        k(    2) = (   0.0000000   0.2618060   0.0000000), wk =   0.0625000
        k(    3) = (   0.0000000   0.5236121   0.0000000), wk =   0.0625000
        k(    4) = (   0.0000000   0.7854181   0.0000000), wk =   0.0625000
        k(    5) = (   0.0000000  -1.0472241   0.0000000), wk =   0.0312500
        k(    6) = (   0.1250000   0.0000000   0.0000000), wk =   0.0625000
        k(    7) = (   0.1250000   0.2618060   0.0000000), wk =   0.1250000
        k(    8) = (   0.1250000   0.5236121   0.0000000), wk =   0.1250000
        k(    9) = (   0.1250000   0.7854181   0.0000000), wk =   0.1250000
        k(   10) = (   0.1250000  -1.0472241   0.0000000), wk =   0.0625000
        k(   11) = (   0.2500000   0.0000000   0.0000000), wk =   0.0625000
        k(   12) = (   0.2500000   0.2618060   0.0000000), wk =   0.1250000
        k(   13) = (   0.2500000   0.5236121   0.0000000), wk =   0.1250000
        k(   14) = (   0.2500000   0.7854181   0.0000000), wk =   0.1250000
        k(   15) = (   0.2500000  -1.0472241   0.0000000), wk =   0.0625000
        k(   16) = (   0.3750000   0.0000000   0.0000000), wk =   0.0625000
        k(   17) = (   0.3750000   0.2618060   0.0000000), wk =   0.1250000
        k(   18) = (   0.3750000   0.5236121   0.0000000), wk =   0.1250000
        k(   19) = (   0.3750000   0.7854181   0.0000000), wk =   0.1250000
        k(   20) = (   0.3750000  -1.0472241   0.0000000), wk =   0.0625000
        k(   21) = (  -0.5000000   0.0000000   0.0000000), wk =   0.0312500
        k(   22) = (  -0.5000000   0.2618060   0.0000000), wk =   0.0625000
        k(   23) = (  -0.5000000   0.5236121   0.0000000), wk =   0.0625000
        k(   24) = (  -0.5000000   0.7854181   0.0000000), wk =   0.0625000
        k(   25) = (  -0.5000000  -1.0472241   0.0000000), wk =   0.0312500

     Dense  grid:  2859873 G-vectors     FFT dimensions: ( 128,  64, 720)

     Smooth grid:   550727 G-vectors     FFT dimensions: (  80,  36, 432)

     Estimated max dynamical RAM per process >     829.17 MB

     Estimated total dynamical RAM >      25.91 GB

     Initial potential from superposition of free atoms

     starting charge  455.69457, renormalised to  456.00000

     negative rho (up, down):  9.320E-02 0.000E+00
     Starting wfcs are  396 randomized atomic wfcs

     total cpu time spent up to now is      158.4 secs

     Self-consistent Calculation

     iteration #  1     ecut=    60.00 Ry     beta= 0.50
     Davidson diagonalization with overlap
     ethr =  1.00E-02,  avg # of iterations =  2.0

     negative rho (up, down):  8.604E-02 0.000E+00

     total cpu time spent up to now is      240.0 secs

     total energy              =   -3708.47773077 Ry
     Harris-Foulkes estimate   =   -3716.42174811 Ry
     estimated scf accuracy    <      29.98241381 Ry

     iteration #  2     ecut=    60.00 Ry     beta= 0.50
     Davidson diagonalization with overlap
     ethr =  6.58E-03,  avg # of iterations =  2.0

     negative rho (up, down):  8.578E-02 0.000E+00

     total cpu time spent up to now is      304.4 secs

     total energy              =   -3711.22837896 Ry
     Harris-Foulkes estimate   =   -3712.35108175 Ry
     estimated scf accuracy    <       6.03024381 Ry

     iteration #  3     ecut=    60.00 Ry     beta= 0.50
     Davidson diagonalization with overlap
     ethr =  1.32E-03,  avg # of iterations =  2.0

     negative rho (up, down):  8.637E-02 0.000E+00

     total cpu time spent up to now is      361.4 secs

     total energy              =   -3711.71087736 Ry
     Harris-Foulkes estimate   =   -3711.98952688 Ry
     estimated scf accuracy    <       4.69706366 Ry

     iteration #  4     ecut=    60.00 Ry     beta= 0.50
     Davidson diagonalization with overlap
     ethr =  1.03E-03,  avg # of iterations =  1.0

     negative rho (up, down):  8.737E-02 0.000E+00

     total cpu time spent up to now is      412.5 secs

     total energy              =   -3711.73868602 Ry
     Harris-Foulkes estimate   =   -3711.87500146 Ry
     estimated scf accuracy    <       0.62807333 Ry

     iteration #  5     ecut=    60.00 Ry     beta= 0.50
     Davidson diagonalization with overlap
     ethr =  1.38E-04,  avg # of iterations =  7.9

     negative rho (up, down):  8.851E-02 0.000E+00

     total cpu time spent up to now is      569.5 secs

     total energy              =   -3711.79572882 Ry
     Harris-Foulkes estimate   =   -3711.84153362 Ry
     estimated scf accuracy    <       2.98534345 Ry

     iteration #  6     ecut=    60.00 Ry     beta= 0.50
     Davidson diagonalization with overlap
     ethr =  1.38E-04,  avg # of iterations =  1.1

     negative rho (up, down):  8.973E-02 0.000E+00

     total cpu time spent up to now is      622.8 secs

     total energy              =   -3711.77444565 Ry
     Harris-Foulkes estimate   =   -3711.80562142 Ry
     estimated scf accuracy    <       1.90314637 Ry

     iteration #  7     ecut=    60.00 Ry     beta= 0.50
     Davidson diagonalization with overlap
     ethr =  1.38E-04,  avg # of iterations =  1.3

     negative rho (up, down):  9.019E-02 0.000E+00

     total cpu time spent up to now is      667.0 secs

     total energy              =   -3711.77387690 Ry
     Harris-Foulkes estimate   =   -3711.78544002 Ry
     estimated scf accuracy    <       0.91668097 Ry

     iteration #  8     ecut=    60.00 Ry     beta= 0.50
     Davidson diagonalization with overlap
     ethr =  1.38E-04,  avg # of iterations =  1.0

     negative rho (up, down):  9.033E-02 0.000E+00

     total cpu time spent up to now is      710.6 secs

     total energy              =   -3711.77111257 Ry
     Harris-Foulkes estimate   =   -3711.77765915 Ry
     estimated scf accuracy    <       0.45305493 Ry

     iteration #  9     ecut=    60.00 Ry     beta= 0.50
     Davidson diagonalization with overlap
     ethr =  9.94E-05,  avg # of iterations =  1.3

     negative rho (up, down):  9.031E-02 0.000E+00

     total cpu time spent up to now is      754.6 secs

     total energy              =   -3711.75850670 Ry
     Harris-Foulkes estimate   =   -3711.77256144 Ry
     estimated scf accuracy    <       0.27863909 Ry

     iteration # 10     ecut=    60.00 Ry     beta= 0.50
     Davidson diagonalization with overlap
     ethr =  6.11E-05,  avg # of iterations =  6.8

     negative rho (up, down):  9.017E-02 0.000E+00

     total cpu time spent up to now is      816.2 secs

     total energy              =   -3711.75681686 Ry
     Harris-Foulkes estimate   =   -3711.76183137 Ry
     estimated scf accuracy    <       0.11624391 Ry

     iteration # 11     ecut=    60.00 Ry     beta= 0.50
     Davidson diagonalization with overlap
     ethr =  2.55E-05,  avg # of iterations =  7.5

     negative rho (up, down):  9.326E-02 0.000E+00

     total cpu time spent up to now is      879.8 secs

     total energy              =   -3711.75359315 Ry
     Harris-Foulkes estimate   =   -3711.75793205 Ry
     estimated scf accuracy    <       0.06024855 Ry

     iteration # 12     ecut=    60.00 Ry     beta= 0.50
     Davidson diagonalization with overlap
     ethr =  1.32E-05,  avg # of iterations =  9.4

     negative rho (up, down):  9.060E-02 0.000E+00

     total cpu time spent up to now is      969.2 secs

     total energy              =   -3711.75319125 Ry
     Harris-Foulkes estimate   =   -3711.75569948 Ry
     estimated scf accuracy    <       0.02930110 Ry

     iteration # 13     ecut=    60.00 Ry     beta= 0.50
     Davidson diagonalization with overlap
     ethr =  6.43E-06,  avg # of iterations =  4.8

     negative rho (up, down):  1.123E-01 0.000E+00

     total cpu time spent up to now is     1024.0 secs

     total energy              =   -3711.75179041 Ry
     Harris-Foulkes estimate   =   -3711.75421648 Ry
     estimated scf accuracy    <       0.02136457 Ry

     iteration # 14     ecut=    60.00 Ry     beta= 0.50
     Davidson diagonalization with overlap
     c_bands:  1 eigenvalues not converged
     ethr =  4.69E-06,  avg # of iterations = 10.6

     negative rho (up, down):  1.203E-01 0.000E+00

     total cpu time spent up to now is     1101.6 secs

     total energy              =   -3711.75044652 Ry
     Harris-Foulkes estimate   =   -3711.75211539 Ry
     estimated scf accuracy    <       0.01137547 Ry

     iteration # 15     ecut=    60.00 Ry     beta= 0.50
     Davidson diagonalization with overlap
     c_bands:  1 eigenvalues not converged
     ethr =  2.49E-06,  avg # of iterations =  9.3

     negative rho (up, down):  1.304E-01 0.000E+00

     total cpu time spent up to now is     1171.4 secs

     total energy              =   -3711.74865196 Ry
     Harris-Foulkes estimate   =   -3711.75062827 Ry
     estimated scf accuracy    <       0.01082534 Ry

     iteration # 16     ecut=    60.00 Ry     beta= 0.50
     Davidson diagonalization with overlap
     ethr =  2.37E-06,  avg # of iterations = 11.1

     negative rho (up, down):  1.325E-01 0.000E+00

     total cpu time spent up to now is     1251.1 secs

     total energy              =   -3711.74684466 Ry
     Harris-Foulkes estimate   =   -3711.74878193 Ry
     estimated scf accuracy    <       0.00760402 Ry

     iteration # 17     ecut=    60.00 Ry     beta= 0.50
     Davidson diagonalization with overlap
     ethr =  1.67E-06,  avg # of iterations = 11.5

     negative rho (up, down):  1.288E-01 0.000E+00

     total cpu time spent up to now is     1360.5 secs

     total energy              =   -3711.74614333 Ry
     Harris-Foulkes estimate   =   -3711.74706963 Ry
     estimated scf accuracy    <       0.00510722 Ry

     iteration # 18     ecut=    60.00 Ry     beta= 0.50
     Davidson diagonalization with overlap
     c_bands:  1 eigenvalues not converged
     ethr =  1.12E-06,  avg # of iterations = 10.1

     negative rho (up, down):  1.119E-01 0.000E+00

     total cpu time spent up to now is     1436.5 secs

     total energy              =   -3711.74575493 Ry
     Harris-Foulkes estimate   =   -3711.74625273 Ry
     estimated scf accuracy    <       0.00129109 Ry

     iteration # 19     ecut=    60.00 Ry     beta= 0.50
     Davidson diagonalization with overlap
     ethr =  2.83E-07,  avg # of iterations =  6.4

     negative rho (up, down):  9.992E-02 0.000E+00

     total cpu time spent up to now is     1498.1 secs

     total energy              =   -3711.74557648 Ry
     Harris-Foulkes estimate   =   -3711.74577796 Ry
     estimated scf accuracy    <       0.00045702 Ry

     iteration # 20     ecut=    60.00 Ry     beta= 0.50
     Davidson diagonalization with overlap
     c_bands:  1 eigenvalues not converged
     ethr =  1.00E-07,  avg # of iterations = 10.2

     negative rho (up, down):  9.428E-02 0.000E+00

     total cpu time spent up to now is     1573.2 secs

     total energy              =   -3711.74558386 Ry
     Harris-Foulkes estimate   =   -3711.74559798 Ry
     estimated scf accuracy    <       0.00026531 Ry

     iteration # 21     ecut=    60.00 Ry     beta= 0.50
     Davidson diagonalization with overlap
     c_bands:  1 eigenvalues not converged
     c_bands:  2 eigenvalues not converged
     c_bands:  1 eigenvalues not converged
     c_bands:  1 eigenvalues not converged
     c_bands:  1 eigenvalues not converged
     c_bands:  1 eigenvalues not converged
     ethr =  5.82E-08,  avg # of iterations = 12.0

     negative rho (up, down):  9.220E-02 0.000E+00

     total cpu time spent up to now is     1649.9 secs

     total energy              =   -3711.74561558 Ry
     Harris-Foulkes estimate   =   -3711.74559557 Ry
     estimated scf accuracy    <       0.00006746 Ry

     iteration # 22     ecut=    60.00 Ry     beta= 0.50
     Davidson diagonalization with overlap
     c_bands:  2 eigenvalues not converged
     c_bands:  1 eigenvalues not converged
     c_bands:  1 eigenvalues not converged
     ethr =  1.48E-08,  avg # of iterations =  7.9

     negative rho (up, down):  9.180E-02 0.000E+00

     total cpu time spent up to now is     1714.0 secs

     total energy              =   -3711.74562160 Ry
     Harris-Foulkes estimate   =   -3711.74561849 Ry
     estimated scf accuracy    <       0.00002659 Ry

     iteration # 23     ecut=    60.00 Ry     beta= 0.50
     Davidson diagonalization with overlap
     c_bands:  1 eigenvalues not converged
     c_bands:  1 eigenvalues not converged
     ethr =  5.83E-09,  avg # of iterations =  5.0

     negative rho (up, down):  9.188E-02 0.000E+00

     total cpu time spent up to now is     1768.3 secs

     total energy              =   -3711.74562249 Ry
     Harris-Foulkes estimate   =   -3711.74562286 Ry
     estimated scf accuracy    <       0.00001405 Ry

     iteration # 24     ecut=    60.00 Ry     beta= 0.50
     Davidson diagonalization with overlap
     ethr =  3.08E-09,  avg # of iterations =  1.4

     negative rho (up, down):  9.197E-02 0.000E+00

     total cpu time spent up to now is     1812.3 secs

     total energy              =   -3711.74562278 Ry
     Harris-Foulkes estimate   =   -3711.74562293 Ry
     estimated scf accuracy    <       0.00000618 Ry

     iteration # 25     ecut=    60.00 Ry     beta= 0.50
     Davidson diagonalization with overlap
     ethr =  1.36E-09,  avg # of iterations =  1.6

     negative rho (up, down):  9.201E-02 0.000E+00

     total cpu time spent up to now is     1857.0 secs

     total energy              =   -3711.74562274 Ry
     Harris-Foulkes estimate   =   -3711.74562300 Ry
     estimated scf accuracy    <       0.00000183 Ry

     iteration # 26     ecut=    60.00 Ry     beta= 0.50
     Davidson diagonalization with overlap
     ethr =  4.01E-10,  avg # of iterations =  2.7

     negative rho (up, down):  9.212E-02 0.000E+00

     total cpu time spent up to now is     1908.6 secs

     total energy              =   -3711.74562251 Ry
     Harris-Foulkes estimate   =   -3711.74562285 Ry
     estimated scf accuracy    <       0.00000057 Ry

     iteration # 27     ecut=    60.00 Ry     beta= 0.50
     Davidson diagonalization with overlap
     ethr =  1.24E-10,  avg # of iterations =  3.0

     negative rho (up, down):  9.202E-02 0.000E+00

     total cpu time spent up to now is     1960.7 secs

     total energy              =   -3711.74562273 Ry
     Harris-Foulkes estimate   =   -3711.74562258 Ry
     estimated scf accuracy    <       0.00000030 Ry

     iteration # 28     ecut=    60.00 Ry     beta= 0.50
     Davidson diagonalization with overlap
     ethr =  6.52E-11,  avg # of iterations =  2.0

     negative rho (up, down):  9.204E-02 0.000E+00

     total cpu time spent up to now is     2007.3 secs

     total energy              =   -3711.74562272 Ry
     Harris-Foulkes estimate   =   -3711.74562275 Ry
     estimated scf accuracy    <       0.00000015 Ry

     iteration # 29     ecut=    60.00 Ry     beta= 0.50
     Davidson diagonalization with overlap
     ethr =  3.26E-11,  avg # of iterations =  1.1

     negative rho (up, down):  9.203E-02 0.000E+00

     total cpu time spent up to now is     2051.3 secs

     total energy              =   -3711.74562273 Ry
     Harris-Foulkes estimate   =   -3711.74562272 Ry
     estimated scf accuracy    <       0.00000004 Ry

     iteration # 30     ecut=    60.00 Ry     beta= 0.50
     Davidson diagonalization with overlap
     ethr =  8.66E-12,  avg # of iterations =  2.6

     negative rho (up, down):  9.205E-02 0.000E+00

     total cpu time spent up to now is     2099.9 secs

     total energy              =   -3711.74562271 Ry
     Harris-Foulkes estimate   =   -3711.74562273 Ry
     estimated scf accuracy    <       0.00000003 Ry

     iteration # 31     ecut=    60.00 Ry     beta= 0.50
     Davidson diagonalization with overlap
     ethr =  6.03E-12,  avg # of iterations =  1.0

     negative rho (up, down):  9.205E-02 0.000E+00

     total cpu time spent up to now is     2143.9 secs

     End of self-consistent calculation

          k = 0.0000 0.0000 0.0000 ( 68823 PWs)   bands (ev):

   -37.9851 -37.9726 -35.6123 -35.5937 -22.7718 -22.7695 -22.6435 -22.6412
   -22.4820 -22.4187 -22.3226 -22.2727 -18.4599 -18.4492 -18.3570 -18.3446
   -17.9883 -17.9758 -16.9599 -16.9414 -16.8256 -16.8086 -16.6421 -16.6226
   -15.3702 -15.3598 -14.9360 -14.9315 -14.6665 -14.6169 -14.5237 -14.5224
   -14.5091 -14.4377 -14.4223 -14.4145 -14.4077 -14.3927 -14.2608 -14.2361
   -14.0593 -14.0503 -13.9502 -13.9484 -13.9431 -13.9371 -13.9365 -13.9289
   -13.8465 -13.8215 -13.7005 -13.4953 -13.3036 -12.9738  -8.0098  -8.0072
    -7.9011  -7.8987  -7.8212  -7.8191  -7.7808  -7.6999  -7.6831  -7.6809
    -7.6349  -7.5867  -7.5846  -7.5675  -7.4805  -7.4451  -7.4429  -7.3961
    -7.3610  -7.2923  -7.2678  -7.1585  -7.1343  -7.0364  -2.9400  -2.9355
    -2.7728  -2.7416  -2.1279  -2.1269  -2.0408  -2.0402  -2.0004  -1.9932
    -1.8483  -1.8318  -1.7990  -1.7891  -1.7555  -1.7390  -1.6876  -1.6803
    -1.6271  -1.6198  -1.5878  -1.5729  -1.4863  -1.4720  -1.2928  -1.2856
    -1.1589  -1.1160  -1.0725  -1.0625  -1.0533  -0.9736  -0.8760  -0.8747
    -0.8746  -0.8731  -0.8683  -0.8359  -0.8260  -0.8224  -0.7734  -0.7285
    -0.7040  -0.6491  -0.6480  -0.5262  -0.5126  -0.4071  -0.3654  -0.3339
    -0.2649  -0.2097  -0.2087  -0.2057  -0.1663  -0.1467  -0.1384  -0.1145
    -0.0976  -0.0905  -0.0894  -0.0857  -0.0856   0.0368   0.0417   0.0433
     0.0821   0.0873   0.1024   0.1042   0.1131   0.1337   0.1955   0.2049
     0.2206   0.2224   0.2228   0.2250   0.3186   0.3198   0.3578   0.3590
     0.4028   0.4253   0.4455   0.4478   0.4553   0.4603   0.4684   0.4790
     0.5625   0.6239   0.6293   0.6298   0.6507   0.6521   0.7013   0.7353
     0.8110   0.8530   0.8845   0.9276   0.9882   1.0582   1.0874   1.0895
     1.1186   1.1384   1.1432   1.1734   1.2442   1.3010   1.3112   1.3144
     1.3170   1.3311   1.3377   1.3565   1.3965   1.4384   1.4488   1.4714
     1.4764   1.5142   1.5308   1.5346   1.5525   1.5915   1.6911   1.6993
     1.7378   1.7781   1.8138   1.8150   1.8882   1.8896   1.9109   1.9345
     1.9453   1.9493   1.9854   2.0196   2.0432   2.1606   2.1627   2.2922
     2.3518   2.3786   2.3845   2.4403   2.4571   2.4849   2.5570   2.5612
     2.6813   2.6845   2.6907   2.7976   2.9703   2.9981   5.3157   5.3332
     5.6908   6.0575   6.2739   6.7100   6.7349   6.8280   7.1175   7.3742
     7.3773   7.4691   7.4704   7.5223   7.6836   7.8218   8.1455   8.1771
     8.2401   8.2520   8.2804   8.3826   8.5857   8.6057   8.6379   8.7183
     8.7486   9.0490   9.1257   9.1475   9.1840   9.2246   9.3878   9.3958
     9.5295   9.5320

          k = 0.0000 0.2618 0.0000 ( 68837 PWs)   bands (ev):

   -37.9824 -37.9699 -35.6106 -35.5920 -22.7472 -22.7449 -22.6244 -22.6221
   -22.4583 -22.3969 -22.3037 -22.2531 -18.4212 -18.4105 -18.3497 -18.3373
   -18.0992 -18.0868 -16.9304 -16.9120 -16.8213 -16.8042 -16.7081 -16.6886
   -15.2643 -15.2540 -14.8799 -14.8754 -14.6167 -14.5784 -14.5172 -14.5058
   -14.4710 -14.4025 -14.3972 -14.3610 -14.3460 -14.3373 -14.2242 -14.2012
   -14.0550 -14.0471 -14.0067 -13.9958 -13.9403 -13.9366 -13.9280 -13.9263
   -13.8846 -13.8578 -13.6817 -13.5491 -13.2811 -13.0335  -8.0032  -8.0006
    -7.9143  -7.9120  -7.7893  -7.7776  -7.7755  -7.7257  -7.7235  -7.7186
    -7.7164  -7.6945  -7.6522  -7.6503  -7.6306  -7.5725  -7.4707  -7.4091
    -7.4051  -7.3523  -7.3457  -7.3343  -7.2647  -7.2049  -3.0404  -3.0323
    -2.8335  -2.8008  -2.2467  -2.2436  -2.1479  -2.1404  -2.1392  -2.1227
    -2.0163  -2.0149  -1.9498  -1.9389  -1.8507  -1.8299  -1.7053  -1.7007
    -1.6556  -1.6298  -1.6131  -1.5797  -1.5697  -1.5542  -1.5013  -1.4992
    -1.4129  -1.4014  -1.3215  -1.3198  -1.2981  -1.2903  -1.2894  -1.2879
    -1.1960  -1.1640  -0.9115  -0.8973  -0.8358  -0.7378  -0.7314  -0.6634
    -0.6590  -0.6470  -0.5658  -0.5332  -0.4677  -0.4559  -0.4340  -0.4305
    -0.3014  -0.3003  -0.2765  -0.2571  -0.2265  -0.2220  -0.2196  -0.2036
    -0.1443  -0.1161  -0.1119  -0.1033  -0.0850  -0.0498  -0.0458   0.0786
     0.0943   0.1073   0.1088   0.1778   0.1981   0.1995   0.2555   0.2566
     0.2643   0.2858   0.2860   0.2900   0.2956   0.3594   0.3811   0.3827
     0.4097   0.4277   0.4469   0.4586   0.4867   0.4879   0.5155   0.5209
     0.5262   0.5379   0.5558   0.5595   0.6689   0.7621   0.7634   0.8723
     0.8784   0.8886   0.9421   0.9458   1.0660   1.0671   1.0919   1.1088
     1.1697   1.2197   1.2423   1.2447   1.2623   1.3024   1.3110   1.3391
     1.3810   1.4058   1.4155   1.4294   1.4348   1.4870   1.4981   1.5032
     1.5207   1.5976   1.6027   1.6129   1.6315   1.6340   1.6447   1.7305
     1.8069   1.8234   1.8483   1.8632   1.8887   1.8947   1.9189   1.9301
     1.9435   1.9656   1.9698   1.9960   2.0150   2.1274   2.1487   2.2215
     2.2331   2.3175   2.5347   2.6756   2.9038   2.9073   2.9577   2.9801
     3.0557   3.0688   3.0851   3.1249   3.2633   3.3333   5.7042   5.7120
     5.9429   6.3348   6.4450   6.8923   7.0529   7.0578   7.2108   7.2124
     7.4532   7.6583   7.6831   7.6951   7.8600   7.8707   7.8958   8.0219
     8.3188   8.3714   8.4784   8.5523   8.7907   8.8085   8.8296   8.8808
     8.9782   9.1644   9.2315   9.2926   9.3503   9.4101   9.4423   9.4655
     9.5119   9.5253

          k = 0.0000 0.5236 0.0000 ( 68773 PWs)   bands (ev):

   -37.9759 -37.9634 -35.6065 -35.5879 -22.6867 -22.6844 -22.5775 -22.5753
   -22.4001 -22.3438 -22.2572 -22.2049 -18.3394 -18.3323 -18.3271 -18.3216
   -18.3198 -18.3108 -16.8606 -16.8477 -16.8407 -16.8296 -16.8108 -16.7937
   -15.0244 -15.0148 -14.7315 -14.7271 -14.5732 -14.5643 -14.5027 -14.4853
   -14.3975 -14.3876 -14.3177 -14.2539 -14.1789 -14.1739 -14.1343 -14.1234
   -14.1150 -14.1050 -14.0479 -14.0421 -13.9687 -13.9359 -13.9141 -13.9106
   -13.8772 -13.8755 -13.6700 -13.6535 -13.2227 -13.1727  -8.1906  -8.1884
    -8.0311  -8.0290  -7.9664  -7.9638  -7.8970  -7.8935  -7.8921  -7.7898
    -7.7881  -7.7867  -7.7392  -7.7245  -7.6697  -7.6607  -7.6585  -7.5985
    -7.5908  -7.5456  -7.4881  -7.3384  -7.3111  -7.2331  -3.4335  -3.4190
    -3.0790  -3.0469  -2.7330  -2.7271  -2.5496  -2.5210  -2.3600  -2.3574
    -2.2773  -2.2184  -2.2069  -2.1761  -2.1750  -2.1730  -2.1344  -2.1329
    -1.9920  -1.9908  -1.9818  -1.9806  -1.8718  -1.8589  -1.6996  -1.6807
    -1.6753  -1.6731  -1.5830  -1.5618  -1.5242  -1.5007  -1.4915  -1.4863
    -1.1293  -1.1152  -1.0694  -1.0432  -0.9013  -0.8612  -0.8595  -0.8179
    -0.7421  -0.7407  -0.7279  -0.6922  -0.5589  -0.5571  -0.5217  -0.5099
    -0.4712  -0.4657  -0.4593  -0.4504  -0.4290  -0.4149  -0.4135  -0.3951
    -0.3595  -0.3254  -0.3140  -0.2831  -0.2826  -0.2714  -0.2440  -0.2427
    -0.1968  -0.1772  -0.1699  -0.1632   0.1521   0.1626   0.1805   0.2590
     0.2975   0.3013   0.3086   0.3332   0.3508   0.3822   0.4092   0.4380
     0.4906   0.5120   0.5191   0.5574   0.6961   0.7246   0.7320   0.7421
     0.8753   0.8990   0.9273   0.9350   0.9431   1.0908   1.1387   1.1437
     1.1693   1.1794   1.1957   1.2120   1.2802   1.3018   1.3467   1.3523
     1.3551   1.3606   1.3658   1.3958   1.3973   1.4451   1.4451   1.4856
     1.5112   1.5308   1.5466   1.5613   1.5648   1.6002   1.6016   1.6242
     1.6756   1.6887   1.7124   1.7604   1.7826   1.8244   1.8354   1.8695
     1.9159   1.9204   1.9262   1.9356   1.9484   1.9730   1.9808   1.9962
     2.0358   2.0694   2.0741   2.1180   2.1292   2.1583   2.1771   2.1785
     2.2861   2.4257   2.4572   2.7724   3.1745   3.1854   3.2113   3.2253
     3.6861   3.6863   3.9254   3.9285   4.0367   4.0513   6.1468   6.6094
     6.6108   6.7295   6.7312   7.0547   7.0747   7.0989   7.1986   7.2188
     7.9104   7.9149   8.2572   8.3459   8.3723   8.4988   8.5262   8.5288
     8.7321   8.7523   8.7843   8.8338   8.8465   8.8740   9.0392   9.0624
     9.1332   9.2983   9.3589   9.4801   9.5356   9.5590   9.5730   9.5950
     9.6326   9.7119

          k = 0.0000 0.7854 0.0000 ( 68780 PWs)   bands (ev):

   -37.9694 -37.9569 -35.6024 -35.5837 -22.6243 -22.6220 -22.5296 -22.5274
   -22.3404 -22.2898 -22.2096 -22.1550 -18.5483 -18.5362 -18.3148 -18.3024
   -18.2157 -18.2048 -16.9828 -16.9631 -16.8005 -16.7833 -16.7741 -16.7559
   -14.8080 -14.8032 -14.6757 -14.6625 -14.5522 -14.5472 -14.4689 -14.4545
   -14.4061 -14.4004 -14.2501 -14.2207 -14.1460 -14.1059 -14.0698 -14.0624
   -14.0448 -14.0202 -14.0197 -14.0016 -13.9518 -13.9301 -13.8627 -13.8599
   -13.8312 -13.8294 -13.7827 -13.6827 -13.3027 -13.1554  -8.5857  -8.5834
    -8.3262  -8.3240  -8.2651  -8.1597  -8.0082  -7.9700  -7.9675  -7.9010
    -7.8986  -7.8589  -7.8586  -7.8568  -7.7936  -7.6566  -7.6187  -7.5772
    -7.5395  -7.5374  -7.5191  -7.4082  -7.2015  -7.1304  -3.9189  -3.9040
    -3.4845  -3.4538  -3.1394  -3.1341  -2.9361  -2.8831  -2.8133  -2.7508
    -2.7493  -2.7321  -2.6851  -2.6836  -2.5051  -2.5036  -2.3439  -2.3288
    -2.2413  -2.2214  -2.0986  -2.0979  -2.0317  -2.0310  -1.7811  -1.7491
    -1.7119  -1.7035  -1.6825  -1.6754  -1.5544  -1.5470  -1.4202  -1.3713
    -1.3569  -1.1688  -1.1349  -1.0900  -1.0535  -1.0252  -0.9830  -0.9687
    -0.9087  -0.9056  -0.8617  -0.8576  -0.7816  -0.7678  -0.7361  -0.6860
    -0.6832  -0.6742  -0.6604  -0.6327  -0.6306  -0.6060  -0.5953  -0.5854
    -0.5511  -0.5209  -0.5115  -0.4928  -0.4915  -0.4770  -0.4447  -0.4265
    -0.4032  -0.1319  -0.1032  -0.1018   0.0787   0.1136   0.1520   0.1921
     0.2264   0.2397   0.3207   0.3242   0.3806   0.4028   0.4063   0.4649
     0.5204   0.6381   0.6405   0.6496   0.8651   0.9393   0.9435   0.9830
     1.0863   1.1071   1.1621   1.1720   1.1881   1.1897   1.2598   1.2705
     1.2962   1.3559   1.3706   1.3992   1.4187   1.4336   1.4361   1.5106
     1.5108   1.5161   1.5366   1.5856   1.6255   1.6376   1.6677   1.7026
     1.7279   1.7671   1.7967   1.8064   1.8132   1.8178   1.8362   1.8560
     1.8630   1.8745   1.8949   1.9143   1.9195   1.9335   1.9694   1.9734
     2.0199   2.0297   2.0332   2.0866   2.1162   2.1460   2.1470   2.1592
     2.1769   2.2943   2.3273   2.3568   2.3582   2.4002   2.4185   2.4759
     2.5507   2.5813   2.5827   2.6855   3.0201   3.0361   3.1215   3.1399
     3.8828   3.9568   4.5700   4.5749   4.6299   4.6385   5.9254   6.1983
     6.2002   6.8437   6.8740   7.5148   7.5367   7.5840   7.9163   7.9655
     8.4867   8.5596   8.5739   8.6503   8.7086   8.7782   8.8618   8.9009
     8.9351   8.9459   9.0484   9.1494   9.1681   9.2865   9.3328   9.3887
     9.3943   9.4186   9.4922   9.5301   9.5585   9.6682   9.7157   9.7432
     9.7745   9.8040

          k = 0.0000-1.0472 0.0000 ( 68822 PWs)   bands (ev):

   -37.9667 -37.9542 -35.6007 -35.5820 -22.5980 -22.5956 -22.5094 -22.5072
   -22.3152 -22.2671 -22.1895 -22.1338 -18.6288 -18.6168 -18.3076 -18.2951
   -18.1684 -18.1574 -17.0332 -17.0135 -16.7962 -16.7791 -16.7384 -16.7202
   -14.8136 -14.8085 -14.6145 -14.6060 -14.5317 -14.5132 -14.4510 -14.4434
   -14.3858 -14.3852 -14.2909 -14.2420 -14.1232 -14.0825 -14.0674 -14.0423
   -14.0226 -14.0097 -13.9503 -13.9053 -13.8950 -13.8666 -13.8445 -13.8320
   -13.8302 -13.8135 -13.8116 -13.7671 -13.3532 -13.1238  -8.7389  -8.7367
    -8.4449  -8.4428  -8.4182  -8.3094  -8.1268  -7.9755  -7.9729  -7.9658
    -7.8948  -7.8923  -7.8865  -7.8844  -7.8032  -7.6488  -7.6203  -7.6105
    -7.5089  -7.4869  -7.4847  -7.4353  -7.1530  -7.0854  -4.1213  -4.1065
    -3.6714  -3.6406  -3.2958  -3.2911  -3.1151  -3.0311  -2.9980  -2.9830
    -2.9785  -2.9463  -2.9152  -2.9137  -2.5338  -2.5324  -2.3678  -2.3648
    -2.3481  -2.3451  -2.1210  -2.1203  -2.0189  -2.0183  -1.8448  -1.8227
    -1.7999  -1.7871  -1.7156  -1.6640  -1.5465  -1.4691  -1.4612  -1.2391
    -1.2175  -1.2119  -1.2058  -1.1933  -1.1325  -1.0890  -1.0828  -1.0779
    -0.9481  -0.9436  -0.9392  -0.9379  -0.9369  -0.9267  -0.7962  -0.7934
    -0.7868  -0.7269  -0.7237  -0.7207  -0.7111  -0.7059  -0.6799  -0.6754
    -0.6351  -0.6310  -0.5819  -0.5806  -0.5495  -0.5269  -0.4392  -0.3782
    -0.3575  -0.0998  -0.0671  -0.0658   0.0414   0.0489   0.0562   0.0921
     0.1526   0.2487   0.3275   0.3304   0.3916   0.3928   0.4119   0.4745
     0.5502   0.6595   0.6984   0.7136   0.9293   0.9777   1.0002   1.0436
     1.1017   1.1348   1.1615   1.2306   1.2555   1.3046   1.3160   1.3355
     1.3357   1.3662   1.4637   1.4781   1.4935   1.5030   1.5082   1.5113
     1.5389   1.5583   1.5604   1.5761   1.6641   1.7200   1.7471   1.7672
     1.7893   1.8008   1.8366   1.8492   1.8701   1.9229   1.9404   1.9508
     2.0204   2.0255   2.0380   2.0464   2.0502   2.0630   2.0684   2.0977
     2.1181   2.1274   2.1373   2.2776   2.2915   2.2949   2.3181   2.3299
     2.3394   2.3421   2.3471   2.3769   2.4741   2.5602   2.5616   2.6031
     2.6165   2.7139   2.7446   2.7460   2.7850   2.8081   2.9501   2.9730
     3.8854   3.9931   4.7726   4.7817   4.8429   4.8495   5.8092   5.9589
     5.9604   6.7191   6.7718   7.9357   7.9382   7.9648   8.1399   8.3349
     8.4543   8.5006   8.5160   8.6201   8.8509   8.8848   8.9501   8.9531
     9.0790   9.1372   9.1422   9.2368   9.2505   9.2571   9.3518   9.3740
     9.5137   9.5159   9.5249   9.5501   9.5509   9.7536   9.7839   9.8704
     9.9102  10.0358

          k = 0.1250 0.0000 0.0000 ( 68851 PWs)   bands (ev):

   -37.9851 -37.9726 -35.6123 -35.5937 -22.7673 -22.7650 -22.6482 -22.6460
   -22.4787 -22.4157 -22.3261 -22.2760 -18.4592 -18.4485 -18.3538 -18.3414
   -17.9883 -17.9758 -16.9629 -16.9444 -16.8377 -16.8207 -16.6421 -16.6226
   -15.3427 -15.3324 -14.9211 -14.9168 -14.6567 -14.6082 -14.5401 -14.5217
   -14.5146 -14.4774 -14.4681 -14.4216 -14.4151 -14.3984 -14.2289 -14.2115
   -14.0528 -14.0444 -13.9532 -13.9504 -13.9437 -13.9395 -13.9378 -13.9299
   -13.8513 -13.8258 -13.6948 -13.5042 -13.2939 -12.9883  -8.0121  -8.0094
    -7.9054  -7.9030  -7.8074  -7.8053  -7.7821  -7.7010  -7.6748  -7.6726
    -7.6448  -7.5933  -7.5912  -7.5773  -7.4634  -7.4544  -7.4522  -7.3847
    -7.3535  -7.2929  -7.2616  -7.1628  -7.1427  -7.0434  -2.9051  -2.9006
    -2.7396  -2.7081  -2.1240  -2.1228  -2.0595  -2.0586  -1.9968  -1.9896
    -1.8752  -1.8563  -1.7967  -1.7868  -1.7781  -1.7548  -1.7005  -1.6819
    -1.6346  -1.6271  -1.6202  -1.6023  -1.4667  -1.4518  -1.3348  -1.3267
    -1.1563  -1.1157  -1.0493  -1.0064  -0.9988  -0.9589  -0.8877  -0.8741
    -0.8730  -0.8726  -0.8716  -0.8596  -0.8102  -0.7965  -0.7746  -0.6850
    -0.6538  -0.6290  -0.6279  -0.5203  -0.5176  -0.3896  -0.3632  -0.3401
    -0.2721  -0.2600  -0.2448  -0.2026  -0.1764  -0.1522  -0.1452  -0.1395
    -0.1391  -0.1092  -0.1081  -0.0925  -0.0722  -0.0272  -0.0191   0.0370
     0.0836   0.0856   0.0959   0.0988   0.1203   0.1308   0.1580   0.1625
     0.2618   0.2728   0.2754   0.2756   0.3203   0.3216   0.3569   0.3582
     0.4095   0.4143   0.4281   0.4588   0.4670   0.4839   0.4941   0.5039
     0.5688   0.6216   0.6240   0.6246   0.6605   0.6684   0.6997   0.7363
     0.8035   0.8283   0.8618   0.9197   0.9845   1.0230   1.0395   1.0972
     1.1373   1.1419   1.1430   1.1844   1.2042   1.2518   1.2712   1.2793
     1.3033   1.3138   1.3369   1.3500   1.3678   1.4022   1.4161   1.5069
     1.5290   1.5346   1.5381   1.5705   1.5834   1.6104   1.6813   1.6880
     1.7947   1.8205   1.8225   1.8358   1.8985   1.9005   1.9122   1.9193
     1.9741   1.9781   1.9782   2.0090   2.0310   2.1476   2.1498   2.2769
     2.3421   2.3552   2.3679   2.4523   2.4628   2.4637   2.5575   2.5761
     2.6861   2.6931   2.6984   2.7965   2.9655   2.9913   5.3680   5.3816
     5.7430   6.1095   6.3019   6.7567   6.7909   6.8457   7.0106   7.0120
     7.1705   7.5215   7.6564   7.7836   7.8416   7.8507   8.1196   8.1456
     8.2413   8.2532   8.2641   8.4154   8.5901   8.6026   8.7025   8.7790
     8.7823   8.9852   9.0365   9.1629   9.1957   9.2337   9.3649   9.4068
     9.4931   9.5600

          k = 0.1250 0.2618 0.0000 ( 68827 PWs)   bands (ev):

   -37.9824 -37.9699 -35.6106 -35.5920 -22.7430 -22.7407 -22.6289 -22.6267
   -22.4553 -22.3942 -22.3069 -22.2562 -18.4205 -18.4098 -18.3466 -18.3341
   -18.0992 -18.0868 -16.9333 -16.9148 -16.8327 -16.8157 -16.7080 -16.6885
   -15.2376 -15.2273 -14.8669 -14.8627 -14.6080 -14.5706 -14.5238 -14.5121
   -14.4702 -14.4079 -14.4030 -14.4001 -14.3930 -14.3585 -14.1871 -14.1727
   -14.0496 -14.0423 -14.0086 -13.9983 -13.9409 -13.9371 -13.9299 -13.9279
   -13.8881 -13.8608 -13.6787 -13.5544 -13.2736 -13.0439  -8.0051  -8.0025
    -7.9204  -7.9181  -7.8335  -7.8314  -7.7909  -7.7607  -7.7587  -7.6945
    -7.6630  -7.6605  -7.6375  -7.6058  -7.6037  -7.5845  -7.4986  -7.4647
    -7.4048  -7.3733  -7.3255  -7.3003  -7.2229  -7.1733  -3.0043  -2.9962
    -2.7979  -2.7651  -2.2553  -2.2520  -2.1523  -2.1336  -2.1313  -2.1223
    -2.0242  -2.0222  -1.9535  -1.9432  -1.8660  -1.8472  -1.7326  -1.7093
    -1.6854  -1.6454  -1.6421  -1.6355  -1.5863  -1.5519  -1.5052  -1.4886
    -1.3969  -1.3851  -1.3171  -1.3153  -1.2915  -1.2898  -1.2663  -1.2596
    -1.1713  -1.1389  -0.9138  -0.8828  -0.8346  -0.7470  -0.7401  -0.6654
    -0.6491  -0.6406  -0.5485  -0.5391  -0.5068  -0.4934  -0.4477  -0.4240
    -0.3330  -0.3248  -0.2765  -0.2668  -0.2589  -0.2424  -0.2197  -0.2106
    -0.1923  -0.1736  -0.0975  -0.0725  -0.0565  -0.0360  -0.0163   0.0766
     0.0890   0.1048   0.1071   0.1713   0.1752   0.1806   0.2528   0.2585
     0.2647   0.2726   0.2803   0.3087   0.3157   0.3507   0.3940   0.3955
     0.4054   0.4191   0.4377   0.4638   0.4848   0.4868   0.5096   0.5182
     0.5291   0.5513   0.5740   0.5804   0.6908   0.7424   0.7437   0.8682
     0.8759   0.8968   0.9589   0.9627   1.0473   1.0535   1.1052   1.1381
     1.1818   1.2091   1.2196   1.2424   1.2537   1.3047   1.3110   1.3494
     1.3600   1.3744   1.4020   1.4074   1.4507   1.4625   1.5060   1.5073
     1.5113   1.5194   1.5239   1.6293   1.6373   1.6921   1.7016   1.7206
     1.8019   1.8105   1.8379   1.8657   1.8801   1.8899   1.8978   1.9276
     1.9352   1.9384   1.9880   1.9957   2.0480   2.1174   2.2281   2.2525
     2.3293   2.4116   2.5408   2.6844   2.8998   2.9046   2.9608   2.9817
     3.0535   3.0668   3.0887   3.1244   3.2560   3.3251   5.7427   5.7488
     5.9792   6.3754   6.4701   6.8979   7.0443   7.0459   7.1074   7.1114
     7.5035   7.6686   7.7329   7.7650   7.8606   7.9245   8.0075   8.0523
     8.3388   8.3608   8.4594   8.5774   8.7724   8.7852   8.8721   8.9166
     9.0210   9.1164   9.1785   9.2444   9.2975   9.3520   9.4423   9.4507
     9.4996   9.5212

          k = 0.1250 0.5236 0.0000 ( 68776 PWs)   bands (ev):

   -37.9759 -37.9634 -35.6065 -35.5879 -22.6830 -22.6806 -22.5815 -22.5793
   -22.3975 -22.3415 -22.2600 -22.2074 -18.3393 -18.3291 -18.3271 -18.3210
   -18.3167 -18.3102 -16.8622 -16.8487 -16.8425 -16.8304 -16.8209 -16.8039
   -14.9999 -14.9903 -14.7242 -14.7201 -14.5712 -14.5623 -14.4968 -14.4791
   -14.3975 -14.3875 -14.3212 -14.2562 -14.2280 -14.2137 -14.1547 -14.1451
   -14.0754 -14.0662 -14.0491 -14.0444 -13.9675 -13.9341 -13.9125 -13.9086
   -13.8787 -13.8768 -13.6740 -13.6506 -13.2214 -13.1744  -8.2244  -8.2222
    -7.9860  -7.9836  -7.9541  -7.9516  -7.9163  -7.9020  -7.8998  -7.8580
    -7.8559  -7.8171  -7.7476  -7.6777  -7.6586  -7.6088  -7.6065  -7.5975
    -7.5665  -7.5492  -7.5302  -7.4031  -7.2745  -7.1824  -3.3979  -3.3834
    -3.0418  -3.0096  -2.7425  -2.7361  -2.5526  -2.5241  -2.3548  -2.3523
    -2.2746  -2.2160  -2.2044  -2.1773  -2.1761  -2.1750  -2.1341  -2.1327
    -1.9927  -1.9915  -1.9808  -1.9796  -1.8385  -1.8264  -1.7402  -1.7202
    -1.6820  -1.6758  -1.5748  -1.5645  -1.5563  -1.5384  -1.5133  -1.4786
    -1.1364  -1.1251  -1.0740  -1.0373  -0.9148  -0.8700  -0.8675  -0.8235
    -0.7742  -0.7629  -0.6956  -0.6682  -0.6145  -0.6116  -0.5387  -0.5215
    -0.5151  -0.5121  -0.4923  -0.4576  -0.4382  -0.4100  -0.4081  -0.3981
    -0.3610  -0.3438  -0.3228  -0.3024  -0.2846  -0.2625  -0.2400  -0.2118
    -0.1953  -0.1814  -0.1585  -0.1543   0.1823   0.1978   0.2013   0.2500
     0.2603   0.2649   0.3198   0.3399   0.3486   0.3699   0.4309   0.4443
     0.4772   0.5303   0.5389   0.5516   0.6851   0.7156   0.7761   0.7853
     0.8652   0.8919   0.9355   0.9496   0.9539   1.0772   1.1230   1.1341
     1.1797   1.1911   1.1994   1.2159   1.2587   1.2620   1.2993   1.3062
     1.3378   1.3576   1.3682   1.4245   1.4321   1.4494   1.4531   1.4691
     1.5076   1.5143   1.5420   1.5715   1.5781   1.6186   1.6404   1.6422
     1.6743   1.6804   1.7214   1.7454   1.7679   1.7745   1.8163   1.8554
     1.8645   1.8761   1.9078   1.9292   1.9331   1.9527   1.9637   1.9830
     2.0236   2.0738   2.1228   2.1677   2.1702   2.2367   2.2644   2.2986
     2.3855   2.4762   2.5498   2.8024   3.1756   3.1865   3.2121   3.2268
     3.6824   3.6907   3.8932   3.8964   4.0087   4.0230   6.1716   6.6250
     6.6264   6.7372   6.7391   7.0717   7.0931   7.1088   7.2246   7.2407
     7.9590   7.9628   8.2815   8.3325   8.4055   8.4874   8.5156   8.5208
     8.6554   8.6742   8.7966   8.8507   8.8556   8.8985   9.0334   9.0597
     9.1407   9.2965   9.3544   9.4591   9.4839   9.5109   9.5562   9.5727
     9.6872   9.7262

          k = 0.1250 0.7854 0.0000 ( 68770 PWs)   bands (ev):

   -37.9694 -37.9569 -35.6024 -35.5838 -22.6212 -22.6188 -22.5329 -22.5307
   -22.3382 -22.2880 -22.2119 -22.1570 -18.5482 -18.5362 -18.3118 -18.2993
   -18.2152 -18.2042 -16.9828 -16.9631 -16.8098 -16.7928 -16.7763 -16.7581
   -14.7920 -14.7876 -14.6591 -14.6453 -14.5523 -14.5478 -14.4640 -14.4505
   -14.4061 -14.3997 -14.2509 -14.2210 -14.1456 -14.1195 -14.0800 -14.0767
   -14.0700 -14.0389 -14.0151 -13.9992 -13.9448 -13.9230 -13.8616 -13.8588
   -13.8320 -13.8302 -13.7796 -13.6864 -13.2974 -13.1614  -8.5759  -8.5737
    -8.2841  -8.2819  -8.2536  -8.1512  -7.9702  -7.9674  -7.9644  -7.9060
    -7.9038  -7.9019  -7.8995  -7.8253  -7.7898  -7.6592  -7.6188  -7.6113
    -7.5545  -7.5523  -7.5252  -7.4523  -7.2186  -7.1436  -3.8820  -3.8673
    -3.4496  -3.4189  -3.1540  -3.1484  -2.9417  -2.8917  -2.8132  -2.7483
    -2.7468  -2.7345  -2.6876  -2.6861  -2.4913  -2.4898  -2.3317  -2.3159
    -2.2113  -2.1937  -2.1002  -2.0993  -2.0306  -2.0299  -1.7724  -1.7418
    -1.7112  -1.6893  -1.6751  -1.6713  -1.5974  -1.5686  -1.4650  -1.4449
    -1.3737  -1.1696  -1.1298  -1.1140  -1.0754  -1.0363  -0.9789  -0.9722
    -0.9479  -0.9290  -0.8890  -0.8849  -0.8593  -0.8453  -0.7335  -0.7104
    -0.7086  -0.6694  -0.6587  -0.6302  -0.6227  -0.6078  -0.6029  -0.5821
    -0.5565  -0.5203  -0.5139  -0.4951  -0.4934  -0.4582  -0.4096  -0.4003
    -0.3919  -0.1371  -0.1139  -0.1126   0.1182   0.1638   0.1946   0.2313
     0.2447   0.2710   0.2904   0.3015   0.3684   0.4264   0.4311   0.4427
     0.5008   0.6235   0.6833   0.6950   0.8392   0.9119   0.9625   0.9983
     1.0650   1.1025   1.1234   1.1737   1.2033   1.2053   1.2830   1.2993
     1.3126   1.3537   1.3593   1.3827   1.4011   1.4043   1.4302   1.4925
     1.5004   1.5097   1.5270   1.5616   1.6328   1.6611   1.6688   1.6898
     1.7131   1.7221   1.7654   1.7868   1.8139   1.8449   1.8533   1.8676
     1.8785   1.8967   1.9099   1.9375   1.9413   1.9558   1.9739   1.9815
     1.9859   2.0077   2.0603   2.0973   2.1235   2.1376   2.1707   2.2500
     2.2567   2.2719   2.3202   2.3664   2.3677   2.3970   2.4857   2.5300
     2.5732   2.5745   2.5861   2.7166   3.0221   3.0377   3.1258   3.1461
     3.8820   3.9610   4.5055   4.5108   4.5725   4.5809   5.9685   6.2535
     6.2556   6.8726   6.9039   7.4826   7.5039   7.5504   7.9069   7.9522
     8.4317   8.4512   8.5015   8.6921   8.7097   8.7744   8.8903   8.9296
     8.9373   8.9986   9.0782   9.1744   9.1887   9.3037   9.3535   9.3886
     9.4260   9.4422   9.4898   9.5552   9.5643   9.6763   9.6957   9.7169
     9.8024   9.8185

          k = 0.1250-1.0472 0.0000 ( 68866 PWs)   bands (ev):

   -37.9667 -37.9542 -35.6007 -35.5820 -22.5950 -22.5927 -22.5124 -22.5102
   -22.3132 -22.2655 -22.1915 -22.1356 -18.6288 -18.6168 -18.3046 -18.2922
   -18.1679 -18.1570 -17.0332 -17.0135 -16.8052 -16.7881 -16.7404 -16.7222
   -14.8023 -14.7973 -14.5907 -14.5821 -14.5302 -14.5140 -14.4381 -14.4306
   -14.4070 -14.4033 -14.2842 -14.2368 -14.1164 -14.0926 -14.0784 -14.0394
   -14.0359 -14.0270 -13.9517 -13.9059 -13.9034 -13.8735 -13.8464 -13.8316
   -13.8297 -13.8144 -13.8126 -13.7661 -13.3453 -13.1334  -8.7087  -8.7065
    -8.4144  -8.4123  -8.3892  -8.2801  -8.0966  -7.9718  -7.9692  -7.9392
    -7.9215  -7.9194  -7.8977  -7.8952  -7.7997  -7.6476  -7.6426  -7.6203
    -7.5308  -7.5286  -7.5125  -7.4671  -7.1930  -7.1255  -4.0834  -4.0688
    -3.6369  -3.6060  -3.3122  -3.3070  -3.1190  -3.0413  -3.0003  -2.9811
    -2.9781  -2.9487  -2.9179  -2.9164  -2.5170  -2.5155  -2.3492  -2.3401
    -2.3316  -2.3201  -2.1233  -2.1227  -2.0198  -2.0192  -1.8360  -1.8057
    -1.7705  -1.7519  -1.7235  -1.6651  -1.5740  -1.4879  -1.4262  -1.3231
    -1.3133  -1.2654  -1.2509  -1.1951  -1.1861  -1.1182  -1.1156  -1.0351
    -1.0328  -1.0200  -0.9660  -0.9567  -0.9240  -0.9173  -0.8115  -0.8096
    -0.8022  -0.7439  -0.7202  -0.7179  -0.6938  -0.6844  -0.6837  -0.6540
    -0.6491  -0.6261  -0.5860  -0.5833  -0.5499  -0.4908  -0.4408  -0.3517
    -0.3286  -0.1052  -0.0809  -0.0796   0.0810   0.1316   0.1333   0.1448
     0.1835   0.2562   0.2916   0.3050   0.3997   0.4125   0.4158   0.4434
     0.5364   0.6434   0.7487   0.7636   0.8960   1.0030   1.0090   1.0280
     1.1037   1.1370   1.1501   1.1511   1.2583   1.3114   1.3279   1.3314
     1.3419   1.3808   1.4556   1.4643   1.4875   1.5028   1.5124   1.5176
     1.5411   1.5545   1.5546   1.5676   1.5920   1.6717   1.7481   1.7699
     1.8058   1.8194   1.8305   1.9368   1.9475   1.9497   1.9549   1.9578
     1.9984   2.0473   2.0523   2.0596   2.0636   2.0808   2.0937   2.1087
     2.1213   2.1392   2.1521   2.2761   2.2836   2.3085   2.3128   2.3155
     2.3331   2.3507   2.3991   2.4572   2.4588   2.5669   2.5683   2.5712
     2.5977   2.7039   2.7374   2.7388   2.7895   2.8117   2.9595   2.9854
     3.8828   4.0041   4.6937   4.7028   4.7689   4.7756   5.8568   6.0270
     6.0285   6.7510   6.8026   7.8405   7.8454   7.8579   8.1607   8.3248
     8.3428   8.3443   8.4516   8.6196   8.9103   8.9929   8.9960   9.0743
     9.1092   9.1978   9.2162   9.2674   9.2768   9.2981   9.3856   9.4301
     9.4971   9.5196   9.5526   9.5730   9.6093   9.7577   9.8207   9.8575
     9.9249  10.0529

          k = 0.2500 0.0000 0.0000 ( 68809 PWs)   bands (ev):

   -37.9851 -37.9726 -35.6123 -35.5937 -22.7547 -22.7524 -22.6616 -22.6594
   -22.4702 -22.4079 -22.3350 -22.2846 -18.4574 -18.4467 -18.3459 -18.3335
   -17.9883 -17.9758 -16.9700 -16.9516 -16.8661 -16.8492 -16.6421 -16.6226
   -15.2688 -15.2586 -14.8843 -14.8808 -14.6431 -14.5956 -14.5893 -14.5830
   -14.5320 -14.5210 -14.4943 -14.4386 -14.4333 -14.4142 -14.1861 -14.1757
   -14.0371 -14.0297 -13.9585 -13.9549 -13.9486 -13.9457 -13.9398 -13.9327
   -13.8621 -13.8350 -13.6794 -13.5275 -13.2657 -13.0283  -8.0169  -8.0143
    -7.9130  -7.9106  -7.7855  -7.7744  -7.7723  -7.7038  -7.6641  -7.6512
    -7.6489  -7.6123  -7.6102  -7.5942  -7.4807  -7.4785  -7.4300  -7.3600
    -7.3323  -7.2925  -7.2449  -7.1751  -7.1659  -7.0623  -2.8043  -2.7997
    -2.6447  -2.6125  -2.1422  -2.1401  -2.0957  -2.0946  -1.9876  -1.9806
    -1.9569  -1.9223  -1.8752  -1.8534  -1.7903  -1.7806  -1.7094  -1.6745
    -1.6529  -1.6506  -1.6450  -1.6245  -1.4223  -1.4059  -1.4042  -1.3949
    -1.1491  -1.1154  -0.9940  -0.9453  -0.9061  -0.8968  -0.8917  -0.8715
    -0.8699  -0.8673  -0.8657  -0.8655  -0.7602  -0.7389  -0.7240  -0.6427
    -0.5992  -0.5700  -0.5689  -0.5459  -0.4934  -0.4158  -0.3698  -0.3584
    -0.3322  -0.3061  -0.2523  -0.2513  -0.2219  -0.2158  -0.1746  -0.1707
    -0.1681  -0.1616  -0.1501  -0.1424  -0.1343  -0.0750  -0.0454   0.0284
     0.0689   0.0721   0.0859   0.0879   0.1106   0.1218   0.1301   0.1377
     0.3040   0.3228   0.3239   0.3308   0.3439   0.3451   0.3724   0.3740
     0.3778   0.4111   0.4454   0.4696   0.4817   0.5156   0.5484   0.5688
     0.5710   0.6087   0.6120   0.6300   0.6695   0.6957   0.7033   0.7370
     0.7808   0.7897   0.8016   0.8956   0.9587   0.9788   1.0368   1.0763
     1.0919   1.1322   1.1403   1.1427   1.1844   1.1911   1.2114   1.2451
     1.2725   1.3094   1.3311   1.3790   1.3866   1.3945   1.4427   1.4972
     1.5203   1.5452   1.5493   1.6302   1.6396   1.6538   1.6612   1.6658
     1.7409   1.8174   1.8222   1.8713   1.8752   1.9059   1.9106   1.9124
     1.9291   2.0199   2.0242   2.0787   2.1128   2.1154   2.1941   2.2660
     2.3116   2.3211   2.3238   2.4032   2.4609   2.4943   2.5622   2.6095
     2.6959   2.7166   2.7209   2.7918   2.9459   2.9665   5.5107   5.5173
     5.8881   6.2593   6.3818   6.6246   6.6261   6.8041   6.9559   6.9645
     7.3244   7.5148   7.5420   7.7112   8.0701   8.0841   8.1249   8.1845
     8.2441   8.2561   8.3524   8.4953   8.5348   8.5544   8.7280   8.8455
     8.8694   8.9074   9.0117   9.1083   9.2405   9.2589   9.3076   9.4828
     9.5239   9.6033

          k = 0.2500 0.2618 0.0000 ( 68820 PWs)   bands (ev):

   -37.9824 -37.9699 -35.6106 -35.5920 -22.7309 -22.7286 -22.6416 -22.6394
   -22.4472 -22.3869 -22.3154 -22.2642 -18.4188 -18.4081 -18.3388 -18.3264
   -18.0992 -18.0868 -16.9401 -16.9217 -16.8598 -16.8429 -16.7078 -16.6883
   -15.1653 -15.1552 -14.8349 -14.8314 -14.5907 -14.5544 -14.5513 -14.5381
   -14.4980 -14.4863 -14.4368 -14.4197 -14.4142 -14.3713 -14.1450 -14.1366
   -14.0380 -14.0316 -14.0129 -14.0041 -13.9425 -13.9382 -13.9351 -13.9326
   -13.8947 -13.8663 -13.6709 -13.5679 -13.2518 -13.0730  -8.0115  -8.0089
    -7.9405  -7.9383  -7.8871  -7.8849  -7.8070  -7.8042  -7.7936  -7.6943
    -7.6618  -7.6085  -7.5894  -7.5871  -7.5465  -7.5443  -7.5355  -7.5068
    -7.4530  -7.4163  -7.2659  -7.2427  -7.1623  -7.1207  -2.9002  -2.8917
    -2.6964  -2.6634  -2.2904  -2.2861  -2.1695  -2.1399  -2.1098  -2.1067
    -2.0488  -2.0451  -1.9625  -1.9531  -1.9124  -1.8977  -1.8194  -1.7881
    -1.7715  -1.7412  -1.6598  -1.6546  -1.5960  -1.5434  -1.5059  -1.4802
    -1.3619  -1.3491  -1.3110  -1.3085  -1.2944  -1.2928  -1.1841  -1.1780
    -1.0937  -1.0629  -0.9045  -0.8585  -0.8317  -0.7637  -0.7588  -0.7103
    -0.6536  -0.6159  -0.6048  -0.5863  -0.5239  -0.4958  -0.4867  -0.4704
    -0.4586  -0.4085  -0.3559  -0.3334  -0.2686  -0.2501  -0.2263  -0.2159
    -0.2005  -0.1583  -0.0870  -0.0579  -0.0410  -0.0145   0.0196   0.0740
     0.0809   0.1091   0.1153   0.1179   0.1299   0.1796   0.2369   0.2529
     0.2605   0.2663   0.2803   0.2819   0.2932   0.3304   0.4243   0.4284
     0.4303   0.4393   0.4505   0.4818   0.4877   0.4906   0.5115   0.5143
     0.5435   0.5690   0.6186   0.6374   0.6969   0.7021   0.7432   0.8533
     0.8669   0.8865   0.9892   0.9939   1.0235   1.0278   1.1280   1.1672
     1.1936   1.2367   1.2436   1.2462   1.2590   1.2674   1.2905   1.3098
     1.3282   1.3331   1.3525   1.3967   1.4185   1.4311   1.4404   1.4914
     1.5279   1.5406   1.5459   1.6171   1.6215   1.7080   1.7429   1.7674
     1.7705   1.7755   1.7794   1.8265   1.8376   1.8447   1.8590   1.8812
     1.8883   1.9697   2.0004   2.0049   2.0574   2.2027   2.4129   2.4347
     2.4540   2.5540   2.6024   2.7220   2.8849   2.8935   2.9702   2.9869
     3.0450   3.0576   3.0957   3.1222   3.2268   3.2956   5.8522   5.8553
     6.0759   6.4934   6.5466   6.7613   6.7630   6.9037   7.2658   7.2691
     7.5891   7.5994   7.6524   7.8691   7.9701   8.0131   8.1800   8.1825
     8.3496   8.3822   8.5096   8.6393   8.7055   8.7204   8.9292   8.9362
     8.9850   9.0373   9.1423   9.1509   9.1913   9.3273   9.3568   9.4141
     9.4439   9.4549

          k = 0.2500 0.5236 0.0000 ( 68740 PWs)   bands (ev):

   -37.9759 -37.9634 -35.6065 -35.5879 -22.6725 -22.6701 -22.5925 -22.5903
   -22.3906 -22.3357 -22.2671 -22.2139 -18.3392 -18.3270 -18.3216 -18.3196
   -18.3091 -18.3088 -16.8668 -16.8511 -16.8476 -16.8441 -16.8329 -16.8266
   -14.9335 -14.9243 -14.7081 -14.7049 -14.5661 -14.5573 -14.4817 -14.4622
   -14.3980 -14.3879 -14.3541 -14.3211 -14.2723 -14.2526 -14.1659 -14.1561
   -14.0619 -14.0567 -14.0490 -14.0393 -13.9566 -13.9252 -13.9084 -13.9029
   -13.8829 -13.8810 -13.6816 -13.6458 -13.2173 -13.1794  -8.2599  -8.2577
    -8.0067  -8.0046  -7.9697  -7.9670  -7.9423  -7.9069  -7.9047  -7.8445
    -7.8259  -7.8237  -7.7527  -7.6949  -7.6457  -7.6186  -7.5788  -7.5650
    -7.5609  -7.5588  -7.5162  -7.3896  -7.2376  -7.1389  -3.2972  -3.2828
    -2.9391  -2.9071  -2.7765  -2.7680  -2.5642  -2.5359  -2.3377  -2.3352
    -2.2676  -2.2054  -2.1934  -2.1824  -2.1809  -2.1798  -2.1321  -2.1308
    -2.0001  -1.9987  -1.9775  -1.9764  -1.8364  -1.8188  -1.7818  -1.7486
    -1.7401  -1.7252  -1.6770  -1.6247  -1.5009  -1.4895  -1.4813  -1.4580
    -1.1711  -1.1613  -1.0883  -1.0265  -0.9600  -0.9222  -0.8995  -0.8424
    -0.8134  -0.7952  -0.7931  -0.7836  -0.7156  -0.7021  -0.6305  -0.6042
    -0.5165  -0.5068  -0.4873  -0.4484  -0.4335  -0.4124  -0.3911  -0.3861
    -0.3629  -0.3359  -0.3158  -0.3061  -0.2845  -0.2802  -0.2391  -0.2018
    -0.1811  -0.1664  -0.1424  -0.1371   0.0981   0.1251   0.2161   0.2255
     0.2548   0.2711   0.3339   0.3412   0.3569   0.4334   0.4833   0.4904
     0.5089   0.5425   0.6010   0.6112   0.6665   0.6946   0.8420   0.8689
     0.8761   0.8846   0.9401   0.9783   0.9815   1.0549   1.0942   1.1140
     1.1508   1.1815   1.1964   1.2022   1.2235   1.2248   1.2469   1.2607
     1.2719   1.3499   1.3615   1.3638   1.3698   1.4840   1.4912   1.5003
     1.5400   1.5600   1.5662   1.5803   1.5819   1.6384   1.6545   1.6650
     1.6816   1.6977   1.7111   1.7223   1.7384   1.7513   1.7634   1.7964
     1.8223   1.8375   1.8655   1.8985   1.9066   1.9518   1.9548   1.9835
     1.9907   2.0903   2.1409   2.1434   2.2168   2.3407   2.4369   2.5349
     2.6289   2.6543   2.8368   2.9344   3.1784   3.1889   3.2170   3.2346
     3.6776   3.6948   3.7924   3.7969   3.9194   3.9329   6.2343   6.6656
     6.6670   6.7549   6.7571   7.0962   7.1404   7.1644   7.2791   7.3010
     8.0944   8.0969   8.2671   8.2783   8.4649   8.4743   8.5034   8.5216
     8.5349   8.5745   8.7808   8.8567   8.9201   8.9587   9.0105   9.0642
     9.1712   9.3000   9.3611   9.3960   9.4296   9.4520   9.4905   9.5523
     9.6625   9.6755

          k = 0.2500 0.7854 0.0000 ( 68816 PWs)   bands (ev):

   -37.9694 -37.9569 -35.6024 -35.5838 -22.6123 -22.6099 -22.5421 -22.5399
   -22.3326 -22.2834 -22.2176 -22.1620 -18.5482 -18.5361 -18.3044 -18.2920
   -18.2139 -18.2030 -16.9828 -16.9630 -16.8323 -16.8153 -16.7815 -16.7633
   -14.7517 -14.7481 -14.6091 -14.5940 -14.5634 -14.5601 -14.4487 -14.4375
   -14.3992 -14.3913 -14.2540 -14.2214 -14.1771 -14.1490 -14.1375 -14.1045
   -14.0963 -14.0621 -14.0034 -13.9911 -13.9410 -13.9184 -13.8582 -13.8555
   -13.8346 -13.8324 -13.7715 -13.6959 -13.2822 -13.1782  -8.5360  -8.5338
    -8.2121  -8.1749  -8.1727  -8.1136  -8.0331  -8.0310  -7.9536  -7.9510
    -7.9085  -7.9061  -7.8625  -7.7859  -7.7446  -7.7182  -7.6440  -7.6174
    -7.6106  -7.6084  -7.5619  -7.5283  -7.2755  -7.1940  -3.7794  -3.7652
    -3.3549  -3.3244  -3.2013  -3.1940  -2.9633  -2.9193  -2.8116  -2.7413
    -2.7409  -2.7397  -2.6947  -2.6932  -2.4471  -2.4455  -2.2909  -2.2726
    -2.1271  -2.1193  -2.1061  -2.1003  -2.0259  -2.0251  -1.7818  -1.7518
    -1.7495  -1.6868  -1.6814  -1.6730  -1.6545  -1.5981  -1.5899  -1.5511
    -1.3271  -1.2724  -1.2644  -1.1459  -1.1309  -1.0977  -1.0910  -1.0822
    -1.0321  -0.9773  -0.9748  -0.9530  -0.8656  -0.8584  -0.7433  -0.6835
    -0.6626  -0.6572  -0.6528  -0.6271  -0.6110  -0.5940  -0.5821  -0.5617
    -0.5570  -0.5250  -0.5061  -0.4970  -0.4905  -0.4446  -0.3791  -0.3717
    -0.3575  -0.1578  -0.1472  -0.1434   0.0348   0.0763   0.2142   0.2477
     0.3027   0.3465   0.3717   0.3741   0.4514   0.4643   0.4910   0.4960
     0.5389   0.5771   0.7728   0.8053   0.8152   0.8388   1.0095   1.0197
     1.0430   1.0945   1.0994   1.1203   1.2277   1.2645   1.2740   1.2909
     1.3173   1.3219   1.3502   1.3743   1.4039   1.4230   1.4274   1.4504
     1.4800   1.4887   1.5251   1.5352   1.6284   1.6369   1.6461   1.6500
     1.6929   1.7170   1.7475   1.7966   1.8054   1.8151   1.8556   1.8689
     1.8779   1.8884   1.9109   1.9187   1.9383   1.9524   1.9601   1.9807
     1.9956   2.0026   2.0542   2.0860   2.0996   2.1171   2.1576   2.1895
     2.2871   2.3775   2.3912   2.3927   2.5153   2.5491   2.5507   2.6160
     2.6273   2.6442   2.8248   2.8774   3.0285   3.0427   3.1566   3.1864
     3.8820   3.9683   4.3142   4.3209   4.4020   4.4102   6.0874   6.4096
     6.4126   6.9519   6.9857   7.3757   7.3934   7.4362   7.8579   7.8912
     8.3050   8.3253   8.4516   8.7048   8.7095   8.7763   8.8654   8.9288
     9.0400   9.0488   9.1169   9.2398   9.2969   9.3400   9.3696   9.4128
     9.4504   9.5091   9.5504   9.5779   9.6169   9.6538   9.6918   9.7747
     9.9144   9.9504

          k = 0.2500-1.0472 0.0000 ( 68812 PWs)   bands (ev):

   -37.9667 -37.9542 -35.6007 -35.5821 -22.5869 -22.5845 -22.5208 -22.5187
   -22.3081 -22.2615 -22.1967 -22.1400 -18.6287 -18.6167 -18.2973 -18.2849
   -18.1668 -18.1558 -17.0333 -17.0135 -16.8269 -16.8099 -16.7453 -16.7271
   -14.7699 -14.7649 -14.5364 -14.5269 -14.5259 -14.5175 -14.4446 -14.4357
   -14.4031 -14.3960 -14.2766 -14.2297 -14.1216 -14.1090 -14.0973 -14.0879
   -14.0759 -14.0178 -13.9543 -13.9322 -13.9068 -13.8932 -13.8407 -13.8300
   -13.8282 -13.8169 -13.8151 -13.7683 -13.3224 -13.1603  -8.6219  -8.6197
    -8.3257  -8.3235  -8.3064  -8.1980  -8.0197  -8.0176  -8.0096  -7.9614
    -7.9589  -7.9063  -7.9039  -7.8638  -7.7898  -7.7329  -7.6510  -7.6495
    -7.6442  -7.6195  -7.5552  -7.5220  -7.3037  -7.2339  -3.9782  -3.9643
    -3.5432  -3.5123  -3.3634  -3.3567  -3.1372  -3.0742  -3.0071  -2.9749
    -2.9731  -2.9550  -2.9256  -2.9241  -2.4639  -2.4623  -2.2978  -2.2771
    -2.2595  -2.2457  -2.1306  -2.1298  -2.0201  -2.0194  -1.8119  -1.7880
    -1.7563  -1.6759  -1.6690  -1.6681  -1.6060  -1.5669  -1.5413  -1.5396
    -1.4840  -1.4064  -1.3298  -1.3037  -1.2968  -1.2080  -1.1871  -1.1235
    -1.1113  -1.0282  -1.0047  -1.0008  -0.8704  -0.8638  -0.8249  -0.7809
    -0.7370  -0.7359  -0.7273  -0.7058  -0.6958  -0.6674  -0.6519  -0.6299
    -0.6287  -0.5992  -0.5895  -0.5847  -0.5348  -0.4624  -0.4094  -0.3459
    -0.3230  -0.1273  -0.1237  -0.1211   0.0052   0.0514   0.2143   0.2624
     0.3168   0.3341   0.3451   0.3803   0.4387   0.4480   0.4604   0.4997
     0.5341   0.5973   0.8133   0.8855   0.9002   0.9005   1.0688   1.0935
     1.1066   1.1392   1.1544   1.1958   1.2360   1.3200   1.3274   1.3370
     1.3555   1.3655   1.3704   1.4003   1.4371   1.4849   1.5058   1.5158
     1.5228   1.5337   1.5431   1.5547   1.6813   1.6852   1.6973   1.7059
     1.7624   1.7720   1.8488   1.8740   1.9159   1.9250   1.9644   1.9733
     2.0169   2.0298   2.0382   2.0433   2.0499   2.0567   2.0625   2.0961
     2.1123   2.2163   2.2351   2.2878   2.3007   2.3027   2.3176   2.3309
     2.4144   2.4426   2.5292   2.5418   2.5436   2.5862   2.5876   2.6890
     2.7049   2.7168   2.7182   2.7295   2.8050   2.8233   3.0314   3.0677
     3.8830   4.0239   4.4637   4.4741   4.5562   4.5633   5.9911   6.2195
     6.2215   6.8385   6.8874   7.5803   7.5962   7.5997   8.0492   8.0709
     8.2161   8.3665   8.4384   8.6300   9.0239   9.0496   9.1009   9.1207
     9.2962   9.3105   9.3241   9.3849   9.4150   9.4306   9.4585   9.5346
     9.5413   9.5603   9.6305   9.7218   9.7593   9.7641   9.8312   9.8753
     9.9208  10.0525

          k = 0.3750 0.0000 0.0000 ( 68824 PWs)   bands (ev):

   -37.9851 -37.9726 -35.6123 -35.5937 -22.7366 -22.7342 -22.6805 -22.6784
   -22.4602 -22.3991 -22.3450 -22.2946 -18.4556 -18.4450 -18.3379 -18.3254
   -17.9883 -17.9758 -16.9771 -16.9587 -16.8937 -16.8770 -16.6421 -16.6226
   -15.1736 -15.1640 -14.8624 -14.8578 -14.6820 -14.6608 -14.6048 -14.5926
   -14.5486 -14.5336 -14.4819 -14.4577 -14.4532 -14.4370 -14.1615 -14.1533
   -14.0219 -14.0156 -13.9617 -13.9581 -13.9555 -13.9526 -13.9429 -13.9366
   -13.8712 -13.8427 -13.6592 -13.5557 -13.2221 -13.0841  -8.0210  -8.0184
    -7.9186  -7.9162  -7.7891  -7.7342  -7.7322  -7.7079  -7.6771  -7.6411
    -7.6389  -7.6163  -7.6140  -7.6086  -7.5181  -7.5160  -7.3964  -7.3478
    -7.3023  -7.2819  -7.2249  -7.1965  -7.1929  -7.0856  -2.6490  -2.6445
    -2.5042  -2.4713  -2.2733  -2.2702  -2.1203  -2.0849  -2.0652  -2.0481
    -1.9776  -1.9709  -1.9561  -1.9536  -1.7820  -1.7727  -1.7066  -1.6722
    -1.6636  -1.6619  -1.6433  -1.6406  -1.4564  -1.4465  -1.3749  -1.3566
    -1.1414  -1.1154  -0.9651  -0.9495  -0.8694  -0.8679  -0.8658  -0.8644
    -0.8567  -0.8114  -0.7799  -0.7765  -0.7316  -0.6719  -0.6367  -0.6365
    -0.6182  -0.5832  -0.5033  -0.4840  -0.4823  -0.4585  -0.4244  -0.3883
    -0.3698  -0.3676  -0.3152  -0.2964  -0.2954  -0.2870  -0.2507  -0.2493
    -0.2071  -0.1885  -0.1643  -0.1421  -0.0949  -0.0705  -0.0338   0.0175
     0.0378   0.0496   0.0673   0.0750   0.0769   0.0869   0.1243   0.1364
     0.2867   0.3170   0.3294   0.3306   0.3431   0.3443   0.4041   0.4336
     0.4454   0.4472   0.4853   0.4972   0.5226   0.5269   0.5676   0.5728
     0.5807   0.5889   0.6505   0.6525   0.6570   0.6998   0.7295   0.7392
     0.7676   0.8058   0.8093   0.8551   0.9075   0.9195   0.9685   0.9699
     1.0132   1.0385   1.1246   1.1395   1.1869   1.2109   1.2846   1.2861
     1.3151   1.3386   1.3525   1.3881   1.4305   1.4423   1.4520   1.4692
     1.5317   1.5594   1.5658   1.5840   1.5948   1.6202   1.6422   1.6459
     1.6503   1.7376   1.7980   1.8047   1.8258   1.9397   1.9405   1.9821
     2.0178   2.0499   2.0594   2.0639   2.0730   2.0909   2.2685   2.2689
     2.2804   2.3263   2.3434   2.3612   2.4782   2.5409   2.5636   2.6537
     2.6970   2.7500   2.7598   2.7880   2.9032   2.9168   5.7181   5.7207
     6.0741   6.2784   6.2798   6.4734   6.4980   6.7795   7.2016   7.2088
     7.2941   7.3122   7.5641   7.8509   7.9225   7.9250   8.2060   8.2470
     8.2589   8.2747   8.3489   8.4643   8.5594   8.5744   8.6771   8.7257
     8.9983   9.0496   9.1444   9.1834   9.2187   9.2567   9.3115   9.3528
     9.4322   9.7057

          k = 0.3750 0.2618 0.0000 ( 68830 PWs)   bands (ev):

   -37.9824 -37.9699 -35.6106 -35.5920 -22.7138 -22.7114 -22.6595 -22.6574
   -22.4378 -22.3789 -22.3247 -22.2734 -18.4172 -18.4065 -18.3308 -18.3184
   -18.0992 -18.0868 -16.9468 -16.9285 -16.8862 -16.8695 -16.7077 -16.6881
   -15.0709 -15.0614 -14.8126 -14.8089 -14.6198 -14.5989 -14.5822 -14.5670
   -14.5125 -14.5032 -14.4401 -14.4291 -14.4236 -14.3890 -14.1231 -14.1159
   -14.0296 -14.0235 -14.0177 -14.0103 -13.9438 -13.9399 -13.9390 -13.9375
   -13.8984 -13.8690 -13.6615 -13.5831 -13.2183 -13.1140  -8.0214  -8.0188
    -7.9659  -7.9637  -7.9138  -7.9115  -7.8300  -7.8277  -7.7977  -7.7036
    -7.6855  -7.6224  -7.5610  -7.5375  -7.5352  -7.5320  -7.5060  -7.5039
    -7.4787  -7.4493  -7.2237  -7.1991  -7.1194  -7.0807  -2.7411  -2.7324
    -2.5474  -2.5141  -2.3853  -2.3786  -2.2283  -2.1880  -2.0931  -2.0898
    -2.0727  -2.0697  -1.9807  -1.9671  -1.9619  -1.9553  -1.9313  -1.9191
    -1.8059  -1.7826  -1.6645  -1.6605  -1.5991  -1.5351  -1.5063  -1.4744
    -1.3295  -1.3180  -1.3048  -1.2991  -1.2982  -1.2973  -1.0691  -1.0605
    -0.9696  -0.9471  -0.8758  -0.8473  -0.8324  -0.8022  -0.7738  -0.7654
    -0.7547  -0.6906  -0.6293  -0.6244  -0.5855  -0.5627  -0.5583  -0.5243
    -0.5005  -0.4772  -0.4417  -0.3687  -0.2931  -0.2664  -0.2217  -0.1924
    -0.1684  -0.1227  -0.0868  -0.0640  -0.0260  -0.0111  -0.0043   0.0470
     0.0574   0.0724   0.0915   0.1491   0.1588   0.1900   0.2211   0.2367
     0.2465   0.2485   0.2892   0.2924   0.2962   0.3118   0.4424   0.4517
     0.4635   0.4719   0.4736   0.4950   0.4984   0.5041   0.5073   0.5193
     0.5686   0.5880   0.6229   0.6305   0.6962   0.7442   0.7943   0.8205
     0.8277   0.8827   1.0045   1.0096   1.0351   1.0432   1.1063   1.1224
     1.1534   1.1582   1.2086   1.2165   1.2583   1.3219   1.3353   1.3461
     1.3490   1.3591   1.3687   1.3725   1.3836   1.4266   1.4563   1.4868
     1.5292   1.5774   1.5850   1.6135   1.6197   1.6723   1.6808   1.7001
     1.7213   1.7318   1.7331   1.7505   1.7756   1.8473   1.8521   1.8622
     1.8857   1.8921   2.0229   2.0488   2.1411   2.2534   2.5315   2.5758
     2.5938   2.6097   2.7979   2.8303   2.8533   2.8679   2.9856   2.9972
     3.0277   3.0382   3.0812   3.1339   3.1625   3.2391   6.0194   6.0210
     6.1861   6.4831   6.4844   6.6619   6.6806   6.8955   7.3695   7.3858
     7.5218   7.5247   7.8821   8.0258   8.0375   8.1026   8.1517   8.1555
     8.3688   8.4156   8.5632   8.6163   8.7050   8.7108   8.7941   8.8243
     8.9511   9.0387   9.0663   9.2235   9.2834   9.3050   9.3092   9.3321
     9.3794   9.4032

          k = 0.3750 0.5236 0.0000 ( 68769 PWs)   bands (ev):

   -37.9759 -37.9634 -35.6065 -35.5879 -22.6577 -22.6552 -22.6078 -22.6057
   -22.3828 -22.3293 -22.2749 -22.2212 -18.3391 -18.3269 -18.3182 -18.3139
   -18.3074 -18.3015 -16.8725 -16.8691 -16.8542 -16.8516 -16.8503 -16.8313
   -14.8462 -14.8380 -14.7006 -14.6978 -14.5598 -14.5509 -14.4747 -14.4449
   -14.4166 -14.4083 -14.3993 -14.3894 -14.2780 -14.2600 -14.1733 -14.1651
   -14.0855 -14.0775 -14.0370 -14.0265 -13.9415 -13.9130 -13.9042 -13.8975
   -13.8880 -13.8860 -13.6882 -13.6420 -13.2114 -13.1862  -8.2580  -8.2558
    -8.1205  -8.1183  -7.9690  -7.9663  -7.9360  -7.9015  -7.8993  -7.8406
    -7.8015  -7.7461  -7.7150  -7.7129  -7.6696  -7.6589  -7.6089  -7.5745
    -7.5641  -7.5620  -7.4158  -7.2925  -7.2407  -7.1415  -3.1521  -3.1383
    -2.8580  -2.8484  -2.7911  -2.7580  -2.5945  -2.5656  -2.3049  -2.3028
    -2.2597  -2.1989  -2.1971  -2.1886  -2.1731  -2.1590  -2.1252  -2.1236
    -2.0369  -2.0348  -1.9734  -1.9711  -1.9632  -1.9286  -1.9144  -1.9125
    -1.6706  -1.6401  -1.5805  -1.5733  -1.4546  -1.4388  -1.4009  -1.3850
    -1.2384  -1.2258  -1.1469  -1.1234  -1.0965  -1.0190  -1.0054  -0.9533
    -0.9040  -0.8657  -0.8332  -0.8019  -0.7657  -0.7574  -0.5771  -0.5651
    -0.5566  -0.5270  -0.4988  -0.4576  -0.4355  -0.4193  -0.3702  -0.3662
    -0.3461  -0.3258  -0.3169  -0.2942  -0.2765  -0.2654  -0.2341  -0.2125
    -0.1737  -0.1592  -0.1347  -0.1192  -0.0449  -0.0089   0.2106   0.2383
     0.2722   0.2900   0.3216   0.4130   0.4227   0.4347   0.4979   0.5262
     0.6015   0.6099   0.6421   0.6565   0.7022   0.7124   0.8276   0.8748
     0.9218   0.9343   0.9557   1.0062   1.0171   1.0629   1.0775   1.0860
     1.1207   1.1254   1.1764   1.1792   1.1807   1.1844   1.2063   1.2190
     1.2407   1.2761   1.2938   1.4074   1.4135   1.4538   1.4738   1.5270
     1.5385   1.5606   1.5851   1.6306   1.6381   1.6466   1.6479   1.6603
     1.6719   1.6797   1.6988   1.7069   1.7139   1.7387   1.7435   1.7716
     1.7941   1.8008   1.8373   1.8440   1.9324   1.9385   1.9725   2.0104
     2.0145   2.0985   2.1038   2.1063   2.2976   2.3897   2.4902   2.5997
     2.9836   2.9923   3.1324   3.1500   3.1822   3.1915   3.2630   3.2938
     3.6037   3.6146   3.6848   3.6984   3.7603   3.7747   6.3019   6.7138
     6.7154   6.7683   6.7704   7.1020   7.2180   7.2575   7.3193   7.3581
     8.1845   8.2018   8.2730   8.2757   8.3444   8.3655   8.4586   8.4624
     8.6667   8.7510   8.7711   8.8704   8.9258   9.0524   9.0824   9.1134
     9.2396   9.2536   9.2808   9.2887   9.3736   9.4399   9.4647   9.4943
     9.5181   9.5472

          k = 0.3750 0.7854 0.0000 ( 68808 PWs)   bands (ev):

   -37.9694 -37.9569 -35.6024 -35.5838 -22.6001 -22.5976 -22.5547 -22.5526
   -22.3262 -22.2786 -22.2239 -22.1675 -18.5481 -18.5360 -18.2969 -18.2845
   -18.2126 -18.2017 -16.9827 -16.9630 -16.8544 -16.8375 -16.7866 -16.7685
   -14.7014 -14.6982 -14.5965 -14.5936 -14.5353 -14.5190 -14.4285 -14.4212
   -14.3805 -14.3701 -14.2814 -14.2430 -14.2229 -14.2105 -14.1633 -14.1455
   -14.1051 -14.0765 -13.9879 -13.9754 -13.9486 -13.9253 -13.8530 -13.8505
   -13.8390 -13.8364 -13.7615 -13.7072 -13.2592 -13.2029  -8.4547  -8.4525
    -8.1822  -8.1801  -8.1335  -8.0416  -8.0297  -8.0275  -7.9446  -7.9420
    -7.9150  -7.9127  -7.8650  -7.7887  -7.7446  -7.7157  -7.7134  -7.7053
    -7.6356  -7.6211  -7.5850  -7.5209  -7.3718  -7.2877  -3.6380  -3.6251
    -3.2855  -3.2769  -3.2293  -3.1989  -3.0102  -2.9701  -2.8075  -2.7489
    -2.7305  -2.7290  -2.7053  -2.7038  -2.3679  -2.3660  -2.2104  -2.1863
    -2.1473  -2.1458  -2.0145  -2.0132  -1.9836  -1.9734  -1.9176  -1.8817
    -1.8672  -1.8393  -1.6728  -1.6521  -1.6355  -1.6309  -1.5190  -1.5108
    -1.4889  -1.4794  -1.4150  -1.3392  -1.1977  -1.1806  -1.1580  -1.1048
    -1.0351  -1.0008  -0.9869  -0.9721  -0.8036  -0.7928  -0.7532  -0.7209
    -0.6710  -0.6476  -0.6216  -0.6158  -0.5926  -0.5659  -0.5549  -0.5337
    -0.5311  -0.5185  -0.5118  -0.4715  -0.4671  -0.4424  -0.3775  -0.3590
    -0.3143  -0.2079  -0.1969  -0.1762  -0.1116  -0.0771   0.2425   0.3104
     0.3228   0.3471   0.4344   0.4800   0.4848   0.5056   0.6019   0.6160
     0.6416   0.6865   0.7171   0.7364   0.9347   0.9675   1.0146   1.0480
     1.0715   1.0955   1.1180   1.1196   1.1382   1.1845   1.1987   1.2355
     1.2538   1.3046   1.3730   1.3800   1.4196   1.4519   1.4574   1.4917
     1.5061   1.5190   1.5288   1.5541   1.5656   1.5817   1.5983   1.6177
     1.6831   1.6994   1.7130   1.7708   1.7787   1.8254   1.8502   1.8545
     1.8644   1.8743   1.8964   1.9100   1.9141   1.9368   1.9547   1.9671
     1.9746   1.9959   2.0289   2.0556   2.0843   2.0952   2.1451   2.1986
     2.2205   2.3717   2.4284   2.4298   2.4930   2.5142   2.5157   2.6543
     2.9695   2.9741   3.0337   3.0469   3.1476   3.1605   3.3679   3.4013
     3.8744   3.9678   4.0055   4.0237   4.1287   4.1383   6.2418   6.6404
     6.6451   7.0430   7.0733   7.2071   7.2134   7.2544   7.7531   7.7751
     8.2437   8.2703   8.4411   8.7406   8.7495   8.7898   8.8493   8.8834
     8.9941   9.0011   9.1610   9.2194   9.3717   9.4482   9.4720   9.5020
     9.5332   9.5444   9.6601   9.6718   9.7542   9.7837   9.7887   9.8792
     9.9621   9.9998

          k = 0.3750-1.0472 0.0000 ( 68774 PWs)   bands (ev):

   -37.9667 -37.9542 -35.6007 -35.5821 -22.5758 -22.5734 -22.5322 -22.5301
   -22.3024 -22.2573 -22.2024 -22.1448 -18.6286 -18.6166 -18.2899 -18.2774
   -18.1656 -18.1546 -17.0333 -17.0136 -16.8483 -16.8314 -16.7501 -16.7319
   -14.7214 -14.7162 -14.5761 -14.5716 -14.4580 -14.4480 -14.4401 -14.4322
   -14.3591 -14.3528 -14.2753 -14.2271 -14.1623 -14.1564 -14.1504 -14.1439
   -14.0694 -13.9907 -13.9722 -13.9564 -13.9219 -13.9072 -13.8274 -13.8262
   -13.8256 -13.8203 -13.8184 -13.7774 -13.2874 -13.1993  -8.4904  -8.4882
    -8.1876  -8.1854  -8.1830  -8.1624  -8.1602  -8.0838  -7.9466  -7.9442
    -7.9218  -7.9194  -7.8796  -7.8638  -7.8177  -7.8155  -7.7899  -7.7422
    -7.6752  -7.6463  -7.6146  -7.5313  -7.4541  -7.3804  -3.8353  -3.8228
    -3.4499  -3.4414  -3.4197  -3.3886  -3.1834  -3.1317  -3.0112  -2.9644
    -2.9631  -2.9620  -2.9372  -2.9357  -2.3726  -2.3708  -2.2013  -2.1755
    -2.1467  -2.1428  -2.1374  -2.1262  -2.0089  -2.0070  -1.8787  -1.8259
    -1.7896  -1.7774  -1.7414  -1.6988  -1.6853  -1.6665  -1.6571  -1.6502
    -1.5953  -1.5663  -1.5054  -1.4653  -1.2417  -1.2202  -1.2065  -1.1367
    -1.0852  -1.0489  -1.0379  -1.0343  -0.8450  -0.8193  -0.7916  -0.7855
    -0.7524  -0.7228  -0.6795  -0.6545  -0.6524  -0.6490  -0.6403  -0.6192
    -0.6003  -0.5874  -0.5696  -0.5209  -0.4933  -0.4684  -0.3902  -0.3637
    -0.3237  -0.1956  -0.1925  -0.1638  -0.1391  -0.1046   0.2612   0.3301
     0.3533   0.3710   0.4724   0.5115   0.5172   0.5264   0.5477   0.5566
     0.6463   0.7079   0.7287   0.7690   1.0372   1.0692   1.0835   1.1132
     1.1837   1.1935   1.1959   1.2039   1.2138   1.2338   1.2478   1.3094
     1.3409   1.3515   1.3645   1.4130   1.4304   1.5025   1.5073   1.5207
     1.5253   1.5468   1.5548   1.5556   1.5656   1.5823   1.6734   1.6835
     1.7594   1.7692   1.8046   1.8113   1.8230   1.9441   1.9445   1.9585
     1.9595   1.9789   1.9876   2.0248   2.0342   2.0487   2.0774   2.1017
     2.1191   2.1529   2.1890   2.2237   2.2978   2.2997   2.3051   2.3090
     2.3111   2.3682   2.4950   2.6153   2.6167   2.6807   2.6865   2.6879
     2.7863   2.7953   2.8188   2.8344   3.1113   3.1248   3.3500   3.3784
     3.8812   4.0316   4.1024   4.1235   4.2294   4.2394   6.1760   6.5080
     6.5114   6.9474   6.9933   7.2572   7.2631   7.2802   7.8105   7.8357
     8.2871   8.3882   8.4080   8.6558   8.9871   9.1447   9.1683   9.2992
     9.3580   9.3817   9.4121   9.4217   9.4698   9.6160   9.6366   9.6445
     9.6783   9.7303   9.7630   9.8274   9.8654   9.8872   9.9316   9.9595
    10.0120  10.0405

          k =-0.5000 0.0000 0.0000 ( 68956 PWs)   bands (ev):

   -37.9851 -37.9726 -35.6123 -35.5937 -22.7234 -22.7208 -22.6940 -22.6921
[...]
    -0.7710  -0.7388  -0.7284  -0.7113  -0.6728  -0.6391  -0.5759  -0.5281
    -0.4992  -0.4734  -0.3804  -0.3599  -0.3566  -0.3009  -0.2164  -0.1846
    -0.1440  -0.1128  -0.0770  -0.0714  -0.0532  -0.0165   0.0011   0.0272
     0.0315   0.0702   0.1013   0.1688   0.1749   0.2009   0.2110   0.2331
     0.2439   0.2454   0.2896   0.2929   0.3021   0.3130   0.4493   0.4581
     0.4687   0.4820   0.4843   0.5011   0.5069   0.5168   0.5319   0.5395
     0.5600   0.5634   0.6062   0.6245   0.7211   0.7744   0.7846   0.8256
     0.8564   0.8689   0.9977   1.0091   1.0472   1.0530   1.0620   1.0742
     1.1453   1.1484   1.1748   1.1781   1.2475   1.3250   1.3414   1.3657
     1.3663   1.3703   1.4177   1.4244   1.4250   1.4456   1.5142   1.5170
     1.5305   1.5525   1.5590   1.5787   1.5874   1.6521   1.6578   1.6660
     1.6698   1.6949   1.7101   1.7360   1.7707   1.7813   1.8769   1.8782
     1.8822   1.8839   2.0394   2.0556   2.1955   2.2434   2.5478   2.5857
     2.6938   2.7021   2.8047   2.8235   2.9162   2.9376   3.0038   3.0095
     3.0136   3.0218   3.0462   3.0933   3.1688   3.1790   6.2240   6.2252
     6.2332   6.2419   6.2444   6.7605   6.7972   6.8944   7.2276   7.2476
     7.8050   7.8090   7.8578   7.8609   8.0788   8.0884   8.1008   8.3017
     8.3133   8.3830   8.4421   8.6237   8.6898   8.7126   8.8210   8.8430
     9.0139   9.0151   9.0612   9.1018   9.2491   9.2534   9.2654   9.3236
     9.3579   9.4558

          k =-0.5000 0.5236 0.0000 ( 68746 PWs)   bands (ev):

   -37.9759 -37.9634 -35.6065 -35.5879 -22.6476 -22.6450 -22.6181 -22.6161
   -22.3791 -22.3264 -22.2785 -22.2245 -18.3391 -18.3268 -18.3176 -18.3107
   -18.3068 -18.2982 -16.8795 -16.8740 -16.8627 -16.8551 -16.8507 -16.8316
   -14.7898 -14.7828 -14.7117 -14.7083 -14.5550 -14.5460 -14.4951 -14.4637
   -14.4253 -14.4214 -14.4024 -14.3921 -14.2763 -14.2635 -14.1755 -14.1685
   -14.0981 -14.0886 -14.0330 -14.0224 -13.9349 -13.9036 -13.9030 -13.9012
   -13.8902 -13.8866 -13.6908 -13.6406 -13.2075 -13.1904  -8.2240  -8.2218
    -8.1949  -8.1928  -7.9684  -7.9658  -7.9022  -7.9009  -7.8988  -7.8702
    -7.8127  -7.7763  -7.7029  -7.6607  -7.6251  -7.6229  -7.6141  -7.6120
    -7.6034  -7.5810  -7.3541  -7.2686  -7.2214  -7.1734  -3.0277  -3.0148
    -2.9484  -2.9372  -2.6734  -2.6613  -2.6360  -2.6356  -2.2679  -2.2662
    -2.2558  -2.2280  -2.2260  -2.1917  -2.1220  -2.1152  -2.1003  -2.0932
    -2.0901  -2.0882  -2.0750  -2.0464  -1.9667  -1.9655  -1.9445  -1.9430
    -1.6657  -1.6422  -1.4315  -1.4181  -1.4047  -1.3961  -1.3638  -1.3584
    -1.2861  -1.2831  -1.2804  -1.2442  -1.1836  -1.1462  -1.0077  -0.9974
    -0.9096  -0.8743  -0.8604  -0.8210  -0.7409  -0.7289  -0.5956  -0.5872
    -0.5386  -0.5205  -0.4880  -0.4865  -0.4395  -0.4223  -0.3557  -0.3508
    -0.3403  -0.3373  -0.3189  -0.2739  -0.2466  -0.2360  -0.2156  -0.2018
    -0.2010  -0.1825  -0.1614  -0.1050  -0.1005  -0.0808   0.2191   0.2283
     0.3005   0.3071   0.3193   0.3941   0.4551   0.4645   0.5411   0.5646
     0.5717   0.5981   0.6853   0.6889   0.7166   0.7346   0.8550   0.8940
     0.9104   0.9318   0.9568   1.0120   1.0465   1.0823   1.0867   1.0918
     1.0959   1.1055   1.1548   1.1597   1.1711   1.1732   1.1754   1.1818
     1.1944   1.2559   1.2963   1.4070   1.4334   1.4743   1.4861   1.5429
     1.5522   1.5833   1.5863   1.5963   1.5979   1.6259   1.6470   1.6570
     1.6611   1.6626   1.6835   1.7011   1.7121   1.7309   1.7580   1.7600
     1.7931   1.7954   1.8637   1.8699   1.8903   1.9121   2.0157   2.0540
     2.0576   2.0612   2.0625   2.0905   2.3331   2.4020   2.5026   2.6189
     3.1503   3.1561   3.1792   3.1886   3.3267   3.3325   3.3775   3.3860
     3.4681   3.4935   3.5586   3.5715   3.6948   3.6992   6.3318   6.7405
     6.7424   6.7679   6.7700   7.1019   7.2708   7.3196   7.3416   7.3465
     8.1410   8.1628   8.2805   8.3096   8.3966   8.3988   8.4180   8.4203
     8.7275   8.7751   8.8604   8.9361   9.0187   9.0284   9.0541   9.1394
     9.2292   9.2439   9.2769   9.3122   9.3220   9.3712   9.3919   9.4902
     9.4985   9.5076

          k =-0.5000 0.7854 0.0000 ( 68798 PWs)   bands (ev):

   -37.9694 -37.9569 -35.6024 -35.5838 -22.5923 -22.5897 -22.5626 -22.5606
   -22.3234 -22.2765 -22.2267 -22.1700 -18.5480 -18.5360 -18.2938 -18.2813
   -18.2121 -18.2012 -16.9827 -16.9629 -16.8635 -16.8467 -16.7888 -16.7706
   -14.6598 -14.6564 -14.6331 -14.6307 -14.4885 -14.4721 -14.4123 -14.4077
   -14.3689 -14.3588 -14.3309 -14.2958 -14.2117 -14.2014 -14.1971 -14.1757
   -14.1006 -14.0839 -13.9765 -13.9635 -13.9586 -13.9337 -13.8488 -13.8466
   -13.8429 -13.8400 -13.7561 -13.7130 -13.2334 -13.2293  -8.3507  -8.3485
    -8.3121  -8.3100  -8.0504  -7.9795  -7.9714  -7.9480  -7.9453  -7.9332
    -7.9311  -7.8542  -7.8536  -7.8520  -7.8515  -7.8238  -7.7624  -7.6604
    -7.6367  -7.6038  -7.5422  -7.4634  -7.4353  -7.3899  -3.5402  -3.5290
    -3.3581  -3.3469  -3.1395  -3.1146  -3.0665  -3.0229  -2.8047  -2.7529
    -2.7184  -2.7174  -2.7169  -2.7159  -2.2880  -2.2861  -2.2081  -2.2060
    -2.0869  -2.0783  -2.0562  -2.0415  -1.9857  -1.9822  -1.9562  -1.9509
    -1.8366  -1.8256  -1.7058  -1.6948  -1.6638  -1.6442  -1.5657  -1.5621
    -1.5352  -1.5324  -1.3948  -1.3787  -1.2689  -1.2480  -1.1248  -1.1046
    -1.0299  -1.0149  -0.9941  -0.9786  -0.7613  -0.7579  -0.7407  -0.7272
    -0.6805  -0.6539  -0.6428  -0.6371  -0.5854  -0.5574  -0.5470  -0.5400
    -0.5288  -0.5144  -0.4971  -0.4561  -0.4256  -0.4101  -0.3633  -0.3388
    -0.2661  -0.2626  -0.2289  -0.2003  -0.1987  -0.1606   0.2795   0.2930
     0.3808   0.3881   0.4041   0.4369   0.5542   0.5676   0.6057   0.6391
     0.6746   0.6933   0.7748   0.8481   0.8715   0.9822   1.0543   1.0865
     1.0959   1.1112   1.1223   1.1278   1.1449   1.1524   1.1781   1.1968
     1.2043   1.2458   1.3909   1.4036   1.4127   1.4164   1.4553   1.4822
     1.4917   1.4985   1.5124   1.5370   1.5401   1.6544   1.6555   1.6706
     1.6760   1.6909   1.7061   1.7277   1.7645   1.7668   1.8214   1.8479
     1.8554   1.8654   1.8985   1.9053   1.9090   1.9269   1.9406   1.9496
     1.9602   1.9798   2.0516   2.0749   2.0903   2.1145   2.1173   2.1609
     2.2324   2.3498   2.4666   2.4680   2.4738   2.4769   2.4785   2.6560
     3.0167   3.0235   3.0399   3.0511   3.5632   3.5799   3.6116   3.6208
     3.7510   3.7549   3.7664   3.7894   3.9096   3.9931   6.3264   6.8854
     6.8882   6.9218   6.9400   7.1347   7.1497   7.2022   7.6863   7.7041
     8.2337   8.2616   8.4418   8.7847   8.7978   8.8141   8.8562   8.8869
     8.8908   8.9205   9.1363   9.2025   9.3519   9.4404   9.6472   9.6532
     9.6646   9.6655   9.7248   9.7633   9.7823   9.7873   9.8406   9.8445
     9.9877  10.0272

          k =-0.5000-1.0472 0.0000 ( 68772 PWs)   bands (ev):

   -37.9667 -37.9542 -35.6007 -35.5821 -22.5689 -22.5664 -22.5392 -22.5372
   -22.2998 -22.2555 -22.2049 -22.1469 -18.6286 -18.6166 -18.2868 -18.2743
   -18.1651 -18.1541 -17.0333 -17.0136 -16.8572 -16.8403 -16.7521 -16.7339
   -14.6822 -14.6763 -14.6167 -14.6135 -14.4572 -14.4485 -14.3849 -14.3776
   -14.3381 -14.3330 -14.2761 -14.2270 -14.1996 -14.1871 -14.1861 -14.1750
   -14.0477 -13.9991 -13.9651 -13.9571 -13.9481 -13.9073 -13.8243 -13.8236
   -13.8226 -13.8217 -13.8160 -13.7854 -13.2494 -13.2389  -8.3541  -8.3518
    -8.3033  -8.3013  -8.0707  -8.0291  -8.0267  -8.0075  -8.0055  -8.0035
    -7.9803  -7.9268  -7.9243  -7.9242  -7.9219  -7.7881  -7.7655  -7.7528
    -7.7002  -7.6305  -7.5861  -7.5745  -7.5115  -7.5033  -3.7415  -3.7308
    -3.5190  -3.5079  -3.3346  -3.3083  -3.2363  -3.1840  -3.0113  -2.9667
    -2.9512  -2.9504  -2.9497  -2.9489  -2.2938  -2.2920  -2.1841  -2.1818
    -2.0693  -2.0382  -2.0379  -2.0221  -2.0215  -2.0110  -1.9417  -1.9348
    -1.9096  -1.8921  -1.8518  -1.8470  -1.7432  -1.7036  -1.6779  -1.6643
    -1.6394  -1.6383  -1.4088  -1.3968  -1.2935  -1.2746  -1.1574  -1.1403
    -1.0770  -1.0672  -1.0491  -1.0410  -0.8510  -0.8387  -0.7640  -0.7342
    -0.7282  -0.7233  -0.6699  -0.6578  -0.6529  -0.6431  -0.6286  -0.6153
    -0.5995  -0.5979  -0.5528  -0.4792  -0.4603  -0.4410  -0.3769  -0.3508
    -0.2689  -0.2513  -0.2499  -0.2250  -0.2229  -0.1766   0.3026   0.3234
     0.4159   0.4161   0.4348   0.4531   0.5835   0.6044   0.6165   0.6547
     0.6565   0.6639   0.7930   0.8820   0.9170   1.0558   1.1393   1.1534
     1.1804   1.1914   1.1928   1.2088   1.2250   1.2727   1.2804   1.3103
     1.3160   1.3506   1.4085   1.4157   1.4592   1.4638   1.4646   1.4878
     1.5435   1.5444   1.5543   1.5582   1.5693   1.5941   1.6245   1.6661
     1.6703   1.6964   1.6984   1.8846   1.9027   1.9044   1.9252   1.9531
     1.9598   1.9919   2.0001   2.0138   2.0243   2.0296   2.0364   2.0970
     2.1181   2.1458   2.1566   2.1780   2.2391   2.2982   2.2994   2.3001
     2.3023   2.3485   2.4806   2.6461   2.6474   2.6551   2.6567   2.6782
     2.8132   2.8232   2.8253   2.8411   3.5699   3.5986   3.6653   3.6750
     3.7627   3.7753   3.8233   3.8640   3.9339   4.0675   6.2864   6.8296
     6.8310   6.8643   6.8899   7.0682   7.0746   7.1319   7.7040   7.7308
     8.3421   8.3698   8.3968   8.6721   8.9642   9.1917   9.2484   9.2680
     9.3160   9.4052   9.4984   9.5041   9.5623   9.5730   9.5872   9.8058
     9.8432   9.8683   9.9186   9.9234   9.9251   9.9321   9.9326  10.0104
    10.0638  10.1106

     the Fermi energy is     2.8264 ev

!    total energy              =   -3711.74562270 Ry
     Harris-Foulkes estimate   =   -3711.74562271 Ry
     estimated scf accuracy    <          6.3E-09 Ry

     The total energy is the sum of the following terms:

     one-electron contribution =  -63887.93860257 Ry
     hartree contribution      =   32252.45704601 Ry
     xc contribution           =   -1264.06568398 Ry
     ewald contribution        =   29187.81560556 Ry
     smearing contrib. (-TS)   =      -0.01398772 Ry

     convergence has been achieved in  31 iterations

     negative rho (up, down):  9.205E-02 0.000E+00

     Forces acting on atoms (cartesian axes, Ry/au):

     atom    1 type  4   force =    -0.00000178    0.00000000   -0.00011782
     atom    2 type  4   force =     0.00000178    0.00000000   -0.00011782
     atom    3 type  3   force =    -0.00002131    0.00000000   -0.00010743
     atom    4 type  3   force =     0.00002131    0.00000000   -0.00010743
     atom    5 type  4   force =    -0.00000598    0.00000000   -0.00006704
     atom    6 type  4   force =     0.00000598    0.00000000   -0.00006704
     atom    7 type  1   force =     0.00000000    0.00000000   -0.00013204
     atom    8 type  1   force =     0.00000000    0.00000000   -0.00011728
     atom    9 type  3   force =     0.00003485    0.00000000   -0.00007525
     atom   10 type  3   force =    -0.00003485    0.00000000   -0.00007525
     atom   11 type  4   force =     0.00000000    0.00000000    0.00024262
     atom   12 type  4   force =    -0.00001153    0.00000000    0.00019501
     atom   13 type  4   force =     0.00001153    0.00000000    0.00019501
     atom   14 type  4   force =     0.00000000    0.00000000    0.00028167
     atom   15 type  2   force =     0.00000000    0.00000000   -0.00063326
     atom   16 type  5   force =     0.00000000    0.00000000   -0.00096546
     atom   17 type  4   force =     0.00016786    0.00000000    0.00090924
     atom   18 type  4   force =    -0.00016786    0.00000000    0.00090924
     atom   19 type  4   force =     0.00000000    0.00000000    0.00074644
     atom   20 type  4   force =     0.00000000    0.00000000    0.00083582
     atom   21 type  3   force =     0.00014477    0.00000000   -0.00030584
     atom   22 type  3   force =    -0.00014477    0.00000000   -0.00030584
     atom   23 type  1   force =     0.00000000    0.00000000    0.00371982
     atom   24 type  1   force =     0.00000000    0.00000000    0.00664222
     atom   25 type  4   force =     0.00072747    0.00000000   -0.00241656
     atom   26 type  4   force =    -0.00072747    0.00000000   -0.00241656
     atom   27 type  4   force =     0.00099216    0.00000000    0.00954005
     atom   28 type  4   force =    -0.00099216    0.00000000    0.00954005
     atom   29 type  3   force =     0.00028196    0.00000000    0.04410980
     atom   30 type  3   force =    -0.00028196    0.00000000    0.04410980
     atom   31 type  4   force =     0.00475197    0.00000000   -0.03947473
     atom   32 type  4   force =    -0.00475197    0.00000000   -0.03947473
     atom   33 type  1   force =     0.00000000    0.00000000   -0.01803906
     atom   34 type  1   force =     0.00000000    0.00000000   -0.01044718
     atom   35 type  3   force =    -0.00118480    0.00000000   -0.00573050
     atom   36 type  3   force =     0.00118480    0.00000000   -0.00573050
     atom   37 type  4   force =     0.00000000    0.00000000    0.00268073
     atom   38 type  4   force =     0.00000000    0.00000000    0.00060188
     atom   39 type  4   force =     0.00108266    0.00000000    0.00035238
     atom   40 type  4   force =    -0.00108266    0.00000000    0.00035238
     atom   41 type  5   force =     0.00000000    0.00000000    0.00056949
     atom   42 type  2   force =     0.00000000    0.00000000   -0.00022545
     atom   43 type  4   force =     0.00000000    0.00000000    0.00003875
     atom   44 type  4   force =    -0.00000357    0.00000000   -0.00010820
     atom   45 type  4   force =     0.00000357    0.00000000   -0.00010820
     atom   46 type  4   force =     0.00000000    0.00000000    0.00009761
     atom   47 type  3   force =     0.00003437    0.00000000    0.00008414
     atom   48 type  3   force =    -0.00003437    0.00000000    0.00008414
     atom   49 type  1   force =     0.00000000    0.00000000    0.00005758
     atom   50 type  1   force =     0.00000000    0.00000000    0.00008597
     atom   51 type  4   force =    -0.00001333    0.00000000   -0.00004899
     atom   52 type  4   force =     0.00001333    0.00000000   -0.00004899
     atom   53 type  3   force =    -0.00003676    0.00000000    0.00024569
     atom   54 type  3   force =     0.00003676    0.00000000    0.00024569
     atom   55 type  4   force =     0.00000497    0.00000000   -0.00000439
     atom   56 type  4   force =    -0.00000497    0.00000000   -0.00000439

     Total force =     0.088467     Total SCF correction =     0.000361


     Computing stress (Cartesian axis) and pressure


     negative rho (up, down):  9.205E-02 0.000E+00
          total   stress  (Ry/bohr**3)                   (kbar)     P=       -4.16
  -0.00000025   0.00000000   0.00000000           -0.04        0.00        0.00
   0.00000000  -0.00002486   0.00000000            0.00       -3.66        0.00
   0.00000000   0.00000000  -0.00005970            0.00        0.00       -8.78

 
     init_run     :     50.58s CPU     51.60s WALL (       1 calls)
     electrons    :   1903.83s CPU   1985.55s WALL (       1 calls)
     forces       :     10.37s CPU     10.98s WALL (       1 calls)
     stress       :     93.06s CPU     94.72s WALL (       1 calls)

     Called by init_run:
     wfcinit      :     45.44s CPU     45.82s WALL (       1 calls)
     potinit      :      1.16s CPU      1.17s WALL (       1 calls)
     hinit0       :      1.77s CPU      1.87s WALL (       1 calls)

     Called by electrons:
     c_bands      :   1593.36s CPU   1639.54s WALL (      31 calls)
     sum_band     :    234.89s CPU    254.78s WALL (      31 calls)
     v_of_rho     :      5.12s CPU      5.19s WALL (      32 calls)
     newd         :     33.37s CPU     48.58s WALL (      32 calls)
     mix_rho      :     37.43s CPU     37.71s WALL (      31 calls)

     Called by c_bands:
     init_us_2    :     14.28s CPU     14.37s WALL (    1625 calls)
     cegterg      :   1530.10s CPU   1563.32s WALL (     775 calls)

     Called by sum_band:
     sum_band:bec :      0.99s CPU      1.00s WALL (     775 calls)
     addusdens    :     29.10s CPU     46.58s WALL (      31 calls)

     Called by *egterg:
     h_psi        :    734.52s CPU    746.91s WALL (    4738 calls)
     s_psi        :     92.45s CPU     93.03s WALL (    4738 calls)
     g_psi        :      1.38s CPU      1.40s WALL (    3938 calls)
     cdiaghg      :    414.00s CPU    415.60s WALL (    4713 calls)

     Called by h_psi:
     h_psi:calbec :    102.85s CPU    103.31s WALL (    4738 calls)
     vloc_psi     :    535.82s CPU    541.60s WALL (    4738 calls)
     add_vuspsi   :     92.97s CPU     93.46s WALL (    4738 calls)

     General routines
     calbec       :    160.69s CPU    161.38s WALL (    5638 calls)
     fft          :      4.46s CPU      4.57s WALL (     439 calls)
     ffts         :     22.06s CPU     22.22s WALL (   16173 calls)
     fftw         :    627.78s CPU    634.49s WALL ( 1120196 calls)
     interpolate  :      0.35s CPU      0.36s WALL (      32 calls)
 
     Parallel routines
     fft_scatt_xy :     58.71s CPU     59.43s WALL ( 1136808 calls)
     fft_scatt_yz :    443.71s CPU    448.06s WALL ( 1136808 calls)
 
     PWSCF        :  36m 4.31s CPU  37m29.74s WALL

 
   This run was terminated on:   0:10:13  28May2021            

=------------------------------------------------------------------------------=
   JOB DONE.
=------------------------------------------------------------------------------=
[1622175014.205825] [holy7c16610:221972:0]          mpool.c:43   UCX  WARN  object 0x41cfcc0 was not returned to mpool ucp_requests
[1622175014.206605] [holy7c18104:265427:0]          mpool.c:43   UCX  WARN  object 0x2bb4200 was not returned to mpool ucp_requests
[1622175014.206628] [holy7c18104:265427:0]          mpool.c:43   UCX  WARN  object 0x2bb4900 was not returned to mpool ucp_requests
[1622175014.211117] [holy7c16611:219704:0]          mpool.c:43   UCX  WARN  object 0x2eeaa80 was not returned to mpool ucp_requests
[1622175014.212172] [holy7c16611:219703:0]          mpool.c:43   UCX  WARN  object 0x3b66700 was not returned to mpool ucp_requests
[1622175014.213690] [holy7c18105:154180:0]          mpool.c:43   UCX  WARN  object 0x33635c0 was not returned to mpool ucp_requests
[1622175014.215490] [holy7c16603:248744:0]          mpool.c:43   UCX  WARN  object 0x39ffec0 was not returned to mpool ucp_requests
[1622175014.217176] [holy7c16602:267921:0]          mpool.c:43   UCX  WARN  object 0x3253640 was not returned to mpool ucp_requests
[1622175014.217201] [holy7c16602:267921:0]          mpool.c:43   UCX  WARN  object 0x3253b80 was not returned to mpool ucp_requests
[1622175014.217205] [holy7c16602:267921:0]          mpool.c:43   UCX  WARN  object 0x32540c0 was not returned to mpool ucp_requests
[1622175014.218845] [holy7c18105:154181:0]          mpool.c:43   UCX  WARN  object 0x3d2d140 was not returned to mpool ucp_requests
[1622175014.221660] [holy7c16602:267915:0]          mpool.c:43   UCX  WARN  object 0x4062d00 was not returned to mpool ucp_requests
[1622175014.222684] [holy7c16602:267919:0]          mpool.c:43   UCX  WARN  object 0x2e78040 was not returned to mpool ucp_requests
[1622175014.222708] [holy7c16602:267919:0]          mpool.c:43   UCX  WARN  object 0x2e78580 was not returned to mpool ucp_requests
[1622175014.222950] [holy7c16602:267920:0]          mpool.c:43   UCX  WARN  object 0x4286700 was not returned to mpool ucp_requests
[1622175014.224013] [holy7c16611:219701:0]          mpool.c:43   UCX  WARN  object 0x47e4ac0 was not returned to mpool ucp_requests
[1622175014.224037] [holy7c16611:219701:0]          mpool.c:43   UCX  WARN  object 0x47e5540 was not returned to mpool ucp_requests
[1622175014.236004] [holy7c16602:267914:0]          mpool.c:43   UCX  WARN  object 0x2cbee80 was not returned to mpool ucp_requests
[1622175014.234572] [holy7c16602:267916:0]          mpool.c:43   UCX  WARN  object 0x2e350c0 was not returned to mpool ucp_requests
[1622175014.234598] [holy7c16602:267916:0]          mpool.c:43   UCX  WARN  object 0x2e35280 was not returned to mpool ucp_requests
