
     Program PWSCF v.6.5 starts on  1Jun2021 at 12: 7: 1 

     This program is part of the open-source Quantum ESPRESSO suite
     for quantum simulation of materials; please cite
         "P. Giannozzi et al., J. Phys.:Condens. Matter 21 395502 (2009);
         "P. Giannozzi et al., J. Phys.:Condens. Matter 29 465901 (2017);
          URL http://www.quantum-espresso.org", 
     in publications or presentations arising from this work. More details at
     http://www.quantum-espresso.org/quote

     Parallel version (MPI), running on    32 processors

     MPI processes distributed on    15 nodes
     R & G space division:  proc/nbgrp/npool/nimage =      32
     Reading input from YCBCO50_212_Y_cleave_7.0_sep.pwi
Warning: card &IONS ignored
Warning: card     ION_DYNAMICS = 'BFGS' ignored
Warning: card / ignored
Warning: card &CELL ignored
Warning: card     CELL_DYNAMICS = 'BFGS' ignored
Warning: card     PRESS_CONV_THR = 5 ignored
Warning: card / ignored

     Current dimensions of program PWSCF are:
     Max number of different atomic species (ntypx) = 10
     Max number of k-points (npk) =  40000
     Max angular momentum in pseudopotentials (lmaxx) =  3

     Subspace diagonalization in iterative solution of the eigenvalue problem:
     one sub-group per band group will be used
     scalapack distributed-memory algorithm (size of sub-group:  5*  5 procs)

     Message from routine setup:
     using ibrav=0 with symmetry is DISCOURAGED, use correct ibrav instead
 
     Parallelization info
     --------------------
     sticks:   dense  smooth     PW     G-vecs:    dense   smooth      PW
     Min         188      62     17               102988    19806    2955
     Max         190      63     18               103018    19857    3000
     Sum        6019    2003    565              3296173   634629   95441
 


     bravais-lattice index     =            0
     lattice parameter (alat)  =      14.8133  a.u.
     unit-cell volume          =   10103.1525 (a.u.)^3
     number of atoms/cell      =           56
     number of atomic types    =            5
     number of electrons       =       456.00
     number of Kohn-Sham states=          274
     kinetic-energy cutoff     =      60.0000  Ry
     charge density cutoff     =     720.0000  Ry
     convergence threshold     =      1.0E-08
     mixing beta               =       0.5000
     number of iterations used =           10  local-TF  mixing
     Exchange-correlation= SLA PW PBE PBE
                           (   1   4   3   4   0   0   0)

     celldm(1)=  14.813271  celldm(2)=   0.000000  celldm(3)=   0.000000
     celldm(4)=   0.000000  celldm(5)=   0.000000  celldm(6)=   0.000000

     crystal axes: (cart. coord. in units of alat)
               a(1) = (   1.000000   0.000000   0.000000 )  
               a(2) = (   0.000000   0.477453   0.000000 )  
               a(3) = (   0.000000   0.000000   6.509890 )  

     reciprocal axes: (cart. coord. in units 2 pi/alat)
               b(1) = (  1.000000  0.000000  0.000000 )  
               b(2) = (  0.000000  2.094448  0.000000 )  
               b(3) = (  0.000000  0.000000  0.153612 )  


     PseudoPot. # 1 for Ba read from file:
     ./pseudo/Ba.pbe-nsp-van.UPF
     MD5 check sum: 2b9c31dd849566dd297d80989662b7a0
     Pseudo is Ultrasoft + core correction, Zval = 10.0
     Generated by new atomic code, or converted to UPF format
     Using radial grid of  907 points,  6 beta functions with: 
                l(1) =   0
                l(2) =   0
                l(3) =   1
                l(4) =   1
                l(5) =   2
                l(6) =   2
     Q(r) pseudized with  6 coefficients,  rinner =    1.200   1.200   1.200
                                                       1.200   1.200

     PseudoPot. # 2 for Ca read from file:
     ./pseudo/Ca.pbe-nsp-van.UPF
     MD5 check sum: 6471098428ff4fa451746d08035ff179
     Pseudo is Ultrasoft + core correction, Zval = 10.0
     Generated by new atomic code, or converted to UPF format
     Using radial grid of  845 points,  6 beta functions with: 
                l(1) =   0
                l(2) =   0
                l(3) =   1
                l(4) =   1
                l(5) =   2
                l(6) =   2
     Q(r) pseudized with  6 coefficients,  rinner =    1.200   1.200   1.200
                                                       1.200   1.200

     PseudoPot. # 3 for Cu read from file:
     ./pseudo/Cu.pbe-n-van_ak.UPF
     MD5 check sum: 34e3282627ffb533726feb647e090d62
     Pseudo is Ultrasoft + core correction, Zval = 11.0
     Generated by new atomic code, or converted to UPF format
     Using radial grid of  867 points,  6 beta functions with: 
                l(1) =   0
                l(2) =   0
                l(3) =   1
                l(4) =   1
                l(5) =   2
                l(6) =   2
     Q(r) pseudized with  8 coefficients,  rinner =    1.400   1.400   1.400
                                                       1.400   1.400

     PseudoPot. # 4 for O  read from file:
     ./pseudo/O.pbe-van_ak.UPF
     MD5 check sum: 783ce7fe4c79b6a4916957118fed0856
     Pseudo is Ultrasoft, Zval =  6.0
     Generated by new atomic code, or converted to UPF format
     Using radial grid of  737 points,  4 beta functions with: 
                l(1) =   0
                l(2) =   0
                l(3) =   1
                l(4) =   1
     Q(r) pseudized with  8 coefficients,  rinner =    0.800   0.800   0.800


     PseudoPot. # 5 for Y  read from file:
     ./pseudo/Y.pbe-nsp-van.UPF
     MD5 check sum: 4412fed3ab108fed87a1b7d6a69a4a38
     Pseudo is Ultrasoft + core correction, Zval = 11.0
     Generated by new atomic code, or converted to UPF format
     Using radial grid of  885 points,  6 beta functions with: 
                l(1) =   0
                l(2) =   0
                l(3) =   1
                l(4) =   1
                l(5) =   2
                l(6) =   2
     Q(r) pseudized with  6 coefficients,  rinner =    1.200   1.200   1.200
                                                       1.200   1.200

     atomic species   valence    mass     pseudopotential
        Ba            10.00   137.32700     Ba( 1.00)
        Ca            10.00    40.07800     Ca( 1.00)
        Cu            11.00    63.54600     Cu( 1.00)
        O              6.00    15.99900     O ( 1.00)
        Y             11.00    88.90584     Y ( 1.00)

      4 Sym. Ops. (no inversion) found ( 2 have fractional translation)



   Cartesian axes

     site n.     atom                  positions (alat units)
         1           O   tau(   1) = (  -0.0008343   0.2387265  -0.0222443  )
         2           O   tau(   2) = (   0.5008340   0.2387265  -0.0222443  )
         3           Cu  tau(   3) = (   0.5017257   0.0000000   0.0109608  )
         4           Cu  tau(   4) = (  -0.0017260   0.0000000   0.0109608  )
         5           O   tau(   5) = (  -0.0028933   0.0000000   0.2506504  )
         6           O   tau(   6) = (   0.5028929   0.0000000   0.2506504  )
         7           Ba  tau(   7) = (   0.7499995   0.2387265   0.2749435  )
         8           Ba  tau(   8) = (   0.2499998   0.2387265   0.2755214  )
         9           Cu  tau(   9) = (   0.4980963   0.0000000   0.5208446  )
        10           Cu  tau(  10) = (   0.0019033   0.0000000   0.5208446  )
        11           O   tau(  11) = (   0.2499998   0.0000000   0.5341884  )
        12           O   tau(  12) = (   0.5083351   0.2387265   0.5569851  )
        13           O   tau(  13) = (  -0.0083354   0.2387265   0.5569851  )
        14           O   tau(  14) = (   0.7499995   0.0000000   0.5573831  )
        15           Ca  tau(  15) = (   0.2499998   0.2387265   0.7436937  )
        16           Y   tau(  16) = (   0.7499995   0.2387265   0.7469544  )
        17           O   tau(  17) = (  -0.0063798   0.2387265   0.9248530  )
        18           O   tau(  18) = (   0.5063794   0.2387265   0.9248530  )
        19           O   tau(  19) = (   0.7499995   0.0000000   0.9338544  )
        20           O   tau(  20) = (   0.2499998   0.0000000   0.9461329  )
        21           Cu  tau(  21) = (   0.0015717   0.0000000   0.9686860  )
        22           Cu  tau(  22) = (   0.4984280   0.0000000   0.9686860  )
        23           Ba  tau(  23) = (   0.2499998   0.2387265   1.2085224  )
        24           Ba  tau(  24) = (   0.7499995   0.2387265   1.2233294  )
        25           O   tau(  25) = (   0.0063772   0.0000000   1.2547537  )
        26           O   tau(  26) = (   0.4936224   0.0000000   1.2547537  )
        27           O   tau(  27) = (   0.5384045   0.2387265   1.4952521  )
        28           O   tau(  28) = (  -0.0384049   0.2387265   1.4952521  )
        29           Cu  tau(  29) = (   0.5006120   0.0000000   1.4952546  )
        30           Cu  tau(  30) = (  -0.0006123   0.0000000   1.4952546  )
        31           O   tau(  31) = (   0.4936212   0.0000000   1.7357531  )
        32           O   tau(  32) = (   0.0063785   0.0000000   1.7357531  )
        33           Ba  tau(  33) = (   0.7499995   0.2387265   1.7671824  )
        34           Ba  tau(  34) = (   0.2499998   0.2387265   1.7819920  )
        35           Cu  tau(  35) = (   0.4984280   0.0000000   2.0218232  )
        36           Cu  tau(  36) = (   0.0015717   0.0000000   2.0218232  )
        37           O   tau(  37) = (   0.2499998   0.0000000   2.0443814  )
        38           O   tau(  38) = (   0.7499995   0.0000000   2.0566511  )
        39           O   tau(  39) = (   0.5063781   0.2387265   2.0656562  )
        40           O   tau(  40) = (  -0.0063785   0.2387265   2.0656562  )
        41           Y   tau(  41) = (   0.7499995   0.2387265   2.2435498  )
        42           Ca  tau(  42) = (   0.2499998   0.2387265   2.2468194  )
        43           O   tau(  43) = (   0.7499995   0.0000000   3.3261059  )
        44           O   tau(  44) = (  -0.0083354   0.2387265   3.3265077  )
        45           O   tau(  45) = (   0.5083351   0.2387265   3.3265077  )
        46           O   tau(  46) = (   0.2499998   0.0000000   3.3493057  )
        47           Cu  tau(  47) = (   0.0019059   0.0000000   3.3626393  )
        48           Cu  tau(  48) = (   0.4980938   0.0000000   3.3626393  )
        49           Ba  tau(  49) = (   0.2499998   0.2387265   3.6079790  )
        50           Ba  tau(  50) = (   0.7499995   0.2387265   3.6085212  )
        51           O   tau(  51) = (  -0.0028895   0.0000000   3.6328283  )
        52           O   tau(  52) = (   0.5028891   0.0000000   3.6328283  )
        53           Cu  tau(  53) = (   0.5017844   0.0000000   3.8725129  )
        54           Cu  tau(  54) = (  -0.0017847   0.0000000   3.8725129  )
        55           O   tau(  55) = (   0.5008990   0.2387265   3.9057193  )
        56           O   tau(  56) = (  -0.0008994   0.2387265   3.9057193  )

     number of k points=    25  Gaussian smearing, width (Ry)=  0.0100
                       cart. coord. in units 2pi/alat
        k(    1) = (   0.0000000   0.0000000   0.0000000), wk =   0.0312500
        k(    2) = (   0.0000000   0.2618060   0.0000000), wk =   0.0625000
        k(    3) = (   0.0000000   0.5236121   0.0000000), wk =   0.0625000
        k(    4) = (   0.0000000   0.7854181   0.0000000), wk =   0.0625000
        k(    5) = (   0.0000000  -1.0472241   0.0000000), wk =   0.0312500
        k(    6) = (   0.1250000   0.0000000   0.0000000), wk =   0.0625000
        k(    7) = (   0.1250000   0.2618060   0.0000000), wk =   0.1250000
        k(    8) = (   0.1250000   0.5236121   0.0000000), wk =   0.1250000
        k(    9) = (   0.1250000   0.7854181   0.0000000), wk =   0.1250000
        k(   10) = (   0.1250000  -1.0472241   0.0000000), wk =   0.0625000
        k(   11) = (   0.2500000   0.0000000   0.0000000), wk =   0.0625000
        k(   12) = (   0.2500000   0.2618060   0.0000000), wk =   0.1250000
        k(   13) = (   0.2500000   0.5236121   0.0000000), wk =   0.1250000
        k(   14) = (   0.2500000   0.7854181   0.0000000), wk =   0.1250000
        k(   15) = (   0.2500000  -1.0472241   0.0000000), wk =   0.0625000
        k(   16) = (   0.3750000   0.0000000   0.0000000), wk =   0.0625000
        k(   17) = (   0.3750000   0.2618060   0.0000000), wk =   0.1250000
        k(   18) = (   0.3750000   0.5236121   0.0000000), wk =   0.1250000
        k(   19) = (   0.3750000   0.7854181   0.0000000), wk =   0.1250000
        k(   20) = (   0.3750000  -1.0472241   0.0000000), wk =   0.0625000
        k(   21) = (  -0.5000000   0.0000000   0.0000000), wk =   0.0312500
        k(   22) = (  -0.5000000   0.2618060   0.0000000), wk =   0.0625000
        k(   23) = (  -0.5000000   0.5236121   0.0000000), wk =   0.0625000
        k(   24) = (  -0.5000000   0.7854181   0.0000000), wk =   0.0625000
        k(   25) = (  -0.5000000  -1.0472241   0.0000000), wk =   0.0312500

     Dense  grid:  3296173 G-vectors     FFT dimensions: ( 128,  64, 864)

     Smooth grid:   634629 G-vectors     FFT dimensions: (  80,  36, 480)

     Estimated max dynamical RAM per process >     951.94 MB

     Estimated total dynamical RAM >      29.75 GB

     Initial potential from superposition of free atoms

     starting charge  455.69457, renormalised to  456.00000

     negative rho (up, down):  9.317E-02 0.000E+00
     Starting wfcs are  396 randomized atomic wfcs

     total cpu time spent up to now is       29.2 secs

     Self-consistent Calculation

     iteration #  1     ecut=    60.00 Ry     beta= 0.50
     Davidson diagonalization with overlap
     ethr =  1.00E-02,  avg # of iterations =  2.0

     negative rho (up, down):  8.576E-02 0.000E+00

     total cpu time spent up to now is       79.9 secs

     total energy              =   -3708.35546743 Ry
     Harris-Foulkes estimate   =   -3716.37115360 Ry
     estimated scf accuracy    <      31.33546022 Ry

     iteration #  2     ecut=    60.00 Ry     beta= 0.50
     Davidson diagonalization with overlap
     ethr =  6.87E-03,  avg # of iterations =  2.0

     negative rho (up, down):  8.522E-02 0.000E+00

     total cpu time spent up to now is      130.5 secs

     total energy              =   -3711.08467867 Ry
     Harris-Foulkes estimate   =   -3712.21450033 Ry
     estimated scf accuracy    <      17.86067970 Ry

     iteration #  3     ecut=    60.00 Ry     beta= 0.50
     Davidson diagonalization with overlap
     ethr =  3.92E-03,  avg # of iterations =  1.0

     negative rho (up, down):  8.529E-02 0.000E+00

     total cpu time spent up to now is      176.9 secs

     total energy              =   -3711.32704726 Ry
     Harris-Foulkes estimate   =   -3711.81448371 Ry
     estimated scf accuracy    <      12.07489068 Ry

     iteration #  4     ecut=    60.00 Ry     beta= 0.50
     Davidson diagonalization with overlap
     ethr =  2.65E-03,  avg # of iterations =  1.0

     negative rho (up, down):  8.581E-02 0.000E+00

     total cpu time spent up to now is      222.7 secs

     total energy              =   -3711.26263185 Ry
     Harris-Foulkes estimate   =   -3711.57631779 Ry
     estimated scf accuracy    <       5.60010150 Ry

     iteration #  5     ecut=    60.00 Ry     beta= 0.50
     Davidson diagonalization with overlap
     ethr =  1.23E-03,  avg # of iterations =  2.0

     negative rho (up, down):  8.665E-02 0.000E+00

     total cpu time spent up to now is      271.3 secs

     total energy              =   -3711.19374571 Ry
     Harris-Foulkes estimate   =   -3711.38878594 Ry
     estimated scf accuracy    <       5.76510275 Ry

     iteration #  6     ecut=    60.00 Ry     beta= 0.50
     Davidson diagonalization with overlap
     ethr =  1.23E-03,  avg # of iterations =  3.0

     negative rho (up, down):  8.849E-02 0.000E+00

     total cpu time spent up to now is      322.7 secs

     total energy              =   -3710.99486998 Ry
     Harris-Foulkes estimate   =   -3711.25537416 Ry
     estimated scf accuracy    <       6.11823881 Ry

     iteration #  7     ecut=    60.00 Ry     beta= 0.50
     Davidson diagonalization with overlap
     ethr =  1.23E-03,  avg # of iterations =  6.4

     negative rho (up, down):  8.906E-02 0.000E+00

     total cpu time spent up to now is      386.8 secs

     total energy              =   -3710.95445174 Ry
     Harris-Foulkes estimate   =   -3711.15708033 Ry
     estimated scf accuracy    <       6.72888965 Ry

     iteration #  8     ecut=    60.00 Ry     beta= 0.50
     Davidson diagonalization with overlap
     ethr =  1.23E-03,  avg # of iterations =  1.1

     negative rho (up, down):  8.915E-02 0.000E+00

     total cpu time spent up to now is      432.4 secs

     total energy              =   -3711.04893003 Ry
     Harris-Foulkes estimate   =   -3711.09900862 Ry
     estimated scf accuracy    <       0.66128416 Ry

     iteration #  9     ecut=    60.00 Ry     beta= 0.50
     Davidson diagonalization with overlap
     ethr =  1.45E-04,  avg # of iterations =  5.6

     negative rho (up, down):  8.981E-02 0.000E+00

     total cpu time spent up to now is      492.9 secs

     total energy              =   -3711.03702266 Ry
     Harris-Foulkes estimate   =   -3711.07577211 Ry
     estimated scf accuracy    <       0.83280325 Ry

     iteration # 10     ecut=    60.00 Ry     beta= 0.50
     Davidson diagonalization with overlap
     ethr =  1.45E-04,  avg # of iterations =  3.6

     negative rho (up, down):  8.980E-02 0.000E+00

     total cpu time spent up to now is      546.4 secs

     total energy              =   -3711.04243015 Ry
     Harris-Foulkes estimate   =   -3711.05375584 Ry
     estimated scf accuracy    <       0.36916129 Ry

     iteration # 11     ecut=    60.00 Ry     beta= 0.50
     Davidson diagonalization with overlap
     ethr =  8.10E-05,  avg # of iterations =  5.8

     negative rho (up, down):  8.949E-02 0.000E+00

     total cpu time spent up to now is      606.5 secs

     total energy              =   -3711.03609905 Ry
     Harris-Foulkes estimate   =   -3711.04834842 Ry
     estimated scf accuracy    <       0.65602980 Ry

     iteration # 12     ecut=    60.00 Ry     beta= 0.50
     Davidson diagonalization with overlap
     ethr =  8.10E-05,  avg # of iterations =  1.5

     negative rho (up, down):  8.952E-02 0.000E+00

     total cpu time spent up to now is      653.6 secs

     total energy              =   -3711.03697741 Ry
     Harris-Foulkes estimate   =   -3711.04153063 Ry
     estimated scf accuracy    <       0.36655703 Ry

     iteration # 13     ecut=    60.00 Ry     beta= 0.50
     Davidson diagonalization with overlap
     ethr =  8.04E-05,  avg # of iterations =  1.6

     negative rho (up, down):  8.925E-02 0.000E+00

     total cpu time spent up to now is      700.9 secs

     total energy              =   -3711.03670008 Ry
     Harris-Foulkes estimate   =   -3711.03889373 Ry
     estimated scf accuracy    <       0.26559680 Ry

     iteration # 14     ecut=    60.00 Ry     beta= 0.50
     Davidson diagonalization with overlap
     ethr =  5.82E-05,  avg # of iterations =  1.2

     negative rho (up, down):  8.877E-02 0.000E+00

     total cpu time spent up to now is      746.9 secs

     total energy              =   -3711.03211025 Ry
     Harris-Foulkes estimate   =   -3711.03745995 Ry
     estimated scf accuracy    <       0.21799022 Ry

     iteration # 15     ecut=    60.00 Ry     beta= 0.50
     Davidson diagonalization with overlap
     ethr =  4.78E-05,  avg # of iterations =  1.8

     negative rho (up, down):  9.113E-02 0.000E+00

     total cpu time spent up to now is      794.3 secs

     total energy              =   -3711.03287156 Ry
     Harris-Foulkes estimate   =   -3711.03442791 Ry
     estimated scf accuracy    <       0.08981768 Ry

     iteration # 16     ecut=    60.00 Ry     beta= 0.50
     Davidson diagonalization with overlap
     ethr =  1.97E-05,  avg # of iterations =  7.6

     negative rho (up, down):  1.174E-01 0.000E+00

     total cpu time spent up to now is      859.6 secs

     total energy              =   -3711.03270273 Ry
     Harris-Foulkes estimate   =   -3711.03358296 Ry
     estimated scf accuracy    <       0.08925043 Ry

     iteration # 17     ecut=    60.00 Ry     beta= 0.50
     Davidson diagonalization with overlap
     ethr =  1.96E-05,  avg # of iterations =  4.4

     negative rho (up, down):  1.196E-01 0.000E+00

     total cpu time spent up to now is      915.7 secs

     total energy              =   -3711.03176866 Ry
     Harris-Foulkes estimate   =   -3711.03412406 Ry
     estimated scf accuracy    <       0.05098514 Ry

     iteration # 18     ecut=    60.00 Ry     beta= 0.50
     Davidson diagonalization with overlap
     c_bands:  1 eigenvalues not converged
     ethr =  1.12E-05,  avg # of iterations =  5.7

     negative rho (up, down):  1.084E-01 0.000E+00

     total cpu time spent up to now is      974.3 secs

     total energy              =   -3711.03017504 Ry
     Harris-Foulkes estimate   =   -3711.03232797 Ry
     estimated scf accuracy    <       0.04733679 Ry

     iteration # 19     ecut=    60.00 Ry     beta= 0.50
     Davidson diagonalization with overlap
     ethr =  1.04E-05,  avg # of iterations =  6.3

     negative rho (up, down):  1.021E-01 0.000E+00

     total cpu time spent up to now is     1035.2 secs

     total energy              =   -3711.02976559 Ry
     Harris-Foulkes estimate   =   -3711.03047390 Ry
     estimated scf accuracy    <       0.04157227 Ry

     iteration # 20     ecut=    60.00 Ry     beta= 0.50
     Davidson diagonalization with overlap
     ethr =  9.12E-06,  avg # of iterations =  2.6

     negative rho (up, down):  9.652E-02 0.000E+00

     total cpu time spent up to now is     1085.7 secs

     total energy              =   -3711.02913884 Ry
     Harris-Foulkes estimate   =   -3711.02983511 Ry
     estimated scf accuracy    <       0.03025404 Ry

     iteration # 21     ecut=    60.00 Ry     beta= 0.50
     Davidson diagonalization with overlap
     ethr =  6.63E-06,  avg # of iterations =  7.7

     negative rho (up, down):  9.144E-02 0.000E+00

     total cpu time spent up to now is     1150.5 secs

     total energy              =   -3711.02816176 Ry
     Harris-Foulkes estimate   =   -3711.02919882 Ry
     estimated scf accuracy    <       0.01752868 Ry

     iteration # 22     ecut=    60.00 Ry     beta= 0.50
     Davidson diagonalization with overlap
     c_bands:  1 eigenvalues not converged
     ethr =  3.84E-06,  avg # of iterations = 10.2

     negative rho (up, down):  8.981E-02 0.000E+00

     total cpu time spent up to now is     1224.3 secs

     total energy              =   -3711.02807014 Ry
     Harris-Foulkes estimate   =   -3711.02839044 Ry
     estimated scf accuracy    <       0.01021226 Ry

     iteration # 23     ecut=    60.00 Ry     beta= 0.50
     Davidson diagonalization with overlap
     c_bands:  1 eigenvalues not converged
     ethr =  2.24E-06,  avg # of iterations =  9.3

     negative rho (up, down):  9.002E-02 0.000E+00

     total cpu time spent up to now is     1295.9 secs

     total energy              =   -3711.02814447 Ry
     Harris-Foulkes estimate   =   -3711.02815557 Ry
     estimated scf accuracy    <       0.00175885 Ry

     iteration # 24     ecut=    60.00 Ry     beta= 0.50
     Davidson diagonalization with overlap
     ethr =  3.86E-07,  avg # of iterations =  4.5

     negative rho (up, down):  9.069E-02 0.000E+00

     total cpu time spent up to now is     1351.5 secs

     total energy              =   -3711.02814516 Ry
     Harris-Foulkes estimate   =   -3711.02818576 Ry
     estimated scf accuracy    <       0.00095410 Ry

     iteration # 25     ecut=    60.00 Ry     beta= 0.50
     Davidson diagonalization with overlap
     ethr =  2.09E-07,  avg # of iterations =  4.6

     negative rho (up, down):  8.966E-02 0.000E+00

     total cpu time spent up to now is     1408.0 secs

     total energy              =   -3711.02819125 Ry
     Harris-Foulkes estimate   =   -3711.02816452 Ry
     estimated scf accuracy    <       0.00030617 Ry

     iteration # 26     ecut=    60.00 Ry     beta= 0.50
     Davidson diagonalization with overlap
     ethr =  6.71E-08,  avg # of iterations =  3.2

     negative rho (up, down):  8.992E-02 0.000E+00

     total cpu time spent up to now is     1460.9 secs

     total energy              =   -3711.02819791 Ry
     Harris-Foulkes estimate   =   -3711.02820602 Ry
     estimated scf accuracy    <       0.00016537 Ry

     iteration # 27     ecut=    60.00 Ry     beta= 0.50
     Davidson diagonalization with overlap
     ethr =  3.63E-08,  avg # of iterations =  1.3

     negative rho (up, down):  8.990E-02 0.000E+00

     total cpu time spent up to now is     1507.5 secs

     total energy              =   -3711.02820149 Ry
     Harris-Foulkes estimate   =   -3711.02820461 Ry
     estimated scf accuracy    <       0.00011062 Ry

     iteration # 28     ecut=    60.00 Ry     beta= 0.50
     Davidson diagonalization with overlap
     ethr =  2.43E-08,  avg # of iterations =  1.4

     negative rho (up, down):  9.035E-02 0.000E+00

     total cpu time spent up to now is     1554.0 secs

     total energy              =   -3711.02819953 Ry
     Harris-Foulkes estimate   =   -3711.02820386 Ry
     estimated scf accuracy    <       0.00006364 Ry

     iteration # 29     ecut=    60.00 Ry     beta= 0.50
     Davidson diagonalization with overlap
     ethr =  1.40E-08,  avg # of iterations =  2.0

     negative rho (up, down):  9.084E-02 0.000E+00

     total cpu time spent up to now is     1602.6 secs

     total energy              =   -3711.02819879 Ry
     Harris-Foulkes estimate   =   -3711.02820223 Ry
     estimated scf accuracy    <       0.00002117 Ry

     iteration # 30     ecut=    60.00 Ry     beta= 0.50
     Davidson diagonalization with overlap
     ethr =  4.64E-09,  avg # of iterations =  2.2

     negative rho (up, down):  9.072E-02 0.000E+00

     total cpu time spent up to now is     1652.3 secs

     total energy              =   -3711.02820040 Ry
     Harris-Foulkes estimate   =   -3711.02820003 Ry
     estimated scf accuracy    <       0.00003720 Ry

     iteration # 31     ecut=    60.00 Ry     beta= 0.50
     Davidson diagonalization with overlap
     ethr =  4.64E-09,  avg # of iterations =  1.6

     negative rho (up, down):  9.068E-02 0.000E+00

     total cpu time spent up to now is     1699.8 secs

     total energy              =   -3711.02820071 Ry
     Harris-Foulkes estimate   =   -3711.02820076 Ry
     estimated scf accuracy    <       0.00002094 Ry

     iteration # 32     ecut=    60.00 Ry     beta= 0.50
     Davidson diagonalization with overlap
     ethr =  4.59E-09,  avg # of iterations =  1.0

     negative rho (up, down):  9.096E-02 0.000E+00

     total cpu time spent up to now is     1745.6 secs

     total energy              =   -3711.02819966 Ry
     Harris-Foulkes estimate   =   -3711.02820089 Ry
     estimated scf accuracy    <       0.00000730 Ry

     iteration # 33     ecut=    60.00 Ry     beta= 0.50
     Davidson diagonalization with overlap
     ethr =  1.60E-09,  avg # of iterations =  1.6

     negative rho (up, down):  9.124E-02 0.000E+00

     total cpu time spent up to now is     1793.2 secs

     total energy              =   -3711.02819895 Ry
     Harris-Foulkes estimate   =   -3711.02819988 Ry
     estimated scf accuracy    <       0.00000449 Ry

     iteration # 34     ecut=    60.00 Ry     beta= 0.50
     Davidson diagonalization with overlap
     ethr =  9.84E-10,  avg # of iterations =  1.6

     negative rho (up, down):  9.133E-02 0.000E+00

     total cpu time spent up to now is     1840.2 secs

     total energy              =   -3711.02819887 Ry
     Harris-Foulkes estimate   =   -3711.02819907 Ry
     estimated scf accuracy    <       0.00000102 Ry

     iteration # 35     ecut=    60.00 Ry     beta= 0.50
     Davidson diagonalization with overlap
     ethr =  2.24E-10,  avg # of iterations =  3.2

     negative rho (up, down):  9.144E-02 0.000E+00

     total cpu time spent up to now is     1892.6 secs

     total energy              =   -3711.02819873 Ry
     Harris-Foulkes estimate   =   -3711.02819892 Ry
     estimated scf accuracy    <       0.00000068 Ry

     iteration # 36     ecut=    60.00 Ry     beta= 0.50
     Davidson diagonalization with overlap
     ethr =  1.49E-10,  avg # of iterations =  1.8

     negative rho (up, down):  9.139E-02 0.000E+00

     total cpu time spent up to now is     1941.1 secs

     total energy              =   -3711.02819880 Ry
     Harris-Foulkes estimate   =   -3711.02819875 Ry
     estimated scf accuracy    <       0.00000095 Ry

     iteration # 37     ecut=    60.00 Ry     beta= 0.50
     Davidson diagonalization with overlap
     ethr =  1.49E-10,  avg # of iterations =  1.4

     negative rho (up, down):  9.141E-02 0.000E+00

     total cpu time spent up to now is     1987.7 secs

     total energy              =   -3711.02819876 Ry
     Harris-Foulkes estimate   =   -3711.02819881 Ry
     estimated scf accuracy    <       0.00000057 Ry

     iteration # 38     ecut=    60.00 Ry     beta= 0.50
     Davidson diagonalization with overlap
     ethr =  1.25E-10,  avg # of iterations =  1.0

     negative rho (up, down):  9.142E-02 0.000E+00

     total cpu time spent up to now is     2033.1 secs

     total energy              =   -3711.02819876 Ry
     Harris-Foulkes estimate   =   -3711.02819877 Ry
     estimated scf accuracy    <       0.00000019 Ry

     iteration # 39     ecut=    60.00 Ry     beta= 0.50
     Davidson diagonalization with overlap
     ethr =  4.26E-11,  avg # of iterations =  1.1

     negative rho (up, down):  9.140E-02 0.000E+00

     total cpu time spent up to now is     2080.0 secs

     total energy              =   -3711.02819878 Ry
     Harris-Foulkes estimate   =   -3711.02819876 Ry
     estimated scf accuracy    <       0.00000010 Ry

     iteration # 40     ecut=    60.00 Ry     beta= 0.50
     Davidson diagonalization with overlap
     ethr =  2.10E-11,  avg # of iterations =  1.2

     negative rho (up, down):  9.141E-02 0.000E+00

     total cpu time spent up to now is     2126.0 secs

     total energy              =   -3711.02819877 Ry
     Harris-Foulkes estimate   =   -3711.02819878 Ry
     estimated scf accuracy    <       0.00000003 Ry

     iteration # 41     ecut=    60.00 Ry     beta= 0.50
     Davidson diagonalization with overlap
     ethr =  6.49E-12,  avg # of iterations =  1.8

     negative rho (up, down):  9.140E-02 0.000E+00

     total cpu time spent up to now is     2174.2 secs

     total energy              =   -3711.02819879 Ry
     Harris-Foulkes estimate   =   -3711.02819877 Ry
     estimated scf accuracy    <       0.00000002 Ry

     iteration # 42     ecut=    60.00 Ry     beta= 0.50
     Davidson diagonalization with overlap
     ethr =  4.23E-12,  avg # of iterations =  1.1

     negative rho (up, down):  9.140E-02 0.000E+00

     total cpu time spent up to now is     2219.2 secs

     End of self-consistent calculation

          k = 0.0000 0.0000 0.0000 ( 79365 PWs)   bands (ev):

   -41.7544 -39.4646 -38.9056 -36.5326 -23.8129 -23.6953 -23.6669 -23.5670
   -23.4520 -23.3225 -23.2984 -23.1935 -21.8644 -21.8024 -21.6369 -20.5632
   -20.5025 -20.4258 -19.3807 -19.2766 -18.9088 -17.8807 -17.7454 -17.5623
   -16.8382 -16.3676 -16.2915 -16.1183 -15.8641 -15.8044 -15.6656 -15.6532
   -15.6344 -15.5375 -15.4363 -15.3825 -15.3595 -15.3327 -15.2372 -15.1940
   -14.9811 -14.9207 -14.9096 -14.8720 -14.8659 -14.8600 -14.7717 -14.7674
   -14.7422 -14.5781 -14.5614 -14.4356 -14.3863 -14.0356  -9.1493  -9.0371
    -8.9333  -8.8248  -8.7891  -8.7448  -8.7110  -8.6802  -8.6249  -8.6067
    -8.6046  -8.5103  -8.4665  -8.4471  -8.4430  -8.4067  -8.4012  -8.3687
    -8.3271  -8.2577  -8.2527  -8.1701  -8.1040  -8.0089  -4.2501  -3.8633
    -3.6934  -3.5753  -3.4320  -3.3423  -3.1469  -3.0521  -3.0257  -3.0158
    -2.9903  -2.9646  -2.9206  -2.8980  -2.8664  -2.7638  -2.7161  -2.6786
    -2.6580  -2.5434  -2.5097  -2.4131  -2.4091  -2.3729  -2.3111  -2.3085
    -2.2086  -2.1519  -2.0314  -2.0116  -1.9837  -1.9392  -1.9318  -1.8886
    -1.7998  -1.7983  -1.7830  -1.7556  -1.7497  -1.7344  -1.7313  -1.7300
    -1.6802  -1.6417  -1.6268  -1.5955  -1.5729  -1.4886  -1.4670  -1.4502
    -1.3930  -1.3359  -1.1994  -1.1802  -1.1335  -1.0651  -1.0480  -1.0376
    -1.0278  -1.0144  -1.0099  -0.9843  -0.9059  -0.8850  -0.8794  -0.8790
    -0.8752  -0.8506  -0.8322  -0.8236  -0.8211  -0.7664  -0.7419  -0.7414
    -0.7090  -0.7016  -0.7010  -0.6379  -0.6053  -0.5980  -0.5661  -0.5530
    -0.5526  -0.5506  -0.5119  -0.4953  -0.4641  -0.4638  -0.4197  -0.4140
    -0.3627  -0.3508  -0.3199  -0.2956  -0.2906  -0.2779  -0.2668  -0.2500
    -0.2189  -0.2010  -0.1255  -0.1055  -0.0636  -0.0599   0.0263   0.1135
     0.1635   0.2127   0.2165   0.2311   0.2550   0.2908   0.3642   0.3819
     0.3872   0.4079   0.4149   0.4527   0.4691   0.5176   0.5265   0.5542
     0.5802   0.6042   0.6136   0.6861   0.7647   0.7778   0.8132   0.8478
     0.8899   0.8954   0.9645   0.9680   0.9711   1.0021   1.0097   1.0685
     1.1018   1.1034   1.1903   1.2030   1.2338   1.2507   1.3180   1.3495
     1.4188   1.4362   1.4598   1.5163   1.5389   1.6314   1.6608   1.6801
     1.7173   1.7575   1.8142   1.8209   1.8889   2.0493   2.2657   2.5050
     3.2111   3.3922   4.4008   4.5579   4.6583   4.7359   4.8152   4.8580
     5.2404   5.6747   5.8164   5.9652   6.0956   6.1064   6.1158   6.1534
     6.1804   6.4519   6.5418   6.5465   6.6135   6.6214   6.6301   6.6558
     6.8228   7.1261   7.1605   7.2469   7.3212   7.3559   7.4630   7.5814
     7.5942   7.6774

          k = 0.0000 0.2618 0.0000 ( 79361 PWs)   bands (ev):

   -41.7523 -39.4632 -38.9029 -36.5309 -23.7895 -23.6708 -23.6481 -23.5479
   -23.4284 -23.2975 -23.2795 -23.1743 -21.8593 -21.7986 -21.6780 -20.5587
   -20.5003 -20.4493 -19.3420 -19.2693 -19.0197 -17.8512 -17.7411 -17.6284
   -16.7866 -16.3297 -16.1854 -16.1101 -15.8066 -15.7380 -15.6625 -15.6109
   -15.5972 -15.4990 -15.4345 -15.3593 -15.3237 -15.2729 -15.2059 -15.1566
   -14.9771 -14.9293 -14.8780 -14.8752 -14.8635 -14.8498 -14.8054 -14.7780
   -14.7236 -14.6178 -14.5817 -14.4960 -14.3833 -14.0650  -9.1584  -9.0279
    -8.9266  -8.8379  -8.7717  -8.7246  -8.7219  -8.7018  -8.7011  -8.6801
    -8.6493  -8.6421  -8.6125  -8.5758  -8.4501  -8.4308  -8.4160  -8.3695
    -8.3686  -8.3463  -8.3168  -8.2957  -8.2879  -8.2138  -4.3758  -3.9632
    -3.7658  -3.7552  -3.4341  -3.3715  -3.2749  -3.1713  -3.1307  -3.0643
    -3.0458  -2.9905  -2.9593  -2.9389  -2.8982  -2.8946  -2.8593  -2.8147
    -2.7595  -2.7230  -2.7117  -2.5802  -2.5336  -2.5069  -2.4893  -2.3345
    -2.3108  -2.2774  -2.2452  -2.2259  -2.2131  -2.1748  -2.1474  -2.1272
    -2.1251  -2.0341  -2.0238  -1.8960  -1.8410  -1.7633  -1.7315  -1.7114
    -1.6559  -1.6196  -1.5913  -1.5846  -1.5636  -1.5084  -1.4955  -1.4411
    -1.3868  -1.3048  -1.2860  -1.2835  -1.2253  -1.1761  -1.1490  -1.1178
    -1.1116  -1.1004  -1.0503  -1.0169  -1.0161  -1.0091  -0.9750  -0.9708
    -0.9026  -0.8616  -0.8409  -0.8194  -0.8160  -0.7560  -0.7252  -0.7060
    -0.6686  -0.6389  -0.6376  -0.6260  -0.6179  -0.5872  -0.5570  -0.5417
    -0.5260  -0.5202  -0.4875  -0.4839  -0.4726  -0.4390  -0.4371  -0.4203
    -0.3909  -0.3745  -0.3554  -0.2871  -0.2697  -0.2072  -0.1619  -0.1446
    -0.1046  -0.0883  -0.0569  -0.0348   0.0181   0.1087   0.1245   0.1749
     0.1919   0.2041   0.2460   0.3095   0.3192   0.3680   0.3683   0.3988
     0.4462   0.4971   0.5082   0.5117   0.5751   0.6087   0.6352   0.6430
     0.6434   0.6771   0.7095   0.7119   0.7479   0.7518   0.7944   0.8140
     0.8349   0.8952   0.9031   0.9551   0.9603   0.9745   1.0112   1.0742
     1.1033   1.1769   1.1838   1.2180   1.2275   1.2404   1.3683   1.3857
     1.5602   1.5998   1.6013   1.7173   1.7351   1.8674   1.9813   2.0334
     2.1027   2.1395   2.1851   2.1940   2.2185   2.3736   2.5853   2.5874
     3.3020   3.4784   4.6369   4.7086   4.7839   4.8357   4.9160   4.9908
     5.4463   5.6640   5.8041   5.9722   6.1301   6.2557   6.2871   6.3344
     6.4206   6.4494   6.4814   6.6306   6.7264   6.7592   6.7654   6.9415
     6.9455   7.0295   7.2448   7.4023   7.4268   7.5418   7.6404   7.7457
     7.7640   7.8784

          k = 0.0000 0.5236 0.0000 ( 79249 PWs)   bands (ev):

   -41.7473 -39.4599 -38.8964 -36.5268 -23.7317 -23.6102 -23.6018 -23.5011
   -23.3704 -23.2357 -23.2334 -23.1275 -21.8686 -21.7893 -21.7526 -20.5570
   -20.4959 -20.4948 -19.2599 -19.2518 -19.2424 -17.7810 -17.7683 -17.7306
   -16.6488 -16.2358 -16.1020 -15.9452 -15.7196 -15.6558 -15.5537 -15.4980
   -15.4696 -15.4678 -15.4054 -15.3838 -15.3203 -15.1017 -15.0680 -15.0645
   -15.0449 -14.9712 -14.8954 -14.8378 -14.8017 -14.7899 -14.7722 -14.7571
   -14.7564 -14.6842 -14.6271 -14.6077 -14.3805 -14.1492  -9.2367  -9.1142
    -9.0979  -9.0222  -9.0007  -8.9547  -8.8898  -8.8504  -8.8190  -8.8070
    -8.7516  -8.7134  -8.6979  -8.6876  -8.6190  -8.5997  -8.5842  -8.5774
    -8.4528  -8.4144  -8.3948  -8.3562  -8.2820  -8.2376  -4.7972  -4.3548
    -4.1071  -4.0005  -3.6569  -3.5899  -3.5276  -3.5083  -3.4280  -3.3633
    -3.3148  -3.2829  -3.2459  -3.1315  -3.1134  -3.0999  -3.0582  -2.9924
    -2.9888  -2.9502  -2.9279  -2.9159  -2.9056  -2.8563  -2.8313  -2.8067
    -2.7919  -2.7790  -2.6101  -2.5135  -2.4639  -2.4239  -2.4174  -2.3792
    -2.2003  -2.0629  -2.0530  -1.9968  -1.9376  -1.8612  -1.8045  -1.8043
    -1.7901  -1.7309  -1.6750  -1.6676  -1.6519  -1.6219  -1.5681  -1.5639
    -1.5184  -1.4959  -1.4821  -1.4654  -1.4229  -1.3880  -1.3872  -1.3386
    -1.3363  -1.3357  -1.2653  -1.2616  -1.2457  -1.2156  -1.1817  -1.1678
    -1.1034  -1.0955  -1.0920  -1.0047  -0.9890  -0.9352  -0.7683  -0.7366
    -0.6944  -0.6413  -0.6214  -0.6080  -0.5759  -0.5089  -0.4958  -0.4864
    -0.4803  -0.4791  -0.4123  -0.3913  -0.3658  -0.2319  -0.2314  -0.2259
    -0.1911  -0.0924  -0.0315   0.0104   0.1268   0.1403   0.1977   0.2075
     0.2385   0.2451   0.2529   0.2700   0.3225   0.3704   0.3724   0.3861
     0.4291   0.4294   0.4304   0.4358   0.4641   0.4822   0.5405   0.5486
     0.5837   0.5922   0.5986   0.6188   0.6285   0.6289   0.6387   0.6713
     0.7265   0.7607   0.8469   0.8545   0.8932   0.9153   0.9267   0.9346
     0.9889   1.0142   1.0172   1.0357   1.0641   1.0668   1.1236   1.1433
     1.1691   1.2461   1.2533   1.2980   1.3208   1.3632   1.3962   1.5377
     1.6567   1.6880   1.7461   1.7530   1.9252   2.2544   2.2931   2.4076
     2.4954   2.6490   2.7244   2.7912   2.9264   3.0044   3.1284   3.3939
     3.4226   3.7413   4.3025   4.6738   4.9934   5.1326   5.4321   5.6867
     5.8019   5.8059   5.9416   5.9847   6.0527   6.1395   6.2808   6.3529
     6.6379   6.7650   6.9559   6.9883   7.2136   7.2879   7.3616   7.3800
     7.4956   7.6038   7.7382   7.7572   7.8184   7.9076   7.9155   8.0168
     8.0766   8.0895

          k = 0.0000 0.7854 0.0000 ( 79264 PWs)   bands (ev):

   -41.7423 -39.4567 -38.8898 -36.5227 -23.6724 -23.5544 -23.5479 -23.4531
   -23.3109 -23.1860 -23.1720 -23.0797 -21.9354 -21.7801 -21.7656 -20.5902
   -20.5064 -20.4894 -19.4688 -19.2344 -19.1364 -17.9031 -17.7203 -17.6948
   -16.4699 -16.1384 -16.1330 -15.7959 -15.7301 -15.5970 -15.4758 -15.4745
   -15.3935 -15.3338 -15.3083 -15.3023 -15.2881 -15.1660 -14.9947 -14.9826
   -14.9728 -14.9201 -14.8792 -14.8439 -14.7869 -14.7574 -14.7548 -14.7197
   -14.6904 -14.6773 -14.6441 -14.6428 -14.4061 -14.2663  -9.5898  -9.5092
    -9.3058  -9.2497  -9.2329  -9.1686  -9.1488  -8.9756  -8.9271  -8.9114
    -8.8935  -8.8855  -8.8245  -8.7826  -8.7329  -8.5606  -8.5217  -8.5147
    -8.4631  -8.4512  -8.4206  -8.3693  -8.1717  -8.1135  -5.2616  -4.8392
    -4.4041  -4.3989  -4.0706  -4.0313  -3.9061  -3.8696  -3.8032  -3.6746
    -3.6411  -3.6390  -3.6361  -3.6088  -3.5262  -3.4736  -3.4287  -3.2586
    -3.1623  -3.0994  -3.0583  -3.0294  -3.0227  -2.9826  -2.9556  -2.9230
    -2.8896  -2.8336  -2.6975  -2.6219  -2.4771  -2.4601  -2.4493  -2.3745
    -2.2942  -2.2891  -2.2590  -2.2486  -2.1741  -2.0106  -2.0098  -1.9244
    -1.9065  -1.8348  -1.8263  -1.7969  -1.7847  -1.7545  -1.7372  -1.6852
    -1.6807  -1.6623  -1.6348  -1.6111  -1.5932  -1.5798  -1.5560  -1.5185
    -1.5161  -1.5091  -1.5080  -1.4191  -1.4166  -1.4144  -1.3823  -1.3678
    -1.3496  -1.2886  -1.0845  -1.0279  -0.9896  -0.9315  -0.9252  -0.8047
    -0.7558  -0.6153  -0.5932  -0.5225  -0.5214  -0.4666  -0.4502  -0.4329
    -0.3491  -0.2883  -0.2579  -0.2545  -0.1879  -0.0740  -0.0334  -0.0056
     0.0470   0.0627   0.1826   0.2089   0.2329   0.2422   0.2622   0.3233
     0.3373   0.4068   0.4112   0.4246   0.4431   0.4875   0.5139   0.5621
     0.5668   0.5770   0.6024   0.6325   0.6554   0.6580   0.7364   0.7584
     0.7883   0.8133   0.8212   0.8493   0.8532   0.8697   0.8871   0.9192
     0.9424   0.9489   1.0067   1.0128   1.0383   1.0516   1.0586   1.0875
     1.1292   1.1550   1.1750   1.1886   1.2162   1.2370   1.3218   1.4033
     1.4309   1.4378   1.4698   1.5071   1.5449   1.5753   1.6207   1.6576
     1.6903   1.7245   1.7423   2.1022   2.1545   2.2069   2.2128   2.2656
     2.4441   2.7779   3.1329   3.2899   3.3411   3.5049   3.6505   3.7157
     3.9884   4.0188   4.0334   4.5793   4.8189   5.1457   5.2749   5.3514
     5.4623   5.9301   6.2730   6.4229   6.5653   6.6221   6.7669   6.8696
     7.0086   7.0934   7.1783   7.4956   7.5273   7.6425   7.7093   7.7619
     7.8918   7.9517   7.9947   8.0447   8.0486   8.1722   8.2324   8.3474
     8.3512   8.4722

          k = 0.0000-1.0472 0.0000 ( 79346 PWs)   bands (ev):

   -41.7402 -39.4553 -38.8871 -36.5210 -23.6473 -23.5344 -23.5215 -23.4329
   -23.2857 -23.1661 -23.1450 -23.0595 -21.9724 -21.7763 -21.7606 -20.6111
   -20.5032 -20.4871 -19.5494 -19.2272 -19.0891 -17.9535 -17.7160 -17.6590
   -16.3471 -16.1964 -16.0969 -15.8306 -15.7371 -15.5343 -15.5241 -15.4551
   -15.3708 -15.3100 -15.2232 -15.2176 -15.1665 -15.1254 -15.0797 -14.9961
   -14.9904 -14.9370 -14.8420 -14.8136 -14.7556 -14.7462 -14.7370 -14.6964
   -14.6679 -14.6225 -14.6168 -14.6044 -14.5085 -14.3132  -9.7427  -9.6625
    -9.4234  -9.3842  -9.3685  -9.3012  -9.1822  -9.0288  -9.0260  -8.9575
    -8.9222  -8.8990  -8.8183  -8.8101  -8.7428  -8.5703  -8.5302  -8.4687
    -8.4578  -8.4524  -8.4105  -8.3572  -8.1234  -8.0593  -5.4500  -5.0414
    -4.5905  -4.5169  -4.2521  -4.2096  -4.1158  -4.0677  -3.9508  -3.9069
    -3.8715  -3.8390  -3.7575  -3.7380  -3.6668  -3.6415  -3.4575  -3.2874
    -3.2812  -3.1391  -3.0451  -3.0409  -3.0070  -2.9698  -2.9474  -2.9428
    -2.8239  -2.7848  -2.7602  -2.7147  -2.6390  -2.4997  -2.4960  -2.3900
    -2.3888  -2.3821  -2.3454  -2.2222  -2.1391  -2.1094  -2.0770  -2.0154
    -1.9370  -1.8929  -1.8798  -1.8719  -1.8640  -1.8439  -1.8343  -1.8314
    -1.7169  -1.6890  -1.6796  -1.6705  -1.6654  -1.6483  -1.6226  -1.6224
    -1.6221  -1.5860  -1.5705  -1.5057  -1.4861  -1.4816  -1.4355  -1.3780
    -1.2968  -1.2886  -1.1050  -1.0314  -1.0013  -0.9882  -0.9029  -0.8823
    -0.8148  -0.6009  -0.5770  -0.5326  -0.5280  -0.4647  -0.4410  -0.3967
    -0.3434  -0.2286  -0.2044  -0.1763  -0.1547   0.0507   0.0689   0.0838
     0.0968   0.1139   0.2245   0.2346   0.2409   0.2423   0.2658   0.3926
     0.4075   0.4856   0.5014   0.5034   0.5380   0.5487   0.5618   0.5627
     0.5875   0.5906   0.6202   0.6229   0.7041   0.7084   0.7662   0.8162
     0.8208   0.8338   0.9094   0.9369   0.9538   0.9582   0.9868   1.0202
     1.0283   1.0304   1.1028   1.1054   1.1456   1.1653   1.1756   1.1891
     1.3222   1.3687   1.3810   1.3900   1.4070   1.4187   1.4213   1.4534
     1.5224   1.5502   1.5816   1.6108   1.6240   1.6366   1.6808   1.7100
     1.7339   1.8209   1.8705   1.8889   2.0364   2.0457   2.2980   2.3534
     2.3611   2.7828   3.1846   3.4478   3.5602   3.5720   3.8579   3.8986
     3.9265   3.9396   4.2333   4.6319   4.7059   5.0354   5.0392   5.2291
     5.5162   5.8180   6.4501   6.5702   6.7495   6.9873   7.0140   7.1216
     7.1986   7.3129   7.4358   7.4574   7.5814   7.6304   7.6566   7.7837
     7.8560   7.9858   8.0215   8.1719   8.2001   8.3261   8.4032   8.4128
     8.4351   8.5845

          k = 0.1250 0.0000 0.0000 ( 79371 PWs)   bands (ev):

   -41.7544 -39.4646 -38.9055 -36.5326 -23.8096 -23.6909 -23.6706 -23.5718
   -23.4487 -23.3178 -23.3019 -23.1985 -21.8645 -21.8016 -21.6369 -20.5631
   -20.5039 -20.4258 -19.3800 -19.2733 -18.9088 -17.8836 -17.7574 -17.5623
   -16.8284 -16.3931 -16.2641 -16.1001 -15.8491 -15.7968 -15.6566 -15.6510
   -15.6357 -15.5299 -15.4489 -15.4063 -15.3800 -15.3404 -15.2401 -15.1611
   -14.9762 -14.9398 -14.8986 -14.8761 -14.8661 -14.8598 -14.7735 -14.7722
   -14.7500 -14.5857 -14.5673 -14.4419 -14.3673 -14.0411  -9.1513  -9.0424
    -8.9355  -8.8291  -8.7799  -8.7310  -8.7150  -8.6728  -8.6333  -8.6052
    -8.5984  -8.5169  -8.4748  -8.4554  -8.4282  -8.4119  -8.3819  -8.3780
    -8.3196  -8.2595  -8.2440  -8.1754  -8.1124  -8.0188  -4.2263  -3.8285
    -3.6606  -3.5704  -3.4700  -3.3070  -3.1284  -3.0520  -3.0482  -3.0236
    -2.9887  -2.9830  -2.9170  -2.8872  -2.8725  -2.7856  -2.7138  -2.6932
    -2.6479  -2.5516  -2.5509  -2.3897  -2.3811  -2.3529  -2.3204  -2.3107
    -2.2511  -2.1207  -2.0378  -1.9814  -1.9305  -1.9281  -1.9109  -1.8772
    -1.7978  -1.7968  -1.7932  -1.7844  -1.7308  -1.7300  -1.7286  -1.7188
    -1.7014  -1.6880  -1.6486  -1.5880  -1.5529  -1.4784  -1.4746  -1.4323
    -1.3745  -1.3479  -1.1999  -1.1906  -1.1829  -1.1753  -1.0824  -1.0707
    -1.0636  -1.0331  -1.0186  -0.9725  -0.9384  -0.9041  -0.8972  -0.8589
    -0.8462  -0.8294  -0.8261  -0.8158  -0.7877  -0.7680  -0.7433  -0.7343
    -0.7096  -0.6960  -0.6493  -0.6433  -0.6036  -0.5874  -0.5835  -0.5670
    -0.5589  -0.5492  -0.5490  -0.5138  -0.5013  -0.4569  -0.4252  -0.3969
    -0.3484  -0.3468  -0.3180  -0.3097  -0.3001  -0.2913  -0.2634  -0.2302
    -0.1891  -0.1322  -0.1301  -0.1112  -0.0870  -0.0623   0.0503   0.0940
     0.1354   0.1881   0.2148   0.2506   0.2644   0.2715   0.3186   0.3423
     0.3597   0.4144   0.4431   0.4540   0.4879   0.5032   0.5747   0.5754
     0.6079   0.6260   0.6303   0.6961   0.7248   0.7543   0.8596   0.8802
     0.8950   0.9199   0.9570   0.9626   0.9893   1.0036   1.0300   1.0648
     1.0968   1.1159   1.1719   1.1967   1.2197   1.2343   1.3175   1.3568
     1.4193   1.4272   1.4415   1.5156   1.5496   1.6011   1.6650   1.6791
     1.7144   1.7657   1.8131   1.8192   1.9103   2.0434   2.2656   2.4005
     3.3074   3.4344   4.4509   4.6006   4.6340   4.7355   4.8189   4.8936
     5.2762   5.6698   5.8692   5.9427   6.0174   6.0877   6.1102   6.1634
     6.2035   6.2165   6.2681   6.5526   6.6140   6.6546   6.8145   6.9199
     7.0452   7.1131   7.1634   7.2665   7.3224   7.3749   7.5042   7.5397
     7.6228   7.6847

          k = 0.1250 0.2618 0.0000 ( 79311 PWs)   bands (ev):

   -41.7523 -39.4632 -38.9029 -36.5309 -23.7863 -23.6665 -23.6515 -23.5525
   -23.4253 -23.2930 -23.2829 -23.1791 -21.8593 -21.7978 -21.6780 -20.5586
   -20.5016 -20.4493 -19.3414 -19.2661 -19.0197 -17.8540 -17.7525 -17.6283
   -16.7772 -16.3546 -16.1588 -16.0928 -15.7934 -15.7321 -15.6618 -15.6008
   -15.5988 -15.4923 -15.4405 -15.3613 -15.3326 -15.3276 -15.2030 -15.1183
   -14.9725 -14.9318 -14.8959 -14.8676 -14.8635 -14.8509 -14.8088 -14.7775
   -14.7310 -14.6289 -14.5819 -14.4991 -14.3671 -14.0696  -9.1599  -9.0312
    -8.9285  -8.8440  -8.8195  -8.7730  -8.7571  -8.7261  -8.6843  -8.6523
    -8.6288  -8.6185  -8.5862  -8.5293  -8.4669  -8.4616  -8.4323  -8.4156
    -8.4031  -8.3249  -8.2948  -8.2722  -8.2315  -8.1758  -4.3493  -3.9272
    -3.7763  -3.7199  -3.4431  -3.3350  -3.3034  -3.1798  -3.1259  -3.0565
    -3.0361  -2.9943  -2.9569  -2.9433  -2.9052  -2.8805  -2.8640  -2.7823
    -2.7735  -2.7247  -2.7091  -2.6089  -2.5730  -2.5272  -2.4811  -2.3189
    -2.3084  -2.2717  -2.2408  -2.2154  -2.1936  -2.1739  -2.1497  -2.1300
    -2.1035  -2.0878  -1.9543  -1.9074  -1.8413  -1.7732  -1.7403  -1.7089
    -1.6924  -1.6661  -1.5963  -1.5781  -1.5430  -1.5173  -1.4606  -1.4588
    -1.4439  -1.4056  -1.3407  -1.2959  -1.2514  -1.1920  -1.1617  -1.1283
    -1.1160  -1.0973  -1.0848  -1.0110  -0.9994  -0.9883  -0.9645  -0.9105
    -0.8855  -0.8564  -0.8447  -0.8287  -0.8183  -0.7700  -0.7491  -0.6789
    -0.6659  -0.6516  -0.6454  -0.6203  -0.6143  -0.6031  -0.5575  -0.5471
    -0.5294  -0.5126  -0.5001  -0.4662  -0.4608  -0.4598  -0.4387  -0.4218
    -0.3839  -0.3798  -0.3374  -0.3047  -0.2760  -0.2041  -0.1923  -0.1811
    -0.1104  -0.0977  -0.0310   0.0347   0.0362   0.1178   0.1373   0.1671
     0.2009   0.2333   0.2701   0.2857   0.2990   0.3652   0.3679   0.4108
     0.4349   0.4669   0.4708   0.4961   0.5749   0.5829   0.6099   0.6539
     0.6642   0.6859   0.7228   0.7276   0.7413   0.7779   0.8096   0.8250
     0.8862   0.8972   0.9013   0.9553   0.9652   0.9791   0.9886   1.0481
     1.0821   1.1894   1.2182   1.2326   1.2829   1.3299   1.3856   1.3952
     1.4358   1.5886   1.6232   1.7092   1.8423   1.8550   1.9778   2.0371
     2.1071   2.1374   2.1896   2.1915   2.2185   2.3640   2.4888   2.5837
     3.4154   3.4925   4.6193   4.7104   4.8213   4.8265   4.9505   5.0151
     5.4794   5.6685   5.7845   5.9842   6.1209   6.1686   6.1846   6.2654
     6.4224   6.4523   6.5268   6.6349   6.7010   6.7756   6.8383   6.9741
     7.1000   7.1369   7.2907   7.4148   7.4634   7.5572   7.6748   7.6769
     7.7811   7.8567

          k = 0.1250 0.5236 0.0000 ( 79264 PWs)   bands (ev):

   -41.7473 -39.4599 -38.8964 -36.5268 -23.7289 -23.6065 -23.6048 -23.5050
   -23.3677 -23.2362 -23.2318 -23.1317 -21.8686 -21.7886 -21.7526 -20.5569
   -20.4966 -20.4954 -19.2598 -19.2487 -19.2418 -17.7826 -17.7692 -17.7407
   -16.6406 -16.2579 -16.0883 -15.9207 -15.7177 -15.6483 -15.5504 -15.4958
   -15.4722 -15.4633 -15.4000 -15.3851 -15.3202 -15.1577 -15.0797 -15.0597
   -15.0024 -14.9726 -14.8940 -14.8362 -14.8027 -14.7894 -14.7861 -14.7573
   -14.7542 -14.6902 -14.6316 -14.6064 -14.3716 -14.1514  -9.2516  -9.1480
    -9.1169  -9.0008  -8.9639  -8.9095  -8.8860  -8.8776  -8.8564  -8.8256
    -8.7916  -8.7816  -8.7089  -8.6249  -8.5831  -8.5658  -8.5538  -8.5322
    -8.5100  -8.4522  -8.4037  -8.3872  -8.2444  -8.1836  -4.7658  -4.3192
    -4.1210  -3.9635  -3.6663  -3.5898  -3.5260  -3.4728  -3.4280  -3.3656
    -3.2956  -3.2778  -3.2694  -3.1290  -3.1150  -3.1009  -3.0579  -2.9961
    -2.9836  -2.9436  -2.9259  -2.9166  -2.9046  -2.8520  -2.8195  -2.8052
    -2.7795  -2.7603  -2.6500  -2.5019  -2.4918  -2.4548  -2.4127  -2.3698
    -2.2041  -2.0929  -2.0594  -1.9747  -1.9347  -1.8978  -1.8823  -1.8208
    -1.7938  -1.7269  -1.7093  -1.6904  -1.6647  -1.6353  -1.6144  -1.5720
    -1.5362  -1.5137  -1.4979  -1.4401  -1.4304  -1.4247  -1.4143  -1.3529
    -1.3317  -1.3222  -1.2569  -1.2467  -1.2123  -1.1992  -1.1817  -1.1601
    -1.1352  -1.0962  -1.0896  -1.0416  -0.9780  -0.9269  -0.7745  -0.7190
    -0.7027  -0.6659  -0.6344  -0.5902  -0.5879  -0.5471  -0.5094  -0.4971
    -0.4903  -0.4600  -0.3915  -0.3849  -0.3054  -0.2453  -0.2374  -0.2333
    -0.1481  -0.0885  -0.0339   0.0239   0.0791   0.0878   0.1801   0.1928
     0.2260   0.2662   0.2680   0.2847   0.3342   0.3421   0.3751   0.3803
     0.3907   0.4293   0.4752   0.4869   0.5008   0.5031   0.5115   0.5240
     0.5446   0.5652   0.6064   0.6200   0.6524   0.6618   0.6795   0.6998
     0.7442   0.7551   0.8059   0.8271   0.8884   0.9231   0.9293   0.9508
     0.9694   1.0068   1.0111   1.0490   1.0796   1.0985   1.1043   1.2254
     1.2442   1.2472   1.3079   1.3147   1.3427   1.3866   1.4561   1.4739
     1.6055   1.7366   1.7816   1.8600   1.9445   2.2555   2.2942   2.4106
     2.4999   2.6073   2.6871   2.7928   2.8813   2.9724   3.0993   3.3648
     3.5113   3.7615   4.3037   4.6749   4.9819   5.1458   5.4108   5.7022
     5.8137   5.8181   5.9520   5.9919   6.0510   6.1581   6.3030   6.3119
     6.6342   6.7877   6.8709   7.0363   7.2498   7.3288   7.3927   7.4812
     7.5485   7.5924   7.7196   7.7313   7.7839   7.9275   7.9485   8.0322
     8.0341   8.1125

          k = 0.1250 0.7854 0.0000 ( 79260 PWs)   bands (ev):

   -41.7423 -39.4567 -38.8898 -36.5227 -23.6700 -23.5569 -23.5447 -23.4565
   -23.3086 -23.1884 -23.1686 -23.0832 -21.9354 -21.7794 -21.7656 -20.5902
   -20.5064 -20.4906 -19.4688 -19.2314 -19.1359 -17.9031 -17.7296 -17.6969
   -16.4641 -16.1578 -16.1193 -15.7952 -15.7143 -15.5801 -15.4748 -15.4691
   -15.3886 -15.3336 -15.3087 -15.3079 -15.2888 -15.1661 -15.0103 -14.9986
   -14.9795 -14.9142 -14.8710 -14.8374 -14.7857 -14.7642 -14.7557 -14.7168
   -14.6896 -14.6804 -14.6502 -14.6464 -14.4051 -14.2663  -9.5777  -9.4995
    -9.2752  -9.2140  -9.2075  -9.1653  -9.1405  -8.9791  -8.9307  -8.8932
    -8.8845  -8.8677  -8.8296  -8.8254  -8.7340  -8.5907  -8.5457  -8.5196
    -8.4858  -8.4780  -8.4318  -8.3715  -8.1884  -8.1283  -5.2253  -4.8024
    -4.4184  -4.3693  -4.0824  -4.0308  -3.9085  -3.8424  -3.8118  -3.6721
    -3.6398  -3.6367  -3.6113  -3.6089  -3.5271  -3.4762  -3.4149  -3.2472
    -3.1350  -3.1158  -3.0830  -3.0243  -3.0217  -2.9908  -2.9545  -2.9225
    -2.8582  -2.8260  -2.6911  -2.6065  -2.5226  -2.4676  -2.4270  -2.4173
    -2.3756  -2.3296  -2.2409  -2.2318  -2.1934  -2.0410  -2.0117  -1.9110
    -1.8964  -1.8720  -1.8288  -1.8107  -1.7998  -1.7584  -1.7510  -1.7339
    -1.7031  -1.6759  -1.6382  -1.6257  -1.5915  -1.5553  -1.5502  -1.5273
    -1.5178  -1.5040  -1.4306  -1.4212  -1.4185  -1.4115  -1.4022  -1.3401
    -1.3344  -1.2785  -1.2141  -1.0382  -0.9750  -0.9310  -0.9243  -0.7503
    -0.6959  -0.6364  -0.6191  -0.5435  -0.5402  -0.4974  -0.4500  -0.4394
    -0.2830  -0.2500  -0.2445  -0.2400  -0.1945  -0.0883  -0.0727  -0.0540
     0.0605   0.0939   0.1769   0.1913   0.2154   0.2682   0.2949   0.3187
     0.3426   0.4011   0.4057   0.4061   0.4327   0.4682   0.5046   0.5236
     0.5592   0.5874   0.6168   0.6373   0.6638   0.6889   0.7077   0.7375
     0.7637   0.7989   0.8264   0.8393   0.8649   0.8941   0.9343   0.9392
     0.9488   0.9680   1.0070   1.0267   1.0338   1.0622   1.0974   1.1200
     1.1548   1.1638   1.1807   1.2091   1.2285   1.3150   1.3218   1.3520
     1.4427   1.4548   1.5072   1.5226   1.5370   1.5709   1.6489   1.6655
     1.6866   1.7162   1.8534   2.1041   2.1698   2.1829   2.2126   2.2721
     2.4567   2.7610   3.1310   3.2433   3.2754   3.5672   3.5876   3.6583
     3.9603   4.0113   4.0517   4.5758   4.8544   5.1076   5.3301   5.3361
     5.5180   5.9582   6.2383   6.4202   6.5450   6.5905   6.7367   6.8471
     6.9898   7.0043   7.1271   7.4976   7.5365   7.7142   7.7682   7.7875
     7.9116   7.9824   8.0102   8.0385   8.0789   8.1992   8.2542   8.3535
     8.3935   8.4147

          k = 0.1250-1.0472 0.0000 ( 79350 PWs)   bands (ev):

   -41.7402 -39.4553 -38.8871 -36.5210 -23.6452 -23.5367 -23.5186 -23.4360
   -23.2837 -23.1682 -23.1419 -23.0627 -21.9724 -21.7755 -21.7607 -20.6111
   -20.5032 -20.4883 -19.5494 -19.2242 -19.0886 -17.9535 -17.7250 -17.6610
   -16.3441 -16.1925 -16.0999 -15.8344 -15.7259 -15.5139 -15.5106 -15.4536
   -15.3580 -15.3312 -15.2362 -15.2108 -15.1669 -15.1248 -15.0728 -15.0015
   -14.9889 -14.9545 -14.8569 -14.8154 -14.7551 -14.7433 -14.7380 -14.6940
   -14.6672 -14.6271 -14.6176 -14.6063 -14.5037 -14.3170  -9.7131  -9.6323
    -9.3936  -9.3551  -9.3380  -9.2715  -9.1804  -9.0054  -8.9979  -8.9544
    -8.9509  -8.8953  -8.8451  -8.8212  -8.7439  -8.6026  -8.5447  -8.4947
    -8.4929  -8.4543  -8.4494  -8.3599  -8.1628  -8.1035  -5.4119  -5.0035
    -4.5564  -4.5385  -4.2553  -4.2200  -4.1180  -4.0423  -3.9613  -3.9051
    -3.8694  -3.8417  -3.7587  -3.7184  -3.6714  -3.6312  -3.4406  -3.2666
    -3.2615  -3.1184  -3.0534  -3.0474  -3.0055  -2.9567  -2.9476  -2.9437
    -2.8298  -2.8176  -2.7552  -2.7363  -2.6812  -2.5075  -2.4864  -2.3873
    -2.3535  -2.3527  -2.3278  -2.2479  -2.2446  -2.1725  -2.0901  -2.0121
    -1.9756  -1.9344  -1.8826  -1.8743  -1.8547  -1.8442  -1.8425  -1.8166
    -1.7352  -1.7141  -1.6759  -1.6570  -1.6569  -1.6457  -1.6278  -1.6115
    -1.5949  -1.5799  -1.5106  -1.4982  -1.4920  -1.4800  -1.4326  -1.3826
    -1.2778  -1.2713  -1.2571  -1.0074  -1.0010  -0.9762  -0.9137  -0.7921
    -0.7683  -0.6339  -0.5965  -0.5503  -0.5382  -0.5110  -0.4364  -0.4120
    -0.2262  -0.1891  -0.1832  -0.1823  -0.1620  -0.0358   0.0154   0.0481
     0.1074   0.1642   0.2311   0.2365   0.2471   0.2619   0.2641   0.3984
     0.3998   0.4552   0.4786   0.4977   0.5105   0.5182   0.5337   0.5687
     0.5865   0.6075   0.6242   0.6288   0.7049   0.7375   0.7953   0.8253
     0.8396   0.8510   0.9121   0.9298   0.9583   0.9674   1.0003   1.0287
     1.0320   1.1008   1.1085   1.1399   1.1574   1.1624   1.1848   1.2076
     1.3010   1.3599   1.3896   1.4135   1.4243   1.4546   1.4706   1.4952
     1.5076   1.5421   1.5743   1.6039   1.6200   1.6433   1.6908   1.7155
     1.7452   1.8137   1.8746   1.8835   2.0473   2.0600   2.3159   2.3322
     2.3634   2.7821   3.1836   3.4094   3.4961   3.5926   3.7787   3.8524
     3.9083   3.9903   4.1608   4.6199   4.7471   5.0051   5.1035   5.2973
     5.4903   5.8485   6.4008   6.6258   6.6387   6.9159   6.9216   7.1012
     7.1102   7.3189   7.4089   7.4152   7.4472   7.5220   7.8154   7.9017
     7.9099   8.0687   8.0780   8.2277   8.2791   8.3225   8.4422   8.4603
     8.4794   8.4885

          k = 0.2500 0.0000 0.0000 ( 79299 PWs)   bands (ev):

   -41.7544 -39.4646 -38.9055 -36.5326 -23.8005 -23.6802 -23.6782 -23.5852
   -23.4400 -23.3113 -23.3044 -23.2127 -21.8646 -21.7997 -21.6369 -20.5628
   -20.5073 -20.4258 -19.3783 -19.2655 -18.9088 -17.8908 -17.7858 -17.5624
   -16.8013 -16.4503 -16.1903 -16.0635 -15.8114 -15.7772 -15.6678 -15.6381
   -15.6098 -15.5261 -15.5083 -15.4515 -15.3850 -15.3594 -15.2367 -15.1151
   -14.9925 -14.9621 -14.8822 -14.8754 -14.8707 -14.8522 -14.7828 -14.7776
   -14.7633 -14.6184 -14.5737 -14.4560 -14.3243 -14.0560  -9.1561  -9.0538
    -8.9404  -8.8367  -8.7596  -8.7230  -8.6980  -8.6517  -8.6465  -8.6114
    -8.5747  -8.5359  -8.4978  -8.4663  -8.4184  -8.4043  -8.3945  -8.3480
    -8.2983  -8.2653  -8.2190  -8.1906  -8.1360  -8.0467  -4.1606  -3.7278
    -3.5702  -3.5575  -3.5555  -3.2117  -3.1083  -3.0993  -3.0668  -3.0365
    -3.0197  -2.9900  -2.9079  -2.8993  -2.8416  -2.8385  -2.7795  -2.7072
    -2.6242  -2.5873  -2.5692  -2.3646  -2.3514  -2.3344  -2.3215  -2.3172
    -2.2284  -2.0571  -2.0239  -1.9508  -1.9272  -1.9144  -1.8484  -1.8357
    -1.8284  -1.8201  -1.8173  -1.7951  -1.7909  -1.7298  -1.7265  -1.7040
    -1.6862  -1.6791  -1.6422  -1.5591  -1.5047  -1.4938  -1.4346  -1.4125
    -1.3874  -1.3843  -1.3236  -1.2672  -1.2103  -1.1819  -1.1760  -1.1416
    -1.0927  -1.0777  -1.0645  -1.0018  -0.9582  -0.9438  -0.9404  -0.9097
    -0.8595  -0.8396  -0.8278  -0.8175  -0.8021  -0.7951  -0.7480  -0.7220
    -0.6809  -0.6555  -0.6219  -0.6215  -0.6139  -0.6012  -0.5801  -0.5642
    -0.5511  -0.5488  -0.5452  -0.5185  -0.5106  -0.4398  -0.3869  -0.3506
    -0.3486  -0.3443  -0.3224  -0.3142  -0.3119  -0.2945  -0.2544  -0.1919
    -0.1433  -0.1415  -0.1388  -0.1285  -0.0690   0.0450   0.0614   0.0661
     0.1127   0.1430   0.1871   0.2064   0.2102   0.2469   0.2739   0.3167
     0.3609   0.4196   0.4302   0.4637   0.5175   0.5314   0.5657   0.6141
     0.6191   0.6752   0.7148   0.7245   0.7335   0.7645   0.8340   0.8844
     0.8941   0.9358   0.9393   0.9759   0.9826   1.0081   1.0683   1.0706
     1.0838   1.1278   1.1750   1.1788   1.1933   1.2687   1.3365   1.3834
     1.3929   1.4138   1.4254   1.4297   1.5769   1.6109   1.6738   1.6765
     1.7077   1.7882   1.8092   1.8127   1.9662   2.0208   2.1941   2.2554
     3.4058   3.6302   4.5471   4.5899   4.7127   4.7244   4.8282   5.0030
     5.3822   5.6668   5.7033   5.8127   5.8998   5.9597   6.0334   6.1341
     6.3047   6.3660   6.3895   6.5223   6.6056   6.6152   6.8178   7.0279
     7.1551   7.2164   7.3252   7.3399   7.3866   7.4722   7.4849   7.5840
     7.6144   7.6726

          k = 0.2500 0.2618 0.0000 ( 79282 PWs)   bands (ev):

   -41.7523 -39.4632 -38.9029 -36.5309 -23.7777 -23.6607 -23.6545 -23.5652
   -23.4171 -23.2918 -23.2802 -23.1926 -21.8594 -21.7959 -21.6780 -20.5584
   -20.5049 -20.4493 -19.3397 -19.2584 -19.0197 -17.8608 -17.7796 -17.6281
   -16.7513 -16.4096 -16.0866 -16.0592 -15.7604 -15.7167 -15.6601 -15.6118
   -15.5648 -15.4803 -15.4662 -15.4189 -15.3743 -15.3422 -15.1871 -15.0729
   -14.9616 -14.9457 -14.9369 -14.8660 -14.8592 -14.8397 -14.8141 -14.7758
   -14.7446 -14.6571 -14.5869 -14.5050 -14.3303 -14.0820  -9.1633  -9.0430
    -8.9350  -8.8701  -8.8639  -8.8267  -8.8107  -8.7377  -8.7287  -8.6431
    -8.5873  -8.5731  -8.5132  -8.5034  -8.4986  -8.4810  -8.4701  -8.4581
    -8.4130  -8.3493  -8.2338  -8.2108  -8.1594  -8.1202  -4.2756  -3.8233
    -3.8135  -3.6198  -3.4624  -3.3547  -3.2363  -3.2154  -3.1341  -3.0367
    -3.0175  -3.0009  -2.9716  -2.9381  -2.9243  -2.8748  -2.8339  -2.8231
    -2.7328  -2.7113  -2.7096  -2.6723  -2.6629  -2.5124  -2.4734  -2.3024
    -2.2850  -2.2587  -2.2347  -2.2182  -2.1718  -2.1577  -2.1403  -2.1228
    -2.1136  -2.0256  -1.9382  -1.9286  -1.8857  -1.8295  -1.7818  -1.7680
    -1.7263  -1.7115  -1.6778  -1.5845  -1.5513  -1.5509  -1.5045  -1.4790
    -1.4509  -1.4187  -1.3780  -1.3658  -1.3065  -1.2430  -1.1745  -1.1430
    -1.1248  -1.0974  -1.0920  -1.0815  -0.9760  -0.9730  -0.9491  -0.8856
    -0.8602  -0.8520  -0.8437  -0.8433  -0.8115  -0.8020  -0.8004  -0.6942
    -0.6797  -0.6705  -0.6490  -0.6332  -0.6082  -0.5944  -0.5512  -0.5425
    -0.5084  -0.4964  -0.4907  -0.4737  -0.4456  -0.4289  -0.4285  -0.4111
    -0.3936  -0.3720  -0.3054  -0.2835  -0.2824  -0.2238  -0.2184  -0.2060
    -0.1521  -0.0940  -0.0476   0.0609   0.0910   0.1280   0.1625   0.2156
     0.2575   0.2690   0.2862   0.2994   0.3189   0.3346   0.3412   0.3706
     0.3959   0.4200   0.4539   0.4661   0.5120   0.5941   0.6179   0.6219
     0.6722   0.6886   0.7214   0.7524   0.8086   0.8432   0.8470   0.8473
     0.8586   0.8985   0.9048   0.9179   0.9343   0.9831   0.9970   1.0536
     1.1275   1.1999   1.2295   1.2821   1.3542   1.3907   1.4201   1.4577
     1.4754   1.5045   1.6524   1.7187   1.8147   1.9643   2.0299   2.0472
     2.1183   2.1299   2.1786   2.2016   2.2188   2.2853   2.3436   2.5684
     3.5095   3.6697   4.5489   4.7133   4.7943   4.9296   5.0513   5.0890
     5.5781   5.6700   5.7699   5.8390   5.9643   6.0023   6.0979   6.3428
     6.4964   6.5369   6.5942   6.6697   6.6764   6.7281   6.9568   7.0687
     7.2573   7.2768   7.4006   7.4379   7.5852   7.6002   7.6373   7.7611
     7.7898   7.8802

          k = 0.2500 0.5236 0.0000 ( 79246 PWs)   bands (ev):

   -41.7473 -39.4600 -38.8964 -36.5268 -23.7215 -23.6127 -23.5960 -23.5161
   -23.3607 -23.2438 -23.2205 -23.1435 -21.8686 -21.7867 -21.7527 -20.5568
   -20.4995 -20.4956 -19.2597 -19.2412 -19.2404 -17.7874 -17.7714 -17.7640
   -16.6186 -16.3045 -16.0646 -15.8545 -15.7130 -15.6318 -15.5413 -15.4907
   -15.4793 -15.4510 -15.3898 -15.3856 -15.3205 -15.2529 -15.0886 -15.0348
   -14.9854 -14.9730 -14.8816 -14.8320 -14.8253 -14.8065 -14.7868 -14.7577
   -14.7485 -14.7024 -14.6417 -14.6043 -14.3517 -14.1572  -9.2702  -9.1834
    -9.1293  -9.0021  -8.9943  -8.9303  -8.9015  -8.8930  -8.8416  -8.8304
    -8.8302  -8.7495  -8.7166  -8.6406  -8.5841  -8.5785  -8.5481  -8.4851
    -8.4799  -8.4493  -8.4022  -8.3732  -8.2066  -8.1353  -4.6779  -4.2187
    -4.1670  -3.8616  -3.7001  -3.5885  -3.5250  -3.4325  -3.3792  -3.3723
    -3.3420  -3.2609  -3.2083  -3.1215  -3.1186  -3.1053  -3.0559  -2.9985
    -2.9798  -2.9268  -2.9238  -2.9208  -2.9014  -2.8347  -2.7975  -2.7903
    -2.7762  -2.7451  -2.6756  -2.6580  -2.4491  -2.4286  -2.4081  -2.3478
    -2.2326  -2.2066  -2.1073  -2.0908  -1.9522  -1.9191  -1.8744  -1.8514
    -1.8324  -1.8146  -1.7494  -1.7243  -1.7177  -1.6958  -1.6678  -1.6432
    -1.6006  -1.5530  -1.5053  -1.4772  -1.4447  -1.4071  -1.3788  -1.3434
    -1.3308  -1.3133  -1.2561  -1.2357  -1.2355  -1.2244  -1.1809  -1.1380
    -1.1265  -1.0951  -1.0792  -1.0386  -0.9504  -0.9071  -0.8501  -0.7598
    -0.7337  -0.6543  -0.6500  -0.6340  -0.6064  -0.5748  -0.5347  -0.4619
    -0.4274  -0.4139  -0.3708  -0.3271  -0.2725  -0.2634  -0.2487  -0.1951
    -0.0902  -0.0541  -0.0312  -0.0006   0.0335   0.0565   0.1334   0.1645
     0.1842   0.2507   0.2721   0.2974   0.3020   0.3030   0.3270   0.3674
     0.4197   0.4287   0.4347   0.4368   0.4640   0.5134   0.5643   0.5856
     0.6000   0.6294   0.6453   0.6569   0.6801   0.6842   0.7267   0.7491
     0.7520   0.7817   0.7820   0.7915   0.8593   0.8855   0.9194   0.9430
     0.9562   0.9971   1.0225   1.0415   1.1121   1.1582   1.2201   1.2338
     1.2729   1.3011   1.3054   1.3589   1.4006   1.4189   1.5258   1.5532
     1.7166   1.7871   1.8275   1.9585   2.1890   2.2581   2.3003   2.4175
     2.4730   2.5246   2.5887   2.7951   2.8308   2.8749   3.0090   3.2742
     3.6488   3.8464   4.3032   4.6548   4.9578   5.1933   5.3622   5.7428
     5.8315   5.8619   5.9725   6.0047   6.0460   6.2150   6.2460   6.3600
     6.6113   6.6482   6.9477   7.1715   7.3227   7.4184   7.4409   7.5330
     7.5478   7.5985   7.7184   7.7632   7.8052   7.9012   7.9650   8.0290
     8.0608   8.1310

          k = 0.2500 0.7854 0.0000 ( 79284 PWs)   bands (ev):

   -41.7423 -39.4567 -38.8898 -36.5227 -23.6639 -23.5634 -23.5358 -23.4657
   -23.3028 -23.1946 -23.1590 -23.0931 -21.9354 -21.7775 -21.7657 -20.5902
   -20.5063 -20.4936 -19.4687 -19.2240 -19.1346 -17.9031 -17.7520 -17.7021
   -16.4489 -16.1841 -16.1081 -15.7938 -15.6746 -15.5298 -15.4865 -15.4501
   -15.3733 -15.3276 -15.3270 -15.3071 -15.2892 -15.1665 -15.0807 -15.0309
   -14.9637 -14.8976 -14.8682 -14.8187 -14.7833 -14.7817 -14.7583 -14.7099
   -14.6935 -14.6871 -14.6626 -14.6552 -14.4028 -14.2665  -9.5348  -9.4596
    -9.2116  -9.1541  -9.1408  -9.1028  -9.0984  -9.0424  -8.9702  -8.9567
    -8.8770  -8.8322  -8.8017  -8.7556  -8.7331  -8.6910  -8.6033  -8.5919
    -8.5345  -8.5326  -8.4286  -8.3773  -8.2435  -8.1843  -5.1238  -4.6999
    -4.4794  -4.2752  -4.1263  -4.0262  -3.9147  -3.8391  -3.7744  -3.6649
    -3.6374  -3.6184  -3.6172  -3.5380  -3.5287  -3.4844  -3.3708  -3.2426
    -3.2079  -3.0519  -3.0364  -3.0305  -3.0226  -2.9949  -2.9497  -2.9222
    -2.7963  -2.7917  -2.6894  -2.6634  -2.6193  -2.5768  -2.5242  -2.4140
    -2.3877  -2.3336  -2.2206  -2.1923  -2.1892  -2.1793  -2.0567  -2.0248
    -1.9408  -1.9016  -1.8620  -1.8330  -1.8297  -1.7847  -1.7745  -1.7611
    -1.7314  -1.6745  -1.6261  -1.5827  -1.5815  -1.5730  -1.5512  -1.5362
    -1.5143  -1.4852  -1.4454  -1.4315  -1.4239  -1.4153  -1.3848  -1.3179
    -1.3035  -1.2568  -1.2434  -1.0720  -0.9575  -0.9447  -0.8992  -0.8003
    -0.6623  -0.6587  -0.6316  -0.5589  -0.4956  -0.4475  -0.4300  -0.4069
    -0.3466  -0.2700  -0.2229  -0.1588  -0.1223  -0.1178  -0.0921  -0.0870
     0.0961   0.1217   0.1566   0.1811   0.1919   0.2608   0.3223   0.3364
     0.3434   0.3704   0.3840   0.3859   0.4156   0.4385   0.5019   0.5475
     0.5486   0.5874   0.6118   0.6394   0.6734   0.6880   0.6972   0.7410
     0.7487   0.7685   0.8153   0.8718   0.8925   0.8955   0.9377   0.9485
     0.9520   0.9756   0.9862   1.0219   1.0263   1.0704   1.0790   1.1134
     1.1317   1.1664   1.2067   1.2630   1.2657   1.3273   1.4087   1.4674
     1.4817   1.5127   1.5208   1.5675   1.5797   1.6255   1.6560   1.6990
     1.7017   1.9261   2.0562   2.1099   2.1320   2.2125   2.2498   2.2865
     2.5282   2.7067   3.0737   3.1436   3.1890   3.3969   3.4873   3.6732
     3.7876   4.0173   4.1436   4.5547   4.9492   5.0401   5.2904   5.4866
     5.6760   6.0273   6.1597   6.3693   6.4672   6.5097   6.6331   6.7284
     6.9055   6.9464   7.1604   7.3931   7.5680   7.7832   7.8023   7.8756
     7.9506   8.0259   8.0584   8.1170   8.1784   8.2163   8.3662   8.3870
     8.4143   8.4298

          k = 0.2500-1.0472 0.0000 ( 79252 PWs)   bands (ev):

   -41.7402 -39.4553 -38.8871 -36.5210 -23.6395 -23.5426 -23.5104 -23.4444
   -23.2784 -23.1738 -23.1330 -23.0719 -21.9723 -21.7737 -21.7608 -20.6111
   -20.5031 -20.4913 -19.5493 -19.2169 -19.0875 -17.9536 -17.7467 -17.6658
   -16.3366 -16.1818 -16.1085 -15.8437 -15.6935 -15.4842 -15.4598 -15.4460
   -15.3686 -15.3232 -15.2723 -15.2025 -15.1678 -15.1235 -15.0537 -15.0325
   -15.0040 -14.9685 -14.8915 -14.8290 -14.7536 -14.7405 -14.7326 -14.6876
   -14.6658 -14.6403 -14.6200 -14.6110 -14.4912 -14.3273  -9.6289  -9.5455
    -9.3079  -9.2718  -9.2492  -9.1860  -9.1743  -9.0447  -8.9787  -8.9433
    -8.9083  -8.9048  -8.8847  -8.8297  -8.7487  -8.6934  -8.6257  -8.5912
    -8.5745  -8.5206  -8.4417  -8.3682  -8.2692  -8.2241  -5.3052  -4.8984
    -4.6057  -4.4631  -4.2911  -4.2284  -4.1237  -3.9946  -3.9789  -3.8988
    -3.8644  -3.8494  -3.7609  -3.6849  -3.6608  -3.5972  -3.3875  -3.2209
    -3.1853  -3.1059  -3.0621  -3.0546  -3.0511  -3.0033  -2.9469  -2.9441
    -2.9085  -2.7937  -2.7854  -2.7401  -2.5991  -2.5331  -2.4905  -2.4647
    -2.4254  -2.3001  -2.2993  -2.2871  -2.2860  -2.2561  -2.2557  -2.1118
    -2.0147  -1.9400  -1.9094  -1.8834  -1.8711  -1.8409  -1.7935  -1.7922
    -1.7655  -1.6935  -1.6850  -1.6600  -1.6468  -1.6365  -1.6291  -1.6063
    -1.5960  -1.5339  -1.5319  -1.5163  -1.4816  -1.4636  -1.4197  -1.3991
    -1.2928  -1.2688  -1.2388  -1.0481  -0.9771  -0.9429  -0.9113  -0.8101
    -0.6659  -0.6380  -0.6248  -0.5895  -0.4787  -0.4607  -0.4391  -0.4024
    -0.2689  -0.2126  -0.1257  -0.1088  -0.0565  -0.0554  -0.0545  -0.0244
     0.1716   0.1821   0.2335   0.2442   0.2634   0.2706   0.3421   0.3479
     0.4038   0.4101   0.4227   0.4367   0.4658   0.4921   0.5200   0.5787
     0.5949   0.6192   0.6310   0.6844   0.7294   0.7496   0.7762   0.8202
     0.8286   0.8478   0.8537   0.9171   0.9412   0.9502   0.9632   0.9894
     1.0437   1.0896   1.1073   1.1259   1.1530   1.1687   1.2512   1.3272
     1.3773   1.3975   1.3981   1.4195   1.4328   1.4577   1.4687   1.4912
     1.5590   1.5841   1.6113   1.6126   1.6625   1.7350   1.7772   1.7931
     1.7950   1.8690   1.8885   1.9249   2.0917   2.1252   2.2530   2.3896
     2.4187   2.7745   3.1625   3.2538   3.4110   3.5512   3.6404   3.6517
     3.9204   3.9507   4.0947   4.5919   4.8494   4.9392   5.2961   5.4271
     5.4910   5.9293   6.3485   6.3621   6.6036   6.6729   6.8668   6.8672
     7.1072   7.1333   7.3439   7.3948   7.4245   7.4946   7.8854   8.0094
     8.0815   8.1160   8.1860   8.3583   8.4125   8.4131   8.4923   8.5213
     8.6276   8.6552

          k = 0.3750 0.0000 0.0000 ( 79356 PWs)   bands (ev):

   -41.7544 -39.4646 -38.9055 -36.5326 -23.7898 -23.6916 -23.6601 -23.6041
   -23.4298 -23.3222 -23.2844 -23.2335 -21.8646 -21.7977 -21.6369 -20.5625
   -20.5107 -20.4258 -19.3765 -19.2575 -18.9087 -17.8978 -17.8134 -17.5624
   -16.7661 -16.5092 -16.0953 -16.0323 -15.7856 -15.7534 -15.6869 -15.6403
   -15.5923 -15.5497 -15.5222 -15.4598 -15.4192 -15.3816 -15.2045 -15.0867
   -15.0639 -14.9463 -14.8857 -14.8791 -14.8679 -14.8146 -14.7892 -14.7812
   -14.7724 -14.6726 -14.5780 -14.4688 -14.2821 -14.0745  -9.1611  -9.0638
    -8.9445  -8.8423  -8.7468  -8.7237  -8.6578  -8.6507  -8.6243  -8.6209
    -8.5646  -8.5398  -8.5306  -8.4722  -8.4418  -8.4248  -8.3598  -8.3123
    -8.2753  -8.2677  -8.2127  -8.1808  -8.1687  -8.0877  -4.0749  -3.6595
    -3.5725  -3.5427  -3.4294  -3.1979  -3.1588  -3.1147  -3.0941  -3.0414
    -3.0198  -2.9901  -2.9376  -2.9078  -2.8980  -2.8781  -2.7358  -2.6988
    -2.6017  -2.5886  -2.5837  -2.3759  -2.3530  -2.3475  -2.3237  -2.2995
    -2.2407  -2.0588  -2.0211  -1.9534  -1.9236  -1.8859  -1.8536  -1.8103
    -1.8025  -1.7931  -1.7896  -1.7328  -1.7270  -1.7242  -1.7153  -1.7026
    -1.7004  -1.6295  -1.6223  -1.6027  -1.5403  -1.5371  -1.4446  -1.4071
    -1.3814  -1.3736  -1.3292  -1.3042  -1.2932  -1.2450  -1.2124  -1.1893
    -1.1847  -1.1742  -1.0900  -1.0632  -1.0420  -0.9967  -0.9947  -0.8938
    -0.8933  -0.8592  -0.8483  -0.8117  -0.7997  -0.7584  -0.7536  -0.7481
    -0.6655  -0.6411  -0.6402  -0.6232  -0.6099  -0.5946  -0.5808  -0.5392
    -0.5249  -0.4963  -0.4816  -0.4769  -0.4589  -0.4018  -0.3806  -0.3777
    -0.3507  -0.3375  -0.3346  -0.3130  -0.2766  -0.2703  -0.2608  -0.2035
    -0.1622  -0.1576  -0.1195  -0.0783  -0.0658  -0.0163   0.0349   0.0448
     0.1193   0.1303   0.1499   0.1823   0.2048   0.2657   0.3124   0.3304
     0.3568   0.3952   0.4250   0.4767   0.5194   0.5412   0.5916   0.6346
     0.6379   0.6708   0.7116   0.7150   0.7358   0.7916   0.8324   0.8623
     0.9179   0.9213   0.9406   0.9957   1.0132   1.0150   1.0682   1.0885
     1.0959   1.1053   1.1252   1.1466   1.1482   1.2814   1.3255   1.3327
     1.3599   1.4230   1.4640   1.5404   1.6069   1.6461   1.6738   1.6916
     1.7015   1.7851   1.8038   1.8347   1.9743   1.9789   2.0435   2.2214
     3.4581   3.9013   4.3898   4.6651   4.7958   4.8377   4.9155   5.1373
     5.3555   5.4648   5.5340   5.6937   5.8641   6.0060   6.1505   6.2782
     6.3607   6.3740   6.5178   6.5513   6.6163   6.6261   6.8697   6.9516
     6.9994   7.2432   7.2593   7.3201   7.3281   7.4689   7.5915   7.6199
     7.6926   7.7693

          k = 0.3750 0.2618 0.0000 ( 79328 PWs)   bands (ev):

   -41.7523 -39.4632 -38.9029 -36.5309 -23.7676 -23.6714 -23.6373 -23.5831
   -23.4075 -23.3020 -23.2611 -23.2124 -21.8595 -21.7939 -21.6780 -20.5581
   -20.5083 -20.4493 -19.3380 -19.2504 -19.0197 -17.8675 -17.8059 -17.6279
   -16.7180 -16.4656 -16.0318 -15.9924 -15.7359 -15.6972 -15.6574 -15.6291
   -15.5295 -15.5156 -15.4988 -15.4291 -15.4074 -15.3586 -15.1488 -15.0474
   -15.0132 -14.9527 -14.9417 -14.8671 -14.8636 -14.8217 -14.7989 -14.7728
   -14.7556 -14.6974 -14.5956 -14.5088 -14.2948 -14.0971  -9.1665  -9.0606
    -8.9448  -8.8913  -8.8894  -8.8647  -8.8373  -8.7546  -8.7468  -8.6672
    -8.5542  -8.5495  -8.5365  -8.5155  -8.5079  -8.4725  -8.4609  -8.4296
    -8.4139  -8.3597  -8.1913  -8.1665  -8.1066  -8.0816  -4.1737  -3.8833
    -3.6645  -3.4815  -3.4679  -3.3957  -3.3102  -3.1817  -3.1145  -3.0229
    -3.0120  -2.9980  -2.9917  -2.9576  -2.9269  -2.8891  -2.8794  -2.8424
    -2.7302  -2.7205  -2.7117  -2.7015  -2.5407  -2.4778  -2.4667  -2.2956
    -2.2539  -2.2524  -2.2367  -2.2286  -2.2229  -2.1669  -2.1554  -2.1432
    -2.1178  -2.0249  -2.0095  -1.9697  -1.8977  -1.8479  -1.8044  -1.7751
    -1.7610  -1.7342  -1.6903  -1.6743  -1.5994  -1.5524  -1.5426  -1.4933
    -1.4764  -1.4488  -1.4187  -1.3495  -1.2815  -1.2501  -1.2066  -1.1812
    -1.1633  -1.1157  -1.1009  -1.0780  -0.9887  -0.9475  -0.9407  -0.9400
    -0.9023  -0.8796  -0.8680  -0.8459  -0.8282  -0.8255  -0.7753  -0.7539
    -0.7015  -0.6842  -0.6299  -0.6234  -0.5991  -0.5873  -0.5233  -0.5069
    -0.4798  -0.4631  -0.4520  -0.4430  -0.4295  -0.4192  -0.4147  -0.3867
    -0.3828  -0.3500  -0.2993  -0.2981  -0.2608  -0.2295  -0.2141  -0.1904
    -0.1900  -0.1205  -0.0970   0.0362   0.0979   0.1275   0.1806   0.2283
     0.2394   0.2631   0.2699   0.2917   0.3149   0.3505   0.3919   0.3988
     0.4254   0.4268   0.4601   0.4640   0.4987   0.5682   0.6349   0.6545
     0.6726   0.6872   0.7248   0.7633   0.7881   0.7913   0.8148   0.8435
     0.8695   0.8899   0.8939   0.9126   0.9326   0.9710   1.0337   1.1156
     1.1563   1.1966   1.2040   1.2953   1.3795   1.4160   1.4287   1.4770
     1.5776   1.5822   1.6746   1.7571   1.8859   1.9348   2.0600   2.0670
     2.1103   2.1438   2.1704   2.1750   2.2150   2.2431   2.2758   2.5264
     3.5394   3.9402   4.4080   4.7001   4.7611   5.0963   5.1845   5.2115
     5.5601   5.6395   5.6765   5.7390   5.8003   6.0182   6.1093   6.3982
     6.4501   6.5592   6.5993   6.7053   6.8832   6.9105   7.0691   7.1036
     7.1660   7.2294   7.4384   7.4638   7.4901   7.6815   7.7563   7.8022
     7.8190   7.8933

          k = 0.3750 0.5236 0.0000 ( 79235 PWs)   bands (ev):

   -41.7473 -39.4600 -38.8964 -36.5268 -23.7129 -23.6218 -23.5812 -23.5314
   -23.3526 -23.2523 -23.2039 -23.1607 -21.8687 -21.7848 -21.7527 -20.5566
   -20.5026 -20.4957 -19.2596 -19.2389 -19.2335 -17.7929 -17.7890 -17.7707
   -16.5911 -16.3504 -16.0470 -15.7676 -15.7082 -15.6239 -15.5279 -15.4935
   -15.4815 -15.4344 -15.3988 -15.3746 -15.3379 -15.3212 -15.0953 -15.0096
   -14.9949 -14.9587 -14.8801 -14.8647 -14.8277 -14.8116 -14.7826 -14.7585
   -14.7402 -14.7146 -14.6520 -14.6030 -14.3330 -14.1636  -9.2605  -9.1816
    -9.1468  -9.0906  -9.0440  -9.0020  -8.8924  -8.8863  -8.8292  -8.8251
    -8.7596  -8.7544  -8.7030  -8.6939  -8.6386  -8.5822  -8.5410  -8.4879
    -8.4153  -8.4026  -8.3810  -8.2869  -8.2096  -8.1377  -4.5538  -4.2500
    -4.0737  -3.7805  -3.7165  -3.5854  -3.5375  -3.4494  -3.3991  -3.3751
    -3.2698  -3.2284  -3.1380  -3.1222  -3.0921  -3.0785  -3.0489  -3.0010
    -2.9762  -2.9596  -2.9161  -2.9125  -2.8960  -2.8406  -2.8359  -2.8198
    -2.7897  -2.7557  -2.7066  -2.5429  -2.5081  -2.4179  -2.4002  -2.3604
    -2.2801  -2.2339  -2.2004  -2.1488  -2.1300  -2.0429  -1.9273  -1.9092
    -1.8368  -1.8291  -1.7885  -1.7790  -1.7451  -1.7247  -1.6968  -1.6665
    -1.5971  -1.5232  -1.5042  -1.4860  -1.4839  -1.4744  -1.3977  -1.3290
    -1.3150  -1.2913  -1.2550  -1.2497  -1.2239  -1.2072  -1.2022  -1.1156
    -1.1120  -1.0763  -1.0710  -1.0364  -0.9781  -0.9034  -0.8799  -0.7786
    -0.7733  -0.7605  -0.6906  -0.6312  -0.6036  -0.5445  -0.5054  -0.4115
    -0.3839  -0.3272  -0.3115  -0.2989  -0.2945  -0.2944  -0.2193  -0.1001
    -0.0970  -0.0621  -0.0346   0.0104   0.0325   0.0666   0.0925   0.1266
     0.1545   0.1946   0.2481   0.2530   0.2581   0.2930   0.3303   0.3504
     0.3532   0.3898   0.4008   0.4564   0.4809   0.5306   0.5743   0.5850
     0.6063   0.6391   0.6792   0.7070   0.7088   0.7322   0.7521   0.7817
     0.7941   0.8068   0.8072   0.8378   0.8398   0.8682   0.8769   0.9233
     1.0001   1.0043   1.0604   1.0832   1.1433   1.1770   1.1908   1.2200
     1.2930   1.3218   1.3249   1.3420   1.4112   1.4458   1.5005   1.6665
     1.8131   1.9320   2.0636   2.2177   2.2615   2.3085   2.3546   2.3748
     2.4165   2.4233   2.6453   2.6878   2.7961   2.8120   2.8589   3.1187
     3.7150   4.0070   4.2879   4.5904   4.9465   5.2598   5.3177   5.7908
     5.8448   5.9195   5.9816   6.0036   6.0435   6.2299   6.3009   6.4070
     6.4493   6.6205   7.0967   7.2610   7.3505   7.4193   7.4772   7.5360
     7.5798   7.6248   7.6969   7.7085   7.7950   7.9571   8.0589   8.1149
     8.1655   8.2593

          k = 0.3750 0.7854 0.0000 ( 79296 PWs)   bands (ev):

   -41.7423 -39.4567 -38.8898 -36.5227 -23.6568 -23.5708 -23.5236 -23.4783
   -23.2963 -23.2014 -23.1450 -23.1075 -21.9354 -21.7756 -21.7658 -20.5901
   -20.5061 -20.4968 -19.4686 -19.2165 -19.1333 -17.9030 -17.7741 -17.7072
   -16.4312 -16.2085 -16.1011 -15.7925 -15.6246 -15.5200 -15.4558 -15.4216
   -15.3548 -15.3529 -15.3173 -15.3057 -15.2844 -15.1838 -15.1426 -15.0763
   -14.9380 -14.8821 -14.8727 -14.8094 -14.7904 -14.7769 -14.7628 -14.7206
   -14.7022 -14.6839 -14.6710 -14.6646 -14.4006 -14.2666  -9.4552  -9.3782
    -9.1792  -9.1673  -9.1059  -9.1032  -9.0265  -9.0228  -8.9626  -8.9531
    -8.8680  -8.8387  -8.8281  -8.7715  -8.7539  -8.6888  -8.6393  -8.6313
    -8.6064  -8.5414  -8.4217  -8.3854  -8.3362  -8.2880  -4.9826  -4.5803
    -4.5584  -4.2084  -4.1522  -4.0225  -3.9220  -3.8856  -3.7010  -3.6542
    -3.6386  -3.6291  -3.5797  -3.5275  -3.4978  -3.4334  -3.3588  -3.2914
    -3.1403  -3.0714  -3.0427  -2.9908  -2.9855  -2.9390  -2.9305  -2.9235
    -2.9081  -2.8030  -2.7632  -2.6889  -2.6596  -2.5884  -2.4651  -2.4405
    -2.4023  -2.3916  -2.3589  -2.2187  -2.2016  -2.1831  -2.1174  -2.0989
    -2.0147  -1.9597  -1.9162  -1.8571  -1.8209  -1.8135  -1.7798  -1.7586
    -1.7266  -1.7191  -1.6807  -1.6085  -1.5762  -1.5533  -1.5523  -1.5369
[...]
    -2.2920  -2.2660  -2.2402  -2.2270  -2.2242  -2.2013  -2.1702  -2.1576
    -2.1530  -2.0957  -2.0361  -1.8865  -1.8728  -1.8331  -1.7838  -1.7453
    -1.7433  -1.7321  -1.7081  -1.6875  -1.6860  -1.6477  -1.5935  -1.5214
    -1.4708  -1.4199  -1.4004  -1.3021  -1.2664  -1.2409  -1.2406  -1.1908
    -1.1781  -1.1744  -1.0981  -1.0511  -1.0203  -0.9961  -0.9240  -0.9150
    -0.8983  -0.8950  -0.8910  -0.8889  -0.8187  -0.8103  -0.7822  -0.7597
    -0.7051  -0.6910  -0.6196  -0.6181  -0.5988  -0.5884  -0.5244  -0.4824
    -0.4707  -0.4518  -0.4475  -0.4312  -0.4306  -0.3922  -0.3845  -0.3583
    -0.3567  -0.3356  -0.3319  -0.3142  -0.2321  -0.2268  -0.2203  -0.2030
    -0.1901  -0.1575  -0.1026   0.0230   0.1059   0.1341   0.1406   0.2215
     0.2369   0.2500   0.2528   0.3065   0.3199   0.3285   0.3558   0.4188
     0.4247   0.4446   0.4941   0.5548   0.5589   0.6028   0.6077   0.6499
     0.6526   0.6530   0.7298   0.7444   0.7736   0.7777   0.7816   0.8102
     0.8681   0.9014   0.9049   0.9226   0.9604   0.9610   1.0915   1.1113
     1.1498   1.1863   1.1917   1.2145   1.3946   1.4526   1.4867   1.4998
     1.5660   1.5825   1.7728   1.8043   1.8888   1.9188   2.0026   2.0813
     2.0920   2.1228   2.1948   2.1959   2.2052   2.2147   2.3086   2.4863
     3.5521   4.1967   4.1978   4.6808   4.7575   5.2310   5.3012   5.3186
     5.4154   5.4298   5.6257   5.7938   5.8708   6.0295   6.1997   6.2556
     6.3093   6.5709   6.8299   6.8819   6.9238   6.9353   7.0553   7.1575
     7.1864   7.2089   7.2544   7.3481   7.4044   7.6672   7.7749   7.8744
     7.9076   7.9290

          k =-0.5000 0.5236 0.0000 ( 79254 PWs)   bands (ev):

   -41.7473 -39.4600 -38.8963 -36.5268 -23.7088 -23.6261 -23.5710 -23.5417
   -23.3488 -23.2563 -23.1890 -23.1757 -21.8687 -21.7840 -21.7528 -20.5565
   -20.5040 -20.4957 -19.2596 -19.2384 -19.2303 -17.7992 -17.7946 -17.7710
   -16.5769 -16.3711 -16.0407 -15.7116 -15.7062 -15.6348 -15.5162 -15.5042
   -15.4768 -15.4225 -15.4077 -15.3985 -15.3473 -15.3237 -15.0971 -15.0226
   -14.9538 -14.9530 -14.9279 -14.8576 -14.8266 -14.8137 -14.7802 -14.7589
   -14.7334 -14.7226 -14.6566 -14.6025 -14.3255 -14.1666  -9.2227  -9.2010
    -9.1476  -9.1185  -9.1107  -9.0021  -8.8918  -8.8520  -8.8258  -8.8245
    -8.7922  -8.7717  -8.7284  -8.6884  -8.5669  -8.5660  -8.5485  -8.5377
    -8.4093  -8.4049  -8.3210  -8.2333  -8.2016  -8.1845  -4.4604  -4.3268
    -3.9490  -3.8713  -3.6086  -3.5858  -3.5828  -3.4645  -3.4148  -3.3786
    -3.2081  -3.1915  -3.1608  -3.1514  -3.0463  -3.0459  -3.0244  -3.0118
    -2.9814  -2.9543  -2.9141  -2.9083  -2.8916  -2.8906  -2.8673  -2.8177
    -2.7893  -2.7668  -2.6935  -2.5771  -2.4274  -2.4068  -2.3921  -2.3277
    -2.3053  -2.2944  -2.2791  -2.2064  -2.1372  -2.1126  -2.0618  -1.8793
    -1.8769  -1.8327  -1.8088  -1.7735  -1.7285  -1.6746  -1.6742  -1.6648
    -1.5980  -1.5953  -1.5183  -1.5027  -1.4972  -1.4897  -1.3912  -1.3080
    -1.2912  -1.2851  -1.2751  -1.2638  -1.2166  -1.2066  -1.1481  -1.1262
    -1.0933  -1.0916  -1.0656  -1.0443  -1.0429  -0.8622  -0.8415  -0.8320
    -0.8154  -0.7688  -0.7259  -0.6216  -0.6076  -0.5449  -0.4628  -0.3678
    -0.3445  -0.3390  -0.3349  -0.3098  -0.2851  -0.2265  -0.2198  -0.0804
    -0.0757  -0.0602  -0.0258   0.0001   0.0158   0.0400   0.1058   0.1243
     0.1628   0.1680   0.2212   0.2279   0.2488   0.2498   0.3354   0.3369
     0.3430   0.3841   0.3850   0.4480   0.5027   0.5610   0.5783   0.5819
     0.6238   0.6413   0.6627   0.6837   0.7257   0.7354   0.7443   0.7522
     0.7933   0.8059   0.8313   0.8460   0.8671   0.9037   0.9323   0.9406
     0.9409   1.0957   1.1066   1.1276   1.1369   1.1454   1.1518   1.2429
     1.2451   1.3050   1.3326   1.3568   1.3738   1.4840   1.5253   1.5803
     1.9580   2.1185   2.1959   2.2224   2.2313   2.2590   2.4065   2.4139
     2.4234   2.4586   2.5596   2.6435   2.7977   2.8260   2.8370   2.9467
     3.7333   4.1138   4.2576   4.5453   4.9461   5.2798   5.3141   5.8170
     5.8450   5.9643   5.9776   5.9821   6.0463   6.2712   6.3327   6.3632
     6.4093   6.6154   7.2187   7.2691   7.2967   7.3636   7.4748   7.4960
     7.6369   7.6699   7.6867   7.7975   7.9220   7.9403   7.9844   8.1149
     8.2500   8.2575

          k =-0.5000 0.7854 0.0000 ( 79278 PWs)   bands (ev):

   -41.7423 -39.4567 -38.8898 -36.5227 -23.6535 -23.5743 -23.5157 -23.4863
   -23.2933 -23.2046 -23.1330 -23.1196 -21.9354 -21.7748 -21.7659 -20.5901
   -20.5059 -20.4982 -19.4686 -19.2134 -19.1328 -17.9030 -17.7832 -17.7094
   -16.4228 -16.2192 -16.0987 -15.7920 -15.5831 -15.5568 -15.4092 -15.3900
   -15.3861 -15.3365 -15.3165 -15.3049 -15.2811 -15.2289 -15.1303 -15.1137
   -14.9091 -14.9074 -14.8491 -14.8336 -14.7725 -14.7670 -14.7603 -14.7511
   -14.6980 -14.6817 -14.6745 -14.6693 -14.3998 -14.2667  -9.3743  -9.2811
    -9.2743  -9.2357  -9.1594  -9.0387  -8.9611  -8.9419  -8.9122  -8.9113
    -8.8921  -8.8714  -8.8570  -8.8148  -8.7778  -8.7772  -8.7051  -8.5789
    -8.5278  -8.4631  -8.4499  -8.4141  -8.3933  -8.3793  -4.8864  -4.6598
    -4.4607  -4.2806  -4.0630  -4.0409  -3.9236  -3.9231  -3.6569  -3.6523
    -3.6421  -3.6412  -3.5430  -3.5225  -3.5089  -3.4523  -3.3096  -3.2117
    -3.1315  -3.1223  -3.0636  -3.0480  -2.9665  -2.9491  -2.9248  -2.9109
    -2.9055  -2.8665  -2.7575  -2.6291  -2.6045  -2.5492  -2.5182  -2.5117
    -2.4370  -2.3791  -2.3472  -2.3466  -2.2587  -2.1887  -2.1725  -2.0342
    -2.0203  -1.9560  -1.9302  -1.8592  -1.8486  -1.8452  -1.8060  -1.7978
    -1.7294  -1.6900  -1.6652  -1.5956  -1.5810  -1.5661  -1.5399  -1.5386
    -1.5344  -1.4887  -1.4602  -1.4548  -1.3614  -1.3565  -1.3464  -1.2811
    -1.2551  -1.2178  -1.1577  -1.1265  -0.9933  -0.9130  -0.8763  -0.7984
    -0.7838  -0.6606  -0.6404  -0.5372  -0.5048  -0.4183  -0.3633  -0.3143
    -0.3060  -0.2985  -0.2442  -0.1945  -0.1412  -0.0578  -0.0003   0.0288
     0.1161   0.1458   0.1593   0.1826   0.1839   0.2045   0.2333   0.2719
     0.3472   0.3522   0.3750   0.4218   0.4286   0.4647   0.4904   0.5467
     0.5507   0.5841   0.6022   0.6108   0.6833   0.7205   0.7324   0.7681
     0.7892   0.7951   0.8034   0.8251   0.8567   0.8983   0.9340   0.9350
     0.9401   0.9536   0.9771   0.9782   1.0009   1.0133   1.0487   1.0887
     1.1442   1.1608   1.1850   1.2669   1.3075   1.3397   1.3782   1.3836
     1.4546   1.5428   1.5532   1.5823   1.6313   1.6324   1.7439   1.8950
     2.0952   2.1200   2.2362   2.2847   2.3073   2.3329   2.4416   2.6496
     2.6655   2.6968   2.8390   2.8569   3.1210   3.1317   3.1768   3.1797
     3.8402   3.9479   4.3906   4.4123   4.9063   5.2054   5.2653   5.8489
     5.9660   6.0067   6.1555   6.2111   6.2479   6.3096   6.3910   6.6271
     6.7712   6.8893   7.2483   7.3123   7.7750   7.8821   7.8882   7.9178
     7.9294   7.9806   7.9956   8.0971   8.1267   8.1831   8.2697   8.3592
     8.4267   8.5642

          k =-0.5000-1.0472 0.0000 ( 79260 PWs)   bands (ev):

   -41.7402 -39.4553 -38.8871 -36.5210 -23.6301 -23.5525 -23.4924 -23.4628
   -23.2698 -23.1828 -23.1094 -23.0960 -21.9723 -21.7710 -21.7610 -20.6112
   -20.5026 -20.4958 -19.5491 -19.2064 -19.0858 -17.9536 -17.7769 -17.6726
   -16.3255 -16.1583 -16.1291 -15.8574 -15.6055 -15.5405 -15.3833 -15.3822
   -15.3808 -15.3061 -15.2595 -15.2008 -15.1701 -15.1222 -15.1144 -15.0984
   -14.9966 -14.9703 -14.9077 -14.8836 -14.7479 -14.7471 -14.6972 -14.6769
   -14.6717 -14.6691 -14.6250 -14.6175 -14.4699 -14.3456  -9.3961  -9.2860
    -9.2777  -9.2270  -9.1664  -9.0646  -9.0361  -8.9703  -8.9527  -8.9410
    -8.9396  -8.9291  -8.9070  -8.8882  -8.8503  -8.8477  -8.7310  -8.6882
    -8.5958  -8.5924  -8.5299  -8.5113  -8.4242  -8.3731  -5.0600  -4.7944
    -4.6620  -4.4417  -4.2601  -4.2384  -4.1293  -4.0932  -3.8779  -3.8749
    -3.8742  -3.8626  -3.7521  -3.7224  -3.5025  -3.4438  -3.3902  -3.3125
    -3.2175  -3.1080  -3.0714  -3.0427  -2.9898  -2.9640  -2.9403  -2.9286
    -2.8857  -2.8414  -2.8080  -2.7760  -2.6860  -2.6336  -2.5631  -2.5275
    -2.4656  -2.3980  -2.3849  -2.2971  -2.2820  -2.2155  -2.2063  -2.1505
    -2.1479  -2.0054  -1.9821  -1.9114  -1.9070  -1.8955  -1.8921  -1.8750
    -1.7578  -1.7162  -1.6525  -1.6476  -1.6457  -1.6283  -1.6277  -1.5811
    -1.5516  -1.5503  -1.5379  -1.4482  -1.4253  -1.4193  -1.3815  -1.2954
    -1.2848  -1.2481  -1.1791  -1.1548  -0.9448  -0.9377  -0.8933  -0.7812
    -0.7715  -0.6096  -0.5966  -0.5077  -0.4607  -0.3867  -0.3311  -0.3090
    -0.2979  -0.2842  -0.2664  -0.1123  -0.0859   0.0550   0.1127   0.1682
     0.1867   0.1961   0.2273   0.2350   0.2608   0.3072   0.3396   0.3517
     0.3862   0.3878   0.4498   0.4864   0.5171   0.5384   0.5569   0.5626
     0.5706   0.5925   0.6083   0.6267   0.6290   0.6310   0.6420   0.7072
     0.7654   0.8299   0.8499   0.9172   0.9513   0.9639   0.9649   1.0147
     1.0213   1.0728   1.1027   1.1256   1.1456   1.1608   1.1931   1.2005
     1.2534   1.2552   1.3191   1.3746   1.3786   1.4519   1.4589   1.5408
     1.5524   1.6040   1.7224   1.7314   1.7954   1.8002   1.8924   1.8930
     1.9078   2.0838   2.1082   2.1334   2.3336   2.3762   2.5063   2.6647
     2.7483   2.8474   2.8522   2.9469   3.1286   3.1780   3.2690   3.3830
     3.8310   3.8347   4.2412   4.5559   4.7561   5.2027   5.3393   5.8209
     5.9062   5.9537   6.1064   6.1722   6.1820   6.3129   6.4543   6.7908
     6.9825   7.1083   7.3802   7.3901   7.4285   7.4310   7.9022   8.0685
     8.1600   8.2915   8.4033   8.4997   8.5598   8.5809   8.6329   8.6527
     8.7711   8.7993

     the Fermi energy is     1.9026 ev

!    total energy              =   -3711.02819878 Ry
     Harris-Foulkes estimate   =   -3711.02819879 Ry
     estimated scf accuracy    <          6.0E-09 Ry

     The total energy is the sum of the following terms:

     one-electron contribution =  -58821.38373128 Ry
     hartree contribution      =   29700.83537935 Ry
     xc contribution           =   -1263.13716386 Ry
     ewald contribution        =   26672.67244801 Ry
     smearing contrib. (-TS)   =      -0.01513101 Ry

     convergence has been achieved in  42 iterations

     negative rho (up, down):  9.140E-02 0.000E+00

     Forces acting on atoms (cartesian axes, Ry/au):

     atom    1 type  4   force =    -0.00000567    0.00000000   -0.00009265
     atom    2 type  4   force =     0.00000567    0.00000000   -0.00009265
     atom    3 type  3   force =    -0.00001548    0.00000000   -0.00009224
     atom    4 type  3   force =     0.00001548    0.00000000   -0.00009224
     atom    5 type  4   force =    -0.00000517    0.00000000   -0.00007585
     atom    6 type  4   force =     0.00000517    0.00000000   -0.00007585
     atom    7 type  1   force =     0.00000000    0.00000000   -0.00010375
     atom    8 type  1   force =     0.00000000    0.00000000   -0.00009394
     atom    9 type  3   force =     0.00002932    0.00000000   -0.00000828
     atom   10 type  3   force =    -0.00002932    0.00000000   -0.00000828
     atom   11 type  4   force =     0.00000000    0.00000000    0.00011388
     atom   12 type  4   force =    -0.00000245    0.00000000    0.00003887
     atom   13 type  4   force =     0.00000245    0.00000000    0.00003887
     atom   14 type  4   force =     0.00000000    0.00000000    0.00015880
     atom   15 type  2   force =     0.00000000    0.00000000   -0.00043894
     atom   16 type  5   force =     0.00000000    0.00000000   -0.00066571
     atom   17 type  4   force =     0.00007561    0.00000000    0.00071338
     atom   18 type  4   force =    -0.00007561    0.00000000    0.00071338
     atom   19 type  4   force =     0.00000000    0.00000000    0.00078195
     atom   20 type  4   force =     0.00000000    0.00000000    0.00100308
     atom   21 type  3   force =    -0.00004341    0.00000000   -0.00106784
     atom   22 type  3   force =     0.00004341    0.00000000   -0.00106784
     atom   23 type  1   force =     0.00000000    0.00000000   -0.00185142
     atom   24 type  1   force =     0.00000000    0.00000000   -0.00192932
     atom   25 type  4   force =    -0.00021373    0.00000000    0.00361617
     atom   26 type  4   force =     0.00021373    0.00000000    0.00361617
     atom   27 type  4   force =    -0.00034463    0.00000000    0.00422786
     atom   28 type  4   force =     0.00034463    0.00000000    0.00422786
     atom   29 type  3   force =     0.00154164    0.00000000   -0.00820451
     atom   30 type  3   force =    -0.00154164    0.00000000   -0.00820451
     atom   31 type  4   force =    -0.00052835    0.00000000    0.01202829
     atom   32 type  4   force =     0.00052835    0.00000000    0.01202829
     atom   33 type  1   force =     0.00000000    0.00000000   -0.02156417
     atom   34 type  1   force =     0.00000000    0.00000000   -0.01658161
     atom   35 type  3   force =     0.00088383    0.00000000    0.00780815
     atom   36 type  3   force =    -0.00088383    0.00000000    0.00780815
     atom   37 type  4   force =     0.00000000    0.00000000    0.05074270
     atom   38 type  4   force =     0.00000000    0.00000000    0.06275654
     atom   39 type  4   force =     0.01842153    0.00000000    0.06105235
     atom   40 type  4   force =    -0.01842153    0.00000000    0.06105235
     atom   41 type  5   force =     0.00000000    0.00000000   -0.14474426
     atom   42 type  2   force =     0.00000000    0.00000000   -0.08541282
     atom   43 type  4   force =     0.00000000    0.00000000    0.03219812
     atom   44 type  4   force =    -0.00324694    0.00000000    0.02025442
     atom   45 type  4   force =     0.00324694    0.00000000    0.02025442
     atom   46 type  4   force =     0.00000000    0.00000000    0.02858466
     atom   47 type  3   force =    -0.00104783    0.00000000   -0.02112377
     atom   48 type  3   force =     0.00104783    0.00000000   -0.02112377
     atom   49 type  1   force =     0.00000000    0.00000000   -0.02465340
     atom   50 type  1   force =     0.00000000    0.00000000   -0.02924041
     atom   51 type  4   force =     0.00134490    0.00000000   -0.00510447
     atom   52 type  4   force =    -0.00134490    0.00000000   -0.00510447
     atom   53 type  3   force =    -0.00031901    0.00000000    0.00145755
     atom   54 type  3   force =     0.00031901    0.00000000    0.00145755
     atom   55 type  4   force =     0.00016788    0.00000000    0.00004258
     atom   56 type  4   force =    -0.00016788    0.00000000    0.00004258

     Total force =     0.222202     Total SCF correction =     0.000253


     Computing stress (Cartesian axis) and pressure


     negative rho (up, down):  9.140E-02 0.000E+00
          total   stress  (Ry/bohr**3)                   (kbar)     P=       -7.59
  -0.00004147   0.00000000   0.00000000           -6.10        0.00        0.00
   0.00000000  -0.00002795   0.00000000            0.00       -4.11        0.00
   0.00000000   0.00000000  -0.00008537            0.00        0.00      -12.56

 
     init_run     :     26.49s CPU     27.74s WALL (       1 calls)
     electrons    :   2091.20s CPU   2190.00s WALL (       1 calls)
     forces       :     11.15s CPU     11.86s WALL (       1 calls)
     stress       :    108.23s CPU    110.02s WALL (       1 calls)

     Called by init_run:
     wfcinit      :     21.58s CPU     22.00s WALL (       1 calls)
     potinit      :      1.08s CPU      1.11s WALL (       1 calls)
     hinit0       :      1.81s CPU      1.98s WALL (       1 calls)

     Called by electrons:
     c_bands      :   1724.05s CPU   1770.73s WALL (      42 calls)
     sum_band     :    277.97s CPU    307.19s WALL (      42 calls)
     v_of_rho     :      5.48s CPU      5.56s WALL (      43 calls)
     newd         :     43.03s CPU     65.99s WALL (      43 calls)
     mix_rho      :     41.22s CPU     41.58s WALL (      42 calls)

     Called by c_bands:
     init_us_2    :     10.96s CPU     11.03s WALL (    2175 calls)
     cegterg      :   1628.55s CPU   1673.81s WALL (    1050 calls)

     Called by sum_band:
     sum_band:bec :      1.20s CPU      1.20s WALL (    1050 calls)
     addusdens    :     42.71s CPU     69.24s WALL (      42 calls)

     Called by *egterg:
     h_psi        :    828.29s CPU    845.34s WALL (    4351 calls)
     s_psi        :    126.67s CPU    127.30s WALL (    4351 calls)
     g_psi        :      1.89s CPU      1.91s WALL (    3276 calls)
     cdiaghg      :    311.13s CPU    312.43s WALL (    4326 calls)

     Called by h_psi:
     h_psi:calbec :    134.64s CPU    135.24s WALL (    4351 calls)
     vloc_psi     :    562.83s CPU    570.68s WALL (    4351 calls)
     add_vuspsi   :    127.31s CPU    127.89s WALL (    4351 calls)

     General routines
     calbec       :    223.25s CPU    224.18s WALL (    5526 calls)
     fft          :      4.63s CPU      4.75s WALL (     582 calls)
     ffts         :     22.55s CPU     22.76s WALL (   24390 calls)
     fftw         :    651.56s CPU    660.38s WALL ( 1475024 calls)
     interpolate  :      0.35s CPU      0.36s WALL (      43 calls)
 
     Parallel routines
     fft_scatt_xy :     76.11s CPU     77.24s WALL ( 1499996 calls)
     fft_scatt_yz :    425.24s CPU    431.05s WALL ( 1499996 calls)
 
     PWSCF        :  37m18.15s CPU  39m 1.18s WALL

 
   This run was terminated on:  12:46: 2   1Jun2021            

=------------------------------------------------------------------------------=
   JOB DONE.
=------------------------------------------------------------------------------=
[1622565962.924389] [holy7c04304:59103:0]          mpool.c:43   UCX  WARN  object 0x3f6e040 was not returned to mpool ucp_requests
[1622565962.927517] [holy7c04301:258105:0]          mpool.c:43   UCX  WARN  object 0x4550780 was not returned to mpool ucp_requests
[1622565962.929598] [holy7c04207:178051:0]          mpool.c:43   UCX  WARN  object 0x3e88680 was not returned to mpool ucp_requests
[1622565962.933687] [holy7c04403:246985:0]          mpool.c:43   UCX  WARN  object 0x3a19580 was not returned to mpool ucp_requests
[1622565962.928917] [holy7c04301:258106:0]          mpool.c:43   UCX  WARN  object 0x42d7000 was not returned to mpool ucp_requests
[1622565962.928936] [holy7c04301:258106:0]          mpool.c:43   UCX  WARN  object 0x42d71c0 was not returned to mpool ucp_requests
[1622565962.933812] [holy7c04309:196809:0]          mpool.c:43   UCX  WARN  object 0x3e4d600 was not returned to mpool ucp_requests
[1622565962.933831] [holy7c04309:196809:0]          mpool.c:43   UCX  WARN  object 0x3e4d980 was not returned to mpool ucp_requests
[1622565962.935001] [holy7c04304:59102:0]          mpool.c:43   UCX  WARN  object 0x3f30840 was not returned to mpool ucp_requests
[1622565962.934735] [holy7c04401:234810:0]          mpool.c:43   UCX  WARN  object 0x3372380 was not returned to mpool ucp_requests
[1622565962.938258] [holy7c04312:73105:0]          mpool.c:43   UCX  WARN  object 0x34b2380 was not returned to mpool ucp_requests
[1622565962.933217] [holy7c04208:254710:0]          mpool.c:43   UCX  WARN  object 0x3c90b40 was not returned to mpool ucp_requests
[1622565962.935471] [holy7c04211:67813:0]          mpool.c:43   UCX  WARN  object 0x2d75100 was not returned to mpool ucp_requests
[1622565962.935493] [holy7c04211:67813:0]          mpool.c:43   UCX  WARN  object 0x2d75480 was not returned to mpool ucp_requests
[1622565962.936362] [holy7c04211:67816:0]          mpool.c:43   UCX  WARN  object 0x3b26c00 was not returned to mpool ucp_requests
[1622565962.936382] [holy7c04211:67816:0]          mpool.c:43   UCX  WARN  object 0x3b274c0 was not returned to mpool ucp_requests
[1622565962.939053] [holy7c04312:73106:0]          mpool.c:43   UCX  WARN  object 0x2e1b9c0 was not returned to mpool ucp_requests
[1622565962.939565] [holy7c04312:73108:0]          mpool.c:43   UCX  WARN  object 0x281c180 was not returned to mpool ucp_requests
[1622565962.939583] [holy7c04312:73108:0]          mpool.c:43   UCX  WARN  object 0x281c500 was not returned to mpool ucp_requests
