
     Program PWSCF v.6.5 starts on 28May2021 at 10: 0:21 

     This program is part of the open-source Quantum ESPRESSO suite
     for quantum simulation of materials; please cite
         "P. Giannozzi et al., J. Phys.:Condens. Matter 21 395502 (2009);
         "P. Giannozzi et al., J. Phys.:Condens. Matter 29 465901 (2017);
          URL http://www.quantum-espresso.org", 
     in publications or presentations arising from this work. More details at
     http://www.quantum-espresso.org/quote

     Parallel version (MPI), running on    32 processors

     MPI processes distributed on     8 nodes
     R & G space division:  proc/nbgrp/npool/nimage =      32
     Reading input from YCBCO50_212_CuO_cleave_2.0_sep.pwi
Warning: card &IONS ignored
Warning: card     ION_DYNAMICS = 'BFGS' ignored
Warning: card / ignored
Warning: card &CELL ignored
Warning: card     CELL_DYNAMICS = 'BFGS' ignored
Warning: card     PRESS_CONV_THR = 5 ignored
Warning: card / ignored

     Current dimensions of program PWSCF are:
     Max number of different atomic species (ntypx) = 10
     Max number of k-points (npk) =  40000
     Max angular momentum in pseudopotentials (lmaxx) =  3

     Subspace diagonalization in iterative solution of the eigenvalue problem:
     one sub-group per band group will be used
     scalapack distributed-memory algorithm (size of sub-group:  5*  5 procs)

     Message from routine setup:
     using ibrav=0 with symmetry is DISCOURAGED, use correct ibrav instead
 
     Parallelization info
     --------------------
     sticks:   dense  smooth     PW     G-vecs:    dense   smooth      PW
     Min         188      62     17                92900    17870    2665
     Max         189      63     18                92930    17915    2706
     Sum        6019    2003    565              2973325   572559   86089
 


     bravais-lattice index     =            0
     lattice parameter (alat)  =      14.8133  a.u.
     unit-cell volume          =    9113.2300 (a.u.)^3
     number of atoms/cell      =           56
     number of atomic types    =            5
     number of electrons       =       456.00
     number of Kohn-Sham states=          274
     kinetic-energy cutoff     =      60.0000  Ry
     charge density cutoff     =     720.0000  Ry
     convergence threshold     =      1.0E-08
     mixing beta               =       0.5000
     number of iterations used =           10  local-TF  mixing
     Exchange-correlation= SLA PW PBE PBE
                           (   1   4   3   4   0   0   0)

     celldm(1)=  14.813271  celldm(2)=   0.000000  celldm(3)=   0.000000
     celldm(4)=   0.000000  celldm(5)=   0.000000  celldm(6)=   0.000000

     crystal axes: (cart. coord. in units of alat)
               a(1) = (   1.000000   0.000000   0.000000 )  
               a(2) = (   0.000000   0.477453   0.000000 )  
               a(3) = (   0.000000   0.000000   5.872041 )  

     reciprocal axes: (cart. coord. in units 2 pi/alat)
               b(1) = (  1.000000  0.000000  0.000000 )  
               b(2) = (  0.000000  2.094448  0.000000 )  
               b(3) = (  0.000000  0.000000  0.170299 )  


     PseudoPot. # 1 for Ba read from file:
     ./pseudo/Ba.pbe-nsp-van.UPF
     MD5 check sum: 2b9c31dd849566dd297d80989662b7a0
     Pseudo is Ultrasoft + core correction, Zval = 10.0
     Generated by new atomic code, or converted to UPF format
     Using radial grid of  907 points,  6 beta functions with: 
                l(1) =   0
                l(2) =   0
                l(3) =   1
                l(4) =   1
                l(5) =   2
                l(6) =   2
     Q(r) pseudized with  6 coefficients,  rinner =    1.200   1.200   1.200
                                                       1.200   1.200

     PseudoPot. # 2 for Ca read from file:
     ./pseudo/Ca.pbe-nsp-van.UPF
     MD5 check sum: 6471098428ff4fa451746d08035ff179
     Pseudo is Ultrasoft + core correction, Zval = 10.0
     Generated by new atomic code, or converted to UPF format
     Using radial grid of  845 points,  6 beta functions with: 
                l(1) =   0
                l(2) =   0
                l(3) =   1
                l(4) =   1
                l(5) =   2
                l(6) =   2
     Q(r) pseudized with  6 coefficients,  rinner =    1.200   1.200   1.200
                                                       1.200   1.200

     PseudoPot. # 3 for Cu read from file:
     ./pseudo/Cu.pbe-n-van_ak.UPF
     MD5 check sum: 34e3282627ffb533726feb647e090d62
     Pseudo is Ultrasoft + core correction, Zval = 11.0
     Generated by new atomic code, or converted to UPF format
     Using radial grid of  867 points,  6 beta functions with: 
                l(1) =   0
                l(2) =   0
                l(3) =   1
                l(4) =   1
                l(5) =   2
                l(6) =   2
     Q(r) pseudized with  8 coefficients,  rinner =    1.400   1.400   1.400
                                                       1.400   1.400

     PseudoPot. # 4 for O  read from file:
     ./pseudo/O.pbe-van_ak.UPF
     MD5 check sum: 783ce7fe4c79b6a4916957118fed0856
     Pseudo is Ultrasoft, Zval =  6.0
     Generated by new atomic code, or converted to UPF format
     Using radial grid of  737 points,  4 beta functions with: 
                l(1) =   0
                l(2) =   0
                l(3) =   1
                l(4) =   1
     Q(r) pseudized with  8 coefficients,  rinner =    0.800   0.800   0.800


     PseudoPot. # 5 for Y  read from file:
     ./pseudo/Y.pbe-nsp-van.UPF
     MD5 check sum: 4412fed3ab108fed87a1b7d6a69a4a38
     Pseudo is Ultrasoft + core correction, Zval = 11.0
     Generated by new atomic code, or converted to UPF format
     Using radial grid of  885 points,  6 beta functions with: 
                l(1) =   0
                l(2) =   0
                l(3) =   1
                l(4) =   1
                l(5) =   2
                l(6) =   2
     Q(r) pseudized with  6 coefficients,  rinner =    1.200   1.200   1.200
                                                       1.200   1.200

     atomic species   valence    mass     pseudopotential
        Ba            10.00   137.32700     Ba( 1.00)
        Ca            10.00    40.07800     Ca( 1.00)
        Cu            11.00    63.54600     Cu( 1.00)
        O              6.00    15.99900     O ( 1.00)
        Y             11.00    88.90584     Y ( 1.00)

      4 Sym. Ops. (no inversion) found ( 2 have fractional translation)



   Cartesian axes

     site n.     atom                  positions (alat units)
         1           O   tau(   1) = (  -0.0008343   0.2387265  -0.0222443  )
         2           O   tau(   2) = (   0.5008340   0.2387265  -0.0222443  )
         3           Cu  tau(   3) = (   0.5017257   0.0000000   0.0109608  )
         4           Cu  tau(   4) = (  -0.0017260   0.0000000   0.0109608  )
         5           O   tau(   5) = (  -0.0028933   0.0000000   0.2506504  )
         6           O   tau(   6) = (   0.5028929   0.0000000   0.2506504  )
         7           Ba  tau(   7) = (   0.7499995   0.2387265   0.2749435  )
         8           Ba  tau(   8) = (   0.2499998   0.2387265   0.2755214  )
         9           Cu  tau(   9) = (   0.4980963   0.0000000   0.5208446  )
        10           Cu  tau(  10) = (   0.0019033   0.0000000   0.5208446  )
        11           O   tau(  11) = (   0.2499998   0.0000000   0.5341884  )
        12           O   tau(  12) = (   0.5083351   0.2387265   0.5569851  )
        13           O   tau(  13) = (  -0.0083354   0.2387265   0.5569851  )
        14           O   tau(  14) = (   0.7499995   0.0000000   0.5573831  )
        15           Ca  tau(  15) = (   0.2499998   0.2387265   0.7436937  )
        16           Y   tau(  16) = (   0.7499995   0.2387265   0.7469544  )
        17           O   tau(  17) = (  -0.0063798   0.2387265   0.9248530  )
        18           O   tau(  18) = (   0.5063794   0.2387265   0.9248530  )
        19           O   tau(  19) = (   0.7499995   0.0000000   0.9338544  )
        20           O   tau(  20) = (   0.2499998   0.0000000   0.9461329  )
        21           Cu  tau(  21) = (   0.0015717   0.0000000   0.9686860  )
        22           Cu  tau(  22) = (   0.4984280   0.0000000   0.9686860  )
        23           Ba  tau(  23) = (   0.2499998   0.2387265   1.2085224  )
        24           Ba  tau(  24) = (   0.7499995   0.2387265   1.2233294  )
        25           O   tau(  25) = (   0.0063772   0.0000000   1.2547537  )
        26           O   tau(  26) = (   0.4936224   0.0000000   1.2547537  )
        27           O   tau(  27) = (   0.5384045   0.2387265   1.4952521  )
        28           O   tau(  28) = (  -0.0384049   0.2387265   1.4952521  )
        29           Cu  tau(  29) = (   0.5006120   0.0000000   1.4952546  )
        30           Cu  tau(  30) = (  -0.0006123   0.0000000   1.4952546  )
        31           O   tau(  31) = (   0.4936212   0.0000000   1.9908927  )
        32           O   tau(  32) = (   0.0063785   0.0000000   1.9908927  )
        33           Ba  tau(  33) = (   0.7499995   0.2387265   2.0223220  )
        34           Ba  tau(  34) = (   0.2499998   0.2387265   2.0371316  )
        35           Cu  tau(  35) = (   0.4984280   0.0000000   2.2769629  )
        36           Cu  tau(  36) = (   0.0015717   0.0000000   2.2769629  )
        37           O   tau(  37) = (   0.2499998   0.0000000   2.2995210  )
        38           O   tau(  38) = (   0.7499995   0.0000000   2.3117907  )
        39           O   tau(  39) = (   0.5063781   0.2387265   2.3207958  )
        40           O   tau(  40) = (  -0.0063785   0.2387265   2.3207958  )
        41           Y   tau(  41) = (   0.7499995   0.2387265   2.4986894  )
        42           Ca  tau(  42) = (   0.2499998   0.2387265   2.5019590  )
        43           O   tau(  43) = (   0.7499995   0.0000000   2.6882568  )
        44           O   tau(  44) = (  -0.0083354   0.2387265   2.6886587  )
        45           O   tau(  45) = (   0.5083351   0.2387265   2.6886587  )
        46           O   tau(  46) = (   0.2499998   0.0000000   2.7114567  )
        47           Cu  tau(  47) = (   0.0019059   0.0000000   2.7247903  )
        48           Cu  tau(  48) = (   0.4980938   0.0000000   2.7247903  )
        49           Ba  tau(  49) = (   0.2499998   0.2387265   2.9701300  )
        50           Ba  tau(  50) = (   0.7499995   0.2387265   2.9706722  )
        51           O   tau(  51) = (  -0.0028895   0.0000000   2.9949793  )
        52           O   tau(  52) = (   0.5028891   0.0000000   2.9949793  )
        53           Cu  tau(  53) = (   0.5017844   0.0000000   3.2346638  )
        54           Cu  tau(  54) = (  -0.0017847   0.0000000   3.2346638  )
        55           O   tau(  55) = (   0.5008990   0.2387265   3.2678703  )
        56           O   tau(  56) = (  -0.0008994   0.2387265   3.2678703  )

     number of k points=    25  Gaussian smearing, width (Ry)=  0.0100
                       cart. coord. in units 2pi/alat
        k(    1) = (   0.0000000   0.0000000   0.0000000), wk =   0.0312500
        k(    2) = (   0.0000000   0.2618060   0.0000000), wk =   0.0625000
        k(    3) = (   0.0000000   0.5236121   0.0000000), wk =   0.0625000
        k(    4) = (   0.0000000   0.7854181   0.0000000), wk =   0.0625000
        k(    5) = (   0.0000000  -1.0472241   0.0000000), wk =   0.0312500
        k(    6) = (   0.1250000   0.0000000   0.0000000), wk =   0.0625000
        k(    7) = (   0.1250000   0.2618060   0.0000000), wk =   0.1250000
        k(    8) = (   0.1250000   0.5236121   0.0000000), wk =   0.1250000
        k(    9) = (   0.1250000   0.7854181   0.0000000), wk =   0.1250000
        k(   10) = (   0.1250000  -1.0472241   0.0000000), wk =   0.0625000
        k(   11) = (   0.2500000   0.0000000   0.0000000), wk =   0.0625000
        k(   12) = (   0.2500000   0.2618060   0.0000000), wk =   0.1250000
        k(   13) = (   0.2500000   0.5236121   0.0000000), wk =   0.1250000
        k(   14) = (   0.2500000   0.7854181   0.0000000), wk =   0.1250000
        k(   15) = (   0.2500000  -1.0472241   0.0000000), wk =   0.0625000
        k(   16) = (   0.3750000   0.0000000   0.0000000), wk =   0.0625000
        k(   17) = (   0.3750000   0.2618060   0.0000000), wk =   0.1250000
        k(   18) = (   0.3750000   0.5236121   0.0000000), wk =   0.1250000
        k(   19) = (   0.3750000   0.7854181   0.0000000), wk =   0.1250000
        k(   20) = (   0.3750000  -1.0472241   0.0000000), wk =   0.0625000
        k(   21) = (  -0.5000000   0.0000000   0.0000000), wk =   0.0312500
        k(   22) = (  -0.5000000   0.2618060   0.0000000), wk =   0.0625000
        k(   23) = (  -0.5000000   0.5236121   0.0000000), wk =   0.0625000
        k(   24) = (  -0.5000000   0.7854181   0.0000000), wk =   0.0625000
        k(   25) = (  -0.5000000  -1.0472241   0.0000000), wk =   0.0312500

     Dense  grid:  2973325 G-vectors     FFT dimensions: ( 128,  64, 750)

     Smooth grid:   572559 G-vectors     FFT dimensions: (  80,  36, 432)

     Estimated max dynamical RAM per process >     860.93 MB

     Estimated total dynamical RAM >      26.90 GB

     Initial potential from superposition of free atoms

     starting charge  455.69457, renormalised to  456.00000

     negative rho (up, down):  9.316E-02 0.000E+00
     Starting wfcs are  396 randomized atomic wfcs

     total cpu time spent up to now is       26.6 secs

     Self-consistent Calculation

     iteration #  1     ecut=    60.00 Ry     beta= 0.50
     Davidson diagonalization with overlap
     ethr =  1.00E-02,  avg # of iterations =  2.0

     negative rho (up, down):  8.605E-02 0.000E+00

     total cpu time spent up to now is       73.2 secs

     total energy              =   -3708.22808095 Ry
     Harris-Foulkes estimate   =   -3716.41650575 Ry
     estimated scf accuracy    <      31.25409547 Ry

     iteration #  2     ecut=    60.00 Ry     beta= 0.50
     Davidson diagonalization with overlap
     ethr =  6.85E-03,  avg # of iterations =  2.0

     negative rho (up, down):  8.580E-02 0.000E+00

     total cpu time spent up to now is      119.1 secs

     total energy              =   -3710.96363320 Ry
     Harris-Foulkes estimate   =   -3712.26895266 Ry
     estimated scf accuracy    <       6.55509175 Ry

     iteration #  3     ecut=    60.00 Ry     beta= 0.50
     Davidson diagonalization with overlap
     ethr =  1.44E-03,  avg # of iterations =  2.0

     negative rho (up, down):  8.617E-02 0.000E+00

     total cpu time spent up to now is      165.4 secs

     total energy              =   -3711.54558818 Ry
     Harris-Foulkes estimate   =   -3711.92570810 Ry
     estimated scf accuracy    <       9.97597791 Ry

     iteration #  4     ecut=    60.00 Ry     beta= 0.50
     Davidson diagonalization with overlap
     ethr =  1.44E-03,  avg # of iterations =  1.0

     negative rho (up, down):  8.693E-02 0.000E+00

     total cpu time spent up to now is      208.0 secs

     total energy              =   -3711.59784314 Ry
     Harris-Foulkes estimate   =   -3711.72260638 Ry
     estimated scf accuracy    <       2.40741682 Ry

     iteration #  5     ecut=    60.00 Ry     beta= 0.50
     Davidson diagonalization with overlap
     ethr =  5.28E-04,  avg # of iterations =  1.4

     negative rho (up, down):  8.797E-02 0.000E+00

     total cpu time spent up to now is      251.1 secs

     total energy              =   -3711.56372267 Ry
     Harris-Foulkes estimate   =   -3711.66090890 Ry
     estimated scf accuracy    <       1.88074679 Ry

     iteration #  6     ecut=    60.00 Ry     beta= 0.50
     Davidson diagonalization with overlap
     ethr =  4.12E-04,  avg # of iterations =  2.0

     negative rho (up, down):  8.925E-02 0.000E+00

     total cpu time spent up to now is      296.3 secs

     total energy              =   -3711.55444502 Ry
     Harris-Foulkes estimate   =   -3711.60251171 Ry
     estimated scf accuracy    <       1.24160864 Ry

     iteration #  7     ecut=    60.00 Ry     beta= 0.50
     Davidson diagonalization with overlap
     c_bands:  1 eigenvalues not converged
     ethr =  2.72E-04,  avg # of iterations =  6.8

     negative rho (up, down):  9.005E-02 0.000E+00

     total cpu time spent up to now is      355.6 secs

     total energy              =   -3711.55628143 Ry
     Harris-Foulkes estimate   =   -3711.57245027 Ry
     estimated scf accuracy    <       0.34290503 Ry

     iteration #  8     ecut=    60.00 Ry     beta= 0.50
     Davidson diagonalization with overlap
     ethr =  7.52E-05,  avg # of iterations =  9.0

     negative rho (up, down):  9.055E-02 0.000E+00

     total cpu time spent up to now is      425.5 secs

     total energy              =   -3711.55448491 Ry
     Harris-Foulkes estimate   =   -3711.56758018 Ry
     estimated scf accuracy    <       0.38495504 Ry

     iteration #  9     ecut=    60.00 Ry     beta= 0.50
     Davidson diagonalization with overlap
     ethr =  7.52E-05,  avg # of iterations =  1.1

     negative rho (up, down):  9.068E-02 0.000E+00

     total cpu time spent up to now is      467.8 secs

     total energy              =   -3711.55311099 Ry
     Harris-Foulkes estimate   =   -3711.55906824 Ry
     estimated scf accuracy    <       0.21233724 Ry

     iteration # 10     ecut=    60.00 Ry     beta= 0.50
     Davidson diagonalization with overlap
     ethr =  4.66E-05,  avg # of iterations =  1.3

     negative rho (up, down):  9.055E-02 0.000E+00

     total cpu time spent up to now is      510.4 secs

     total energy              =   -3711.54461295 Ry
     Harris-Foulkes estimate   =   -3711.55497682 Ry
     estimated scf accuracy    <       0.16309246 Ry

     iteration # 11     ecut=    60.00 Ry     beta= 0.50
     Davidson diagonalization with overlap
     ethr =  3.58E-05,  avg # of iterations =  7.0

     negative rho (up, down):  9.016E-02 0.000E+00

     total cpu time spent up to now is      570.0 secs

     total energy              =   -3711.54371493 Ry
     Harris-Foulkes estimate   =   -3711.54733207 Ry
     estimated scf accuracy    <       0.09943112 Ry

     iteration # 12     ecut=    60.00 Ry     beta= 0.50
     Davidson diagonalization with overlap
     ethr =  2.18E-05,  avg # of iterations =  5.4

     negative rho (up, down):  8.980E-02 0.000E+00

     total cpu time spent up to now is      624.7 secs

     total energy              =   -3711.54337302 Ry
     Harris-Foulkes estimate   =   -3711.54473746 Ry
     estimated scf accuracy    <       0.06829631 Ry

     iteration # 13     ecut=    60.00 Ry     beta= 0.50
     Davidson diagonalization with overlap
     ethr =  1.50E-05,  avg # of iterations =  2.4

     negative rho (up, down):  9.055E-02 0.000E+00

     total cpu time spent up to now is      670.7 secs

     total energy              =   -3711.54155702 Ry
     Harris-Foulkes estimate   =   -3711.54381195 Ry
     estimated scf accuracy    <       0.10783471 Ry

     iteration # 14     ecut=    60.00 Ry     beta= 0.50
     Davidson diagonalization with overlap
     ethr =  1.50E-05,  avg # of iterations =  2.7

     negative rho (up, down):  9.727E-02 0.000E+00

     total cpu time spent up to now is      717.3 secs

     total energy              =   -3711.54020300 Ry
     Harris-Foulkes estimate   =   -3711.54194864 Ry
     estimated scf accuracy    <       0.10291630 Ry

     iteration # 15     ecut=    60.00 Ry     beta= 0.50
     Davidson diagonalization with overlap
     ethr =  1.50E-05,  avg # of iterations =  5.5

     negative rho (up, down):  9.909E-02 0.000E+00

     total cpu time spent up to now is      771.2 secs

     total energy              =   -3711.53840341 Ry
     Harris-Foulkes estimate   =   -3711.54043751 Ry
     estimated scf accuracy    <       0.09434734 Ry

     iteration # 16     ecut=    60.00 Ry     beta= 0.50
     Davidson diagonalization with overlap
     ethr =  1.50E-05,  avg # of iterations =  3.1

     negative rho (up, down):  1.309E-01 0.000E+00

     total cpu time spent up to now is      818.6 secs

     total energy              =   -3711.53602299 Ry
     Harris-Foulkes estimate   =   -3711.53875512 Ry
     estimated scf accuracy    <       0.05339247 Ry

     iteration # 17     ecut=    60.00 Ry     beta= 0.50
     Davidson diagonalization with overlap
     ethr =  1.17E-05,  avg # of iterations =  8.9

     negative rho (up, down):  1.308E-01 0.000E+00

     total cpu time spent up to now is      888.6 secs

     total energy              =   -3711.53545361 Ry
     Harris-Foulkes estimate   =   -3711.53658867 Ry
     estimated scf accuracy    <       0.02289731 Ry

     iteration # 18     ecut=    60.00 Ry     beta= 0.50
     Davidson diagonalization with overlap
     ethr =  5.02E-06,  avg # of iterations =  8.8

     negative rho (up, down):  1.198E-01 0.000E+00

     total cpu time spent up to now is      954.5 secs

     total energy              =   -3711.53465330 Ry
     Harris-Foulkes estimate   =   -3711.53559366 Ry
     estimated scf accuracy    <       0.00800378 Ry

     iteration # 19     ecut=    60.00 Ry     beta= 0.50
     Davidson diagonalization with overlap
     c_bands:  1 eigenvalues not converged
     ethr =  1.76E-06,  avg # of iterations =  8.6

     negative rho (up, down):  1.128E-01 0.000E+00

     total cpu time spent up to now is     1019.7 secs

     total energy              =   -3711.53428100 Ry
     Harris-Foulkes estimate   =   -3711.53477542 Ry
     estimated scf accuracy    <       0.00562260 Ry

     iteration # 20     ecut=    60.00 Ry     beta= 0.50
     Davidson diagonalization with overlap
     ethr =  1.23E-06,  avg # of iterations =  6.4

     negative rho (up, down):  1.027E-01 0.000E+00

     total cpu time spent up to now is     1078.3 secs

     total energy              =   -3711.53410512 Ry
     Harris-Foulkes estimate   =   -3711.53436373 Ry
     estimated scf accuracy    <       0.00115858 Ry

     iteration # 21     ecut=    60.00 Ry     beta= 0.50
     Davidson diagonalization with overlap
     ethr =  2.54E-07,  avg # of iterations =  6.0

     negative rho (up, down):  9.775E-02 0.000E+00

     total cpu time spent up to now is     1135.4 secs

     total energy              =   -3711.53406106 Ry
     Harris-Foulkes estimate   =   -3711.53413343 Ry
     estimated scf accuracy    <       0.00082662 Ry

     iteration # 22     ecut=    60.00 Ry     beta= 0.50
     Davidson diagonalization with overlap
     c_bands:  1 eigenvalues not converged
     c_bands:  1 eigenvalues not converged
     c_bands:  1 eigenvalues not converged
     ethr =  1.81E-07,  avg # of iterations =  8.4

     negative rho (up, down):  9.164E-02 0.000E+00

     total cpu time spent up to now is     1198.2 secs

     total energy              =   -3711.53409405 Ry
     Harris-Foulkes estimate   =   -3711.53408457 Ry
     estimated scf accuracy    <       0.00040327 Ry

     iteration # 23     ecut=    60.00 Ry     beta= 0.50
     Davidson diagonalization with overlap
     c_bands:  1 eigenvalues not converged
     c_bands:  1 eigenvalues not converged
     c_bands:  1 eigenvalues not converged
     c_bands:  1 eigenvalues not converged
     ethr =  8.84E-08,  avg # of iterations = 12.0

     negative rho (up, down):  9.138E-02 0.000E+00

     total cpu time spent up to now is     1274.0 secs

     total energy              =   -3711.53412424 Ry
     Harris-Foulkes estimate   =   -3711.53410515 Ry
     estimated scf accuracy    <       0.00007597 Ry

     iteration # 24     ecut=    60.00 Ry     beta= 0.50
     Davidson diagonalization with overlap
     ethr =  1.67E-08,  avg # of iterations =  3.7

     negative rho (up, down):  9.133E-02 0.000E+00

     total cpu time spent up to now is     1323.3 secs

     total energy              =   -3711.53414579 Ry
     Harris-Foulkes estimate   =   -3711.53412827 Ry
     estimated scf accuracy    <       0.00005499 Ry

     iteration # 25     ecut=    60.00 Ry     beta= 0.50
     Davidson diagonalization with overlap
     c_bands:  1 eigenvalues not converged
     c_bands:  1 eigenvalues not converged
     ethr =  1.21E-08,  avg # of iterations =  5.9

     negative rho (up, down):  9.146E-02 0.000E+00

     total cpu time spent up to now is     1378.8 secs

     total energy              =   -3711.53414721 Ry
     Harris-Foulkes estimate   =   -3711.53414774 Ry
     estimated scf accuracy    <       0.00001665 Ry

     iteration # 26     ecut=    60.00 Ry     beta= 0.50
     Davidson diagonalization with overlap
     ethr =  3.65E-09,  avg # of iterations =  1.9

     negative rho (up, down):  9.167E-02 0.000E+00

     total cpu time spent up to now is     1423.5 secs

     total energy              =   -3711.53414743 Ry
     Harris-Foulkes estimate   =   -3711.53414804 Ry
     estimated scf accuracy    <       0.00000969 Ry

     iteration # 27     ecut=    60.00 Ry     beta= 0.50
     Davidson diagonalization with overlap
     ethr =  2.13E-09,  avg # of iterations =  1.4

     negative rho (up, down):  9.177E-02 0.000E+00

     total cpu time spent up to now is     1466.3 secs

     total energy              =   -3711.53414762 Ry
     Harris-Foulkes estimate   =   -3711.53414776 Ry
     estimated scf accuracy    <       0.00000454 Ry

     iteration # 28     ecut=    60.00 Ry     beta= 0.50
     Davidson diagonalization with overlap
     ethr =  9.95E-10,  avg # of iterations =  1.7

     negative rho (up, down):  9.192E-02 0.000E+00

     total cpu time spent up to now is     1510.1 secs

     total energy              =   -3711.53414739 Ry
     Harris-Foulkes estimate   =   -3711.53414779 Ry
     estimated scf accuracy    <       0.00000150 Ry

     iteration # 29     ecut=    60.00 Ry     beta= 0.50
     Davidson diagonalization with overlap
     ethr =  3.30E-10,  avg # of iterations =  3.0

     negative rho (up, down):  9.194E-02 0.000E+00

     total cpu time spent up to now is     1558.1 secs

     total energy              =   -3711.53414743 Ry
     Harris-Foulkes estimate   =   -3711.53414746 Ry
     estimated scf accuracy    <       0.00000060 Ry

     iteration # 30     ecut=    60.00 Ry     beta= 0.50
     Davidson diagonalization with overlap
     ethr =  1.32E-10,  avg # of iterations =  1.7

     negative rho (up, down):  9.198E-02 0.000E+00

     total cpu time spent up to now is     1602.3 secs

     total energy              =   -3711.53414737 Ry
     Harris-Foulkes estimate   =   -3711.53414745 Ry
     estimated scf accuracy    <       0.00000013 Ry

     iteration # 31     ecut=    60.00 Ry     beta= 0.50
     Davidson diagonalization with overlap
     ethr =  2.84E-11,  avg # of iterations =  3.2

     negative rho (up, down):  9.197E-02 0.000E+00

     total cpu time spent up to now is     1652.4 secs

     total energy              =   -3711.53414740 Ry
     Harris-Foulkes estimate   =   -3711.53414738 Ry
     estimated scf accuracy    <       0.00000021 Ry

     iteration # 32     ecut=    60.00 Ry     beta= 0.50
     Davidson diagonalization with overlap
     ethr =  2.84E-11,  avg # of iterations =  1.0

     negative rho (up, down):  9.198E-02 0.000E+00

     total cpu time spent up to now is     1694.9 secs

     total energy              =   -3711.53414738 Ry
     Harris-Foulkes estimate   =   -3711.53414741 Ry
     estimated scf accuracy    <       0.00000004 Ry

     iteration # 33     ecut=    60.00 Ry     beta= 0.50
     Davidson diagonalization with overlap
     ethr =  9.37E-12,  avg # of iterations =  1.4

     negative rho (up, down):  9.199E-02 0.000E+00

     total cpu time spent up to now is     1738.3 secs

     total energy              =   -3711.53414738 Ry
     Harris-Foulkes estimate   =   -3711.53414738 Ry
     estimated scf accuracy    <       0.00000001 Ry

     iteration # 34     ecut=    60.00 Ry     beta= 0.50
     Davidson diagonalization with overlap
     ethr =  3.02E-12,  avg # of iterations =  2.2

     negative rho (up, down):  9.198E-02 0.000E+00

     total cpu time spent up to now is     1783.9 secs

     total energy              =   -3711.53414739 Ry
     Harris-Foulkes estimate   =   -3711.53414738 Ry
     estimated scf accuracy    <       0.00000001 Ry

     iteration # 35     ecut=    60.00 Ry     beta= 0.50
     Davidson diagonalization with overlap
     ethr =  2.30E-12,  avg # of iterations =  1.1

     negative rho (up, down):  9.200E-02 0.000E+00

     total cpu time spent up to now is     1825.4 secs

     End of self-consistent calculation

          k = 0.0000 0.0000 0.0000 ( 71619 PWs)   bands (ev):

   -38.3176 -38.2559 -35.9521 -35.8821 -23.0631 -23.0526 -23.0261 -22.9348
   -22.9243 -22.9079 -22.7425 -22.5007 -18.7908 -18.7378 -18.6905 -18.6304
   -18.3216 -18.2587 -17.2982 -17.2309 -17.1647 -17.0987 -16.9834 -16.9102
   -15.6951 -15.6543 -15.2368 -15.2182 -15.0246 -14.9084 -14.8529 -14.8433
   -14.8000 -14.7691 -14.7108 -14.7010 -14.6896 -14.6792 -14.5586 -14.5465
   -14.3812 -14.3393 -14.2690 -14.2385 -14.2302 -14.2279 -14.2228 -14.2134
   -14.1844 -14.1118 -14.0440 -13.9872 -13.1056 -12.6393  -8.3496  -8.3020
    -8.2869  -8.1944  -8.1814  -8.1457  -8.1122  -8.1023  -8.0136  -7.9742
    -7.9640  -7.9184  -7.8841  -7.8776  -7.8677  -7.7977  -7.7930  -7.7546
    -7.7420  -7.7363  -7.7260  -7.5606  -7.3441  -7.2409  -3.2416  -3.2190
    -3.1272  -3.0325  -2.4163  -2.4103  -2.3275  -2.3274  -2.3231  -2.2918
    -2.1809  -2.1310  -2.1217  -2.0958  -2.0902  -2.0645  -2.0302  -2.0193
    -1.9628  -1.9270  -1.9196  -1.8672  -1.8135  -1.7590  -1.6207  -1.5926
    -1.4339  -1.3851  -1.3734  -1.3469  -1.2845  -1.2120  -1.1820  -1.1675
    -1.1617  -1.1602  -1.1534  -1.1512  -1.1285  -1.1272  -1.0637  -0.9913
    -0.9366  -0.9297  -0.6871  -0.6462  -0.5743  -0.5108  -0.4998  -0.4907
    -0.4896  -0.4793  -0.4636  -0.4455  -0.4338  -0.4142  -0.3781  -0.3734
    -0.3717  -0.3714  -0.3575  -0.3193  -0.2905  -0.2201  -0.1969  -0.1858
    -0.1854  -0.1777  -0.1636  -0.1362  -0.1143  -0.1006  -0.0929  -0.0680
    -0.0655  -0.0650  -0.0621   0.0017   0.0333   0.0407   0.0560   0.0728
     0.0800   0.0829   0.1226   0.1562   0.1673   0.1836   0.2355   0.2785
     0.3122   0.3261   0.3426   0.3437   0.3530   0.3673   0.3717   0.3735
     0.5322   0.5608   0.6286   0.6835   0.7071   0.7440   0.7962   0.8080
     0.8207   0.8420   0.8469   0.8818   0.9574   0.9914   1.0040   1.0251
     1.0291   1.0339   1.0345   1.0374   1.1163   1.1400   1.1510   1.1855
     1.1888   1.1967   1.2120   1.2399   1.2714   1.2959   1.3623   1.4141
     1.4248   1.4572   1.5262   1.5331   1.5332   1.5989   1.5989   1.6061
     1.6312   1.6586   1.6711   1.7181   1.7586   1.8676   1.8803   1.9389
     2.0395   2.0460   2.1655   2.2121   2.2143   2.2899   2.3024   2.3931
     2.3988   2.4240   2.4306   2.4725   2.6714   2.7228   4.7822   5.0462
     5.0638   5.7106   5.8080   6.4079   6.4395   6.5292   6.6947   6.7500
     6.8336   7.0866   7.0972   7.1835   7.1906   7.3279   7.3818   7.7183
     7.8555   7.9045   7.9431   7.9635   8.0209   8.2372   8.2575   8.2957
     8.2970   8.3912   8.4246   8.4887   8.7745   8.8998   8.9264   8.9607
     8.9863   9.1102

          k = 0.0000 0.2618 0.0000 ( 71587 PWs)   bands (ev):

   -38.3149 -38.2533 -35.9504 -35.8804 -23.0386 -23.0281 -23.0072 -22.9157
   -22.9052 -22.8841 -22.7235 -22.4802 -18.7522 -18.6990 -18.6833 -18.6231
   -18.4323 -18.3700 -17.2688 -17.2014 -17.1603 -17.0944 -17.0493 -16.9763
   -15.5889 -15.5485 -15.1810 -15.1624 -14.9696 -14.8703 -14.8390 -14.8086
   -14.7960 -14.6988 -14.6808 -14.6791 -14.6487 -14.6249 -14.5242 -14.5114
   -14.3760 -14.3352 -14.3298 -14.2851 -14.2483 -14.2176 -14.2163 -14.2132
   -14.2056 -14.1484 -14.0358 -14.0271 -13.0587 -12.7037  -8.3397  -8.2952
    -8.2820  -8.2068  -8.1948  -8.1579  -8.0686  -8.0587  -8.0173  -8.0095
    -8.0064  -8.0047  -7.9996  -7.9434  -7.9332  -7.9137  -7.8963  -7.8782
    -7.8391  -7.8219  -7.7853  -7.7715  -7.4277  -7.3616  -3.3517  -3.3162
    -3.1812  -3.0878  -2.5431  -2.5297  -2.5073  -2.4371  -2.4298  -2.4232
    -2.3058  -2.2993  -2.2889  -2.2423  -2.1770  -2.1214  -2.0581  -2.0316
    -1.9751  -1.9568  -1.9281  -1.8988  -1.8672  -1.8483  -1.7418  -1.6945
    -1.6914  -1.6794  -1.6112  -1.6023  -1.5989  -1.5777  -1.5756  -1.5659
    -1.5328  -1.4555  -1.2531  -1.1005  -1.0697  -1.0284  -0.9612  -0.9469
    -0.8981  -0.8272  -0.8144  -0.8094  -0.7476  -0.7425  -0.5890  -0.5825
    -0.5598  -0.5373  -0.5235  -0.5123  -0.5015  -0.4880  -0.4395  -0.4155
    -0.4122  -0.3984  -0.3353  -0.3291  -0.2457  -0.2238  -0.2074  -0.1784
    -0.1708  -0.1209  -0.0932  -0.0893  -0.0835  -0.0444  -0.0423  -0.0291
    -0.0255  -0.0030   0.0016   0.0022   0.0432   0.0968   0.0975   0.1026
     0.1364   0.1396   0.1517   0.1886   0.2002   0.2121   0.2239   0.2422
     0.2487   0.2631   0.2834   0.2995   0.4344   0.4763   0.4839   0.5404
     0.5551   0.5783   0.6432   0.6624   0.7473   0.7660   0.7801   0.8174
     0.8766   0.9438   0.9618   0.9830   1.0037   1.0110   1.0205   1.0370
     1.0839   1.0924   1.1152   1.1232   1.1461   1.1728   1.2003   1.2139
     1.2767   1.2959   1.3121   1.3185   1.3379   1.3452   1.3597   1.4798
     1.4798   1.4960   1.5401   1.5494   1.5556   1.5737   1.6100   1.6470
     1.6474   1.6570   1.6827   1.7272   1.7354   1.8088   1.8665   1.9184
     2.1577   2.1822   2.4276   2.4407   2.5298   2.6003   2.6246   2.6470
     2.6944   2.7032   2.7442   2.7710   2.9546   2.9820   5.0695   5.4238
     5.4333   5.9864   6.0684   6.6992   6.7439   6.7623   6.8431   6.9224
     6.9316   7.0341   7.0373   7.3755   7.4202   7.5291   7.5599   7.5938
     7.5981   7.8792   8.0322   8.1332   8.1944   8.3779   8.4606   8.4815
     8.4970   8.5429   8.6013   8.6959   8.8967   8.9625   8.9913   9.1070
     9.1260   9.1298

          k = 0.0000 0.5236 0.0000 ( 71479 PWs)   bands (ev):

   -38.3084 -38.2467 -35.9463 -35.8763 -22.9781 -22.9675 -22.9609 -22.8689
   -22.8584 -22.8256 -22.6769 -22.4298 -18.6731 -18.6658 -18.6519 -18.6117
   -18.6055 -18.5983 -17.2027 -17.1852 -17.1499 -17.1302 -17.1175 -17.0839
   -15.3474 -15.3093 -15.0343 -15.0152 -14.8898 -14.8520 -14.8345 -14.7777
   -14.7104 -14.6849 -14.6737 -14.5983 -14.4812 -14.4756 -14.4576 -14.4406
   -14.4258 -14.4004 -14.3496 -14.3265 -14.3186 -14.2253 -14.2038 -14.1908
   -14.1653 -14.1543 -14.1022 -14.0303 -12.9387 -12.8550  -8.4818  -8.4715
    -8.3220  -8.3188  -8.3122  -8.3089  -8.2584  -8.2465  -8.1946  -8.1876
    -8.1763  -8.1544  -8.1287  -8.0808  -8.0706  -8.0419  -7.9779  -7.9518
    -7.9417  -7.9164  -7.8110  -7.7486  -7.5233  -7.5088  -3.7574  -3.7043
    -3.4188  -3.3303  -3.0393  -3.0163  -2.8952  -2.8315  -2.6578  -2.6451
    -2.5688  -2.5231  -2.4633  -2.4585  -2.4565  -2.4227  -2.4157  -2.3404
    -2.2785  -2.2710  -2.2682  -2.2606  -2.1909  -2.1512  -2.0547  -2.0089
    -1.9914  -1.9718  -1.9072  -1.8571  -1.8376  -1.8340  -1.7850  -1.7834
    -1.4498  -1.3997  -1.3233  -1.1989  -1.1844  -1.1568  -1.1076  -1.0647
    -1.0303  -1.0203  -0.9967  -0.9847  -0.8505  -0.8406  -0.8396  -0.8062
    -0.7659  -0.7581  -0.7580  -0.7383  -0.7011  -0.6932  -0.6580  -0.6268
    -0.6171  -0.5825  -0.5651  -0.5300  -0.5223  -0.4662  -0.4550  -0.4509
    -0.3838  -0.2876  -0.2674  -0.2299  -0.1694  -0.1291  -0.0720  -0.0605
     0.0190   0.0208   0.0493   0.0775   0.1194   0.1250   0.1284   0.1623
     0.2106   0.2147   0.2286   0.3102   0.4101   0.4463   0.4590   0.4776
     0.5751   0.6319   0.6340   0.6519   0.6599   0.8238   0.8528   0.8614
     0.8688   0.8824   0.8866   0.9154   0.9870   1.0185   1.0566   1.0688
     1.0803   1.0824   1.0865   1.1111   1.1128   1.1747   1.1885   1.1936
     1.2110   1.2366   1.2405   1.2658   1.2806   1.2935   1.3050   1.3741
     1.3970   1.4357   1.4743   1.4890   1.4894   1.5119   1.5319   1.5532
     1.6211   1.6217   1.6282   1.6310   1.6582   1.6831   1.6836   1.7341
     1.7453   1.7858   1.8130   1.8622   1.8900   1.8987   1.9817   1.9857
     2.0493   2.0662   2.3738   2.5527   2.8444   2.8524   2.9112   2.9465
     2.9521   2.9644   3.6123   3.6335   3.7000   3.7307   5.5804   6.3230
     6.3308   6.4391   6.4491   6.6626   6.7451   6.7771   6.8546   6.9313
     7.5810   7.5943   7.6230   7.6508   7.9153   7.9391   8.0691   8.2326
     8.2473   8.2938   8.4068   8.4448   8.4554   8.5154   8.5430   8.6215
     8.6991   8.7407   8.7969   8.9094   8.9449   9.0923   9.1294   9.2003
     9.2433   9.2452

          k = 0.0000 0.7854 0.0000 ( 71458 PWs)   bands (ev):

   -38.3019 -38.2402 -35.9422 -35.8722 -22.9157 -22.9137 -22.9051 -22.8209
   -22.8105 -22.7655 -22.6291 -22.3780 -18.8811 -18.8201 -18.6483 -18.5879
   -18.5469 -18.4929 -17.3242 -17.2512 -17.1396 -17.1125 -17.0735 -17.0454
   -15.1147 -15.0927 -15.0064 -14.9551 -14.8606 -14.8383 -14.7974 -14.7397
   -14.7112 -14.6908 -14.6357 -14.5191 -14.5044 -14.5025 -14.3869 -14.3614
   -14.3568 -14.3423 -14.3131 -14.2957 -14.2845 -14.2141 -14.1527 -14.1465
   -14.1383 -14.1193 -14.1077 -14.0670 -12.9984 -12.8071  -8.8768  -8.8665
    -8.6950  -8.6172  -8.6072  -8.5410  -8.4147  -8.3029  -8.2970  -8.2622
    -8.2494  -8.1940  -8.1814  -8.1688  -8.1500  -8.1398  -8.0221  -7.9301
    -7.8351  -7.8307  -7.8205  -7.6360  -7.6000  -7.4709  -4.2436  -4.1908
    -3.8224  -3.7402  -3.4417  -3.4229  -3.2604  -3.1915  -3.0379  -3.0287
    -3.0081  -2.9716  -2.9623  -2.9058  -2.7963  -2.7888  -2.6983  -2.6432
    -2.5586  -2.5163  -2.3854  -2.3806  -2.3184  -2.3140  -2.0996  -2.0467
    -2.0227  -2.0153  -2.0150  -1.9693  -1.8743  -1.8410  -1.7064  -1.6746
    -1.6559  -1.4221  -1.4208  -1.3818  -1.3336  -1.2731  -1.2635  -1.2227
    -1.2016  -1.1898  -1.1505  -1.1440  -1.1117  -1.0659  -1.0636  -0.9909
    -0.9795  -0.9685  -0.9575  -0.9218  -0.9126  -0.9051  -0.9012  -0.8804
    -0.8011  -0.7791  -0.7764  -0.7711  -0.7518  -0.7206  -0.6082  -0.3900
    -0.3820  -0.3188  -0.2749  -0.2657  -0.2455  -0.1823  -0.1784  -0.0033
     0.0195   0.0416   0.0544   0.0588   0.0899   0.1267   0.1329   0.1452
     0.2930   0.3186   0.3541   0.3965   0.6132   0.6212   0.6918   0.7324
     0.7841   0.8259   0.8641   0.8728   0.8846   0.8920   0.9886   1.0354
     1.0435   1.0796   1.0976   1.1028   1.1150   1.1432   1.1516   1.1955
     1.2010   1.2159   1.2539   1.2939   1.3607   1.3938   1.3974   1.4076
     1.4314   1.5033   1.5146   1.5171   1.5201   1.5490   1.5516   1.5697
     1.5783   1.6209   1.6255   1.6450   1.6591   1.6607   1.6944   1.7009
     1.7234   1.7556   1.7673   1.8034   1.8246   1.8271   1.8440   1.9493
     1.9817   2.0215   2.0685   2.0717   2.0788   2.0817   2.2014   2.2942
     2.3032   2.3937   2.3993   2.5032   2.7078   2.7684   2.7862   2.8677
     2.8962   2.9429   4.2413   4.2724   4.3117   4.3285   5.6930   5.9106
     5.9177   6.4971   6.5952   7.0178   7.2460   7.2580   7.5710   7.6300
     7.9994   8.0120   8.2067   8.2203   8.2945   8.3730   8.3888   8.5217
     8.5701   8.5813   8.6598   8.6818   8.7008   8.7904   8.8349   8.9358
     8.9906   9.0165   9.0756   9.0885   9.1551   9.2195   9.2341   9.3577
     9.3894   9.4391

          k = 0.0000-1.0472 0.0000 ( 71594 PWs)   bands (ev):

   -38.2992 -38.2375 -35.9405 -35.8705 -22.8939 -22.8893 -22.8787 -22.8007
   -22.7903 -22.7402 -22.6089 -22.3562 -18.9617 -18.9008 -18.6411 -18.5807
   -18.4998 -18.4455 -17.3746 -17.3016 -17.1353 -17.0769 -17.0692 -17.0098
   -15.1161 -15.0922 -14.9385 -14.9058 -14.8747 -14.7983 -14.7715 -14.7415
   -14.6931 -14.6724 -14.6687 -14.5200 -14.5021 -14.4075 -14.3676 -14.3600
   -14.3539 -14.3127 -14.3107 -14.2884 -14.2163 -14.1628 -14.1507 -14.1204
   -14.1204 -14.1084 -14.1017 -14.0897 -13.0550 -12.7485  -9.0301  -9.0198
    -8.8490  -8.7359  -8.7259  -8.6788  -8.5197  -8.4247  -8.2916  -8.2683
    -8.2523  -8.1895  -8.1775  -8.1762  -8.1748  -8.1674  -8.0511  -7.9218
    -7.8453  -7.7781  -7.7679  -7.6220  -7.5867  -7.4414  -4.4453  -4.3937
    -4.0087  -3.9281  -3.5959  -3.5794  -3.4103  -3.3370  -3.2726  -3.2626
    -3.2168  -3.2017  -3.1923  -3.1223  -2.8249  -2.8174  -2.7191  -2.6840
    -2.6606  -2.6419  -2.4075  -2.4031  -2.3055  -2.3013  -2.1608  -2.1154
    -2.1105  -2.0712  -2.0326  -1.9879  -1.8015  -1.7871  -1.7579  -1.5469
    -1.5223  -1.4964  -1.4961  -1.4881  -1.4168  -1.3789  -1.3755  -1.3264
    -1.2589  -1.2567  -1.2298  -1.2242  -1.2239  -1.2156  -1.0989  -1.0742
    -1.0719  -1.0470  -1.0213  -1.0190  -1.0106  -1.0012  -0.9861  -0.9744
    -0.8744  -0.8719  -0.8681  -0.8601  -0.7213  -0.7199  -0.6578  -0.3539
    -0.3459  -0.2913  -0.2889  -0.2712  -0.2676  -0.2380  -0.2043  -0.1589
     0.0140   0.0347   0.0491   0.0831   0.0992   0.1129   0.1265   0.1526
     0.3230   0.3705   0.4131   0.4188   0.6891   0.6956   0.7148   0.8000
     0.8462   0.8795   0.8812   0.9058   0.9954   1.0011   1.0041   1.0566
     1.0588   1.1069   1.1624   1.1759   1.1826   1.1934   1.1941   1.2024
     1.2140   1.2471   1.2713   1.2820   1.4278   1.4475   1.4755   1.4842
     1.5267   1.5542   1.5580   1.5743   1.6099   1.6525   1.7061   1.7152
     1.7194   1.7458   1.7475   1.7508   1.7781   1.7899   1.8033   1.8085
     1.8401   1.9211   1.9552   1.9580   1.9891   2.0114   2.0290   2.0408
     2.0509   2.0529   2.1591   2.2429   2.2734   2.2821   2.3006   2.3714
     2.4576   2.4666   2.4694   2.5334   2.5526   2.5632   2.6171   2.7128
     2.7607   2.8425   4.4375   4.4717   4.5319   4.5461   5.6187   5.6712
     5.6785   6.3763   6.4871   7.4549   7.6481   7.6577   7.8277   7.9698
     7.9853   8.1586   8.1588   8.1766   8.2247   8.3731   8.6122   8.6200
     8.6453   8.6885   8.7085   8.7852   8.9085   8.9463   8.9657   8.9906
     9.0178   9.0579   9.0681   9.1610   9.1732   9.2726   9.3500   9.3919
     9.5564   9.5793

          k = 0.1250 0.0000 0.0000 ( 71575 PWs)   bands (ev):

   -38.3176 -38.2559 -35.9521 -35.8821 -23.0587 -23.0482 -23.0255 -22.9396
   -22.9291 -22.9047 -22.7459 -22.5016 -18.7901 -18.7371 -18.6873 -18.6271
   -18.3216 -18.2587 -17.3012 -17.2339 -17.1766 -17.1110 -16.9834 -16.9102
   -15.6675 -15.6266 -15.2211 -15.2035 -15.0164 -14.9001 -14.8602 -14.8370
   -14.8120 -14.8090 -14.7592 -14.7100 -14.6975 -14.6871 -14.5358 -14.5148
   -14.3732 -14.3330 -14.2707 -14.2399 -14.2322 -14.2307 -14.2240 -14.2150
   -14.1900 -14.1158 -14.0491 -13.9867 -13.0894 -12.6584  -8.3498  -8.3042
    -8.2892  -8.1985  -8.1858  -8.1502  -8.0984  -8.0885  -8.0264  -7.9659
    -7.9557  -7.8998  -7.8854  -7.8842  -7.8743  -7.7910  -7.7855  -7.7525
    -7.7456  -7.7427  -7.7353  -7.5691  -7.3478  -7.2437  -3.2069  -3.1841
    -3.0940  -2.9991  -2.4128  -2.4063  -2.3469  -2.3416  -2.3236  -2.2881
    -2.2108  -2.1455  -2.1289  -2.1069  -2.0937  -2.0713  -2.0465  -2.0282
    -1.9708  -1.9384  -1.9343  -1.9072  -1.7950  -1.7392  -1.6620  -1.6320
    -1.4066  -1.3691  -1.3258  -1.2928  -1.2856  -1.2123  -1.2046  -1.1604
    -1.1590  -1.1510  -1.1506  -1.1500  -1.1420  -1.1023  -1.0235  -0.9434
    -0.9166  -0.9098  -0.6650  -0.6408  -0.5829  -0.5666  -0.5405  -0.5092
    -0.4828  -0.4705  -0.4578  -0.4506  -0.4299  -0.4272  -0.4248  -0.4001
    -0.3919  -0.3907  -0.3821  -0.3549  -0.3504  -0.2281  -0.2020  -0.1930
    -0.1861  -0.1833  -0.1678  -0.1570  -0.1383  -0.1051  -0.0581  -0.0408
    -0.0340  -0.0233  -0.0195  -0.0143   0.0350   0.0424   0.0472   0.0713
     0.0790   0.1173   0.1353   0.1703   0.1901   0.1906   0.2375   0.2896
     0.3136   0.3326   0.3369   0.3390   0.3527   0.3767   0.3789   0.3836
     0.5171   0.5388   0.6275   0.6907   0.7001   0.7147   0.7481   0.7525
     0.8222   0.8443   0.8744   0.8868   0.9195   0.9524   0.9545   0.9867
     0.9890   1.0182   1.0422   1.0569   1.0759   1.0836   1.1707   1.1975
     1.2020   1.2431   1.2554   1.2717   1.2945   1.3219   1.3540   1.4035
     1.4649   1.5139   1.5408   1.5463   1.5468   1.5979   1.6105   1.6325
     1.6350   1.6404   1.6764   1.7344   1.7542   1.8541   1.8676   1.9248
     2.0288   2.0379   2.1752   2.2144   2.2195   2.2536   2.3133   2.3710
     2.4003   2.4302   2.4321   2.4754   2.6659   2.7175   4.8276   5.0947
     5.1088   5.7615   5.8547   6.3824   6.4701   6.4978   6.5898   6.7239
     6.7313   6.7681   7.1611   7.3154   7.3835   7.5517   7.5601   7.6914
     7.8166   7.9057   7.9546   7.9647   8.0427   8.1993   8.2344   8.3153
     8.3606   8.4262   8.4580   8.5035   8.6876   8.8601   8.9409   8.9536
     9.0176   9.0981

          k = 0.1250 0.2618 0.0000 ( 71547 PWs)   bands (ev):

   -38.3149 -38.2533 -35.9504 -35.8804 -23.0343 -23.0238 -23.0066 -22.9202
   -22.9098 -22.8811 -22.7267 -22.4810 -18.7515 -18.6983 -18.6801 -18.6198
   -18.4323 -18.3700 -17.2716 -17.2043 -17.1717 -17.1061 -17.0492 -16.9762
   -15.5621 -15.5216 -15.1671 -15.1495 -14.9628 -14.8628 -14.8456 -14.8023
   -14.8018 -14.7282 -14.7006 -14.6866 -14.6842 -14.6567 -14.4977 -14.4737
   -14.3689 -14.3308 -14.3301 -14.2878 -14.2528 -14.2201 -14.2181 -14.2132
   -14.2074 -14.1512 -14.0491 -14.0167 -13.0458 -12.7176  -8.3396  -8.2971
    -8.2841  -8.2126  -8.2009  -8.1621  -8.1246  -8.1145  -8.0519  -8.0419
    -8.0184  -7.9539  -7.9438  -7.9368  -7.9111  -7.8970  -7.8917  -7.8867
    -7.8862  -7.7853  -7.7583  -7.7401  -7.4154  -7.3497  -3.3159  -3.2800
    -3.1454  -3.0521  -2.5524  -2.5380  -2.5098  -2.4388  -2.4221  -2.4148
    -2.3164  -2.3070  -2.2898  -2.2464  -2.1934  -2.1379  -2.0767  -2.0379
    -1.9885  -1.9860  -1.9801  -1.9362  -1.8910  -1.8370  -1.7280  -1.6906
    -1.6775  -1.6762  -1.6039  -1.5940  -1.5808  -1.5709  -1.5683  -1.5465
    -1.5104  -1.4324  -1.2461  -1.0999  -1.0839  -1.0384  -0.9489  -0.9299
    -0.8816  -0.8588  -0.8219  -0.8143  -0.7714  -0.7660  -0.6370  -0.6172
    -0.5662  -0.5530  -0.5509  -0.5309  -0.5273  -0.5009  -0.4817  -0.4268
    -0.3613  -0.3574  -0.3161  -0.3150  -0.2512  -0.2256  -0.2007  -0.1823
    -0.1749  -0.1416  -0.1125  -0.0991  -0.0953  -0.0628  -0.0365  -0.0260
    -0.0196  -0.0129   0.0170   0.0180   0.0511   0.0845   0.0981   0.1096
     0.1167   0.1517   0.1680   0.1981   0.2025   0.2126   0.2240   0.2329
     0.2725   0.2777   0.3001   0.3073   0.4487   0.4568   0.4634   0.5351
     0.5658   0.5801   0.6573   0.6786   0.7382   0.7603   0.7921   0.8484
     0.8847   0.9043   0.9311   0.9790   1.0033   1.0149   1.0253   1.0351
     1.0448   1.0880   1.0926   1.1058   1.1192   1.1729   1.2031   1.2167
     1.2188   1.2256   1.3046   1.3209   1.3399   1.3966   1.4183   1.4704
     1.4795   1.5211   1.5282   1.5322   1.5412   1.5738   1.5928   1.6066
     1.6126   1.6501   1.6755   1.7701   1.8093   1.9143   1.9695   2.0085
     2.0193   2.2973   2.4282   2.4515   2.5314   2.5971   2.6226   2.6465
     2.6957   2.7050   2.7432   2.7702   2.9466   2.9741   5.1010   5.4607
     5.4698   6.0263   6.1063   6.4939   6.7562   6.7643   6.7893   6.8179
     6.8871   7.0928   7.2687   7.3916   7.4503   7.5253   7.5849   7.6941
     7.7229   7.9025   8.0387   8.1345   8.2169   8.3489   8.3876   8.4696
     8.5271   8.5861   8.6334   8.7288   8.8748   8.9105   8.9809   9.0261
     9.0470   9.1258

          k = 0.1250 0.5236 0.0000 ( 71480 PWs)   bands (ev):

   -38.3084 -38.2467 -35.9463 -35.8763 -22.9743 -22.9638 -22.9604 -22.8728
   -22.8624 -22.8231 -22.6796 -22.4304 -18.6731 -18.6626 -18.6513 -18.6116
   -18.6023 -18.5977 -17.2040 -17.1864 -17.1600 -17.1321 -17.1182 -17.0941
   -15.3225 -15.2845 -15.0257 -15.0078 -14.8879 -14.8502 -14.8317 -14.7719
   -14.7107 -14.6840 -14.6739 -14.6006 -14.5367 -14.5153 -14.4829 -14.4354
   -14.4023 -14.3631 -14.3486 -14.3291 -14.3210 -14.2227 -14.2024 -14.1891
   -14.1669 -14.1558 -14.1019 -14.0312 -12.9350 -12.8575  -8.5155  -8.5053
    -8.3378  -8.3187  -8.2773  -8.2665  -8.2457  -8.2347  -8.2131  -8.1937
    -8.1829  -8.1501  -8.1449  -8.1389  -8.0844  -8.0350  -7.9952  -7.9597
    -7.8997  -7.8897  -7.8128  -7.7124  -7.5709  -7.4491  -3.7219  -3.6688
    -3.3816  -3.2932  -3.0499  -3.0254  -2.8974  -2.8338  -2.6521  -2.6397
    -2.5671  -2.5207  -2.4645  -2.4577  -2.4550  -2.4223  -2.4152  -2.3433
    -2.2792  -2.2716  -2.2672  -2.2597  -2.1582  -2.1184  -2.0733  -2.0394
    -2.0108  -1.9879  -1.9069  -1.8809  -1.8648  -1.8333  -1.8225  -1.7735
    -1.4556  -1.4069  -1.3335  -1.2065  -1.1971  -1.1619  -1.1161  -1.0898
    -1.0455  -1.0226  -0.9884  -0.9591  -0.9111  -0.8978  -0.8896  -0.8346
    -0.8263  -0.7878  -0.7557  -0.7222  -0.7011  -0.6867  -0.6823  -0.6362
    -0.6232  -0.5769  -0.5509  -0.5194  -0.5179  -0.4684  -0.4471  -0.4432
    -0.3831  -0.2883  -0.2667  -0.2244  -0.1243  -0.0910  -0.0743  -0.0511
    -0.0194  -0.0130   0.0509   0.0629   0.0968   0.1294   0.1356   0.1549
     0.2285   0.2514   0.2524   0.3079   0.4411   0.4571   0.4637   0.4948
     0.5644   0.6288   0.6485   0.6677   0.6733   0.7971   0.8459   0.8608
     0.8745   0.8954   0.9016   0.9250   0.9629   0.9790   1.0142   1.0265
     1.0454   1.0836   1.0913   1.1368   1.1436   1.1601   1.1730   1.1809
     1.2168   1.2331   1.2396   1.2665   1.2876   1.3011   1.3351   1.3691
     1.3860   1.4268   1.4509   1.4556   1.4960   1.5169   1.5462   1.5523
     1.5703   1.6013   1.6220   1.6411   1.6493   1.6512   1.6601   1.7330
     1.7364   1.8003   1.8551   1.8799   1.8900   1.9716   2.0549   2.1246
     2.1696   2.1905   2.3830   2.5686   2.8419   2.8554   2.9121   2.9475
     2.9501   2.9676   3.5796   3.6012   3.6721   3.7030   5.5983   6.3385
     6.3463   6.4459   6.4567   6.6494   6.7453   6.7961   6.8857   6.9543
     7.5928   7.6333   7.6707   7.6950   7.9395   7.9720   8.0469   8.2172
     8.2312   8.3195   8.3284   8.3884   8.4434   8.5343   8.5499   8.6256
     8.7075   8.7652   8.8124   8.9128   8.9351   9.0911   9.1414   9.1881
     9.2189   9.2250

          k = 0.1250 0.7854 0.0000 ( 71486 PWs)   bands (ev):

   -38.3019 -38.2402 -35.9422 -35.8722 -22.9133 -22.9125 -22.9019 -22.8242
   -22.8138 -22.7635 -22.6313 -22.3785 -18.8811 -18.8201 -18.6453 -18.5849
   -18.5464 -18.4923 -17.3242 -17.2512 -17.1489 -17.1146 -17.0830 -17.0476
   -15.0966 -15.0762 -14.9925 -14.9386 -14.8580 -14.8375 -14.7905 -14.7362
   -14.7147 -14.6911 -14.6365 -14.5201 -14.5075 -14.5049 -14.3991 -14.3852
   -14.3746 -14.3653 -14.3106 -14.2911 -14.2764 -14.2081 -14.1514 -14.1447
   -14.1371 -14.1202 -14.1085 -14.0687 -12.9915 -12.8148  -8.8671  -8.8568
    -8.6837  -8.5750  -8.5651  -8.5334  -8.3771  -8.2970  -8.2727  -8.2614
    -8.2488  -8.1976  -8.1941  -8.1866  -8.1825  -8.1681  -8.0597  -7.9335
    -7.8456  -7.8363  -7.8339  -7.6545  -7.6464  -7.4700  -4.2064  -4.1542
    -3.7875  -3.7057  -3.4574  -3.4373  -3.2684  -3.1992  -3.0353  -3.0261
    -3.0050  -2.9741  -2.9648  -2.9082  -2.7827  -2.7749  -2.6862  -2.6295
    -2.5293  -2.4876  -2.3872  -2.3821  -2.3174  -2.3129  -2.0925  -2.0386
    -2.0335  -2.0139  -1.9952  -1.9566  -1.9055  -1.8610  -1.7918  -1.7480
    -1.6392  -1.4461  -1.4133  -1.4050  -1.3410  -1.2915  -1.2578  -1.2319
    -1.2285  -1.2247  -1.2022  -1.1711  -1.1691  -1.1521  -1.0464  -0.9999
    -0.9925  -0.9685  -0.9608  -0.9283  -0.9122  -0.8990  -0.8976  -0.8891
    -0.7858  -0.7762  -0.7747  -0.7508  -0.7396  -0.6885  -0.6121  -0.4006
    -0.3939  -0.3276  -0.2746  -0.2408  -0.1856  -0.1255  -0.1165  -0.0125
    -0.0057  -0.0020   0.0346   0.0811   0.0882   0.1190   0.1552   0.1584
     0.2852   0.3597   0.3894   0.3999   0.5952   0.6312   0.6996   0.7091
     0.7841   0.8213   0.8498   0.8783   0.9080   0.9182   1.0053   1.0306
     1.0497   1.0627   1.0796   1.0821   1.1152   1.1203   1.1488   1.1802
     1.1984   1.2153   1.2347   1.2848   1.3491   1.3662   1.3913   1.4009
     1.4400   1.4849   1.5011   1.5075   1.5230   1.5316   1.5644   1.5802
     1.6126   1.6202   1.6277   1.6408   1.6476   1.6768   1.6887   1.7025
     1.7424   1.7718   1.8040   1.8080   1.8329   1.9152   1.9336   1.9819
     1.9938   2.0653   2.0793   2.0877   2.0992   2.1858   2.2189   2.2536
     2.2861   2.2949   2.4756   2.5178   2.7092   2.7697   2.7860   2.8740
     2.8921   2.9509   4.1777   4.2083   4.2530   4.2710   5.7305   5.9656
     5.9729   6.5269   6.6218   7.0278   7.2134   7.2257   7.5580   7.6187
     7.8988   8.0888   8.1193   8.1492   8.2246   8.4025   8.4135   8.5196
     8.5937   8.6168   8.6688   8.6803   8.7399   8.8331   8.8644   8.9456
     8.9927   9.0327   9.0911   9.1286   9.2009   9.2159   9.2908   9.3506
     9.3763   9.4181

          k = 0.1250-1.0472 0.0000 ( 71558 PWs)   bands (ev):

   -38.2992 -38.2375 -35.9405 -35.8705 -22.8935 -22.8864 -22.8758 -22.8037
   -22.7933 -22.7383 -22.6109 -22.3566 -18.9616 -18.9008 -18.6381 -18.5777
   -18.4993 -18.4450 -17.3746 -17.3016 -17.1444 -17.0788 -17.0784 -17.0118
   -15.1050 -15.0810 -14.9145 -14.8817 -14.8687 -14.7993 -14.7583 -14.7285
   -14.7178 -14.6864 -14.6662 -14.5150 -14.4978 -14.4185 -14.3788 -14.3728
   -14.3714 -14.3284 -14.3067 -14.2840 -14.2148 -14.1632 -14.1571 -14.1206
   -14.1198 -14.1079 -14.1027 -14.0907 -13.0446 -12.7617  -8.9998  -8.9895
    -8.8204  -8.7054  -8.6954  -8.6517  -8.4910  -8.3983  -8.2907  -8.2645
    -8.2492  -8.2125  -8.2024  -8.1914  -8.1778  -8.1760  -8.0831  -7.9226
    -7.8449  -7.8219  -7.8117  -7.6501  -7.6277  -7.4781  -4.4070  -4.3561
    -3.9742  -3.8940  -3.6134  -3.5955  -3.4208  -3.3469  -3.2701  -3.2602
    -3.2144  -3.2044  -3.1950  -3.1245  -2.8083  -2.8005  -2.7035  -2.6573
    -2.6434  -2.6157  -2.4099  -2.4054  -2.3066  -2.3023  -2.1535  -2.1030
    -2.0758  -2.0426  -2.0360  -1.9894  -1.8575  -1.7816  -1.7089  -1.6482
    -1.6052  -1.5842  -1.5513  -1.4862  -1.4728  -1.4045  -1.3614  -1.3353
    -1.3202  -1.3128  -1.2453  -1.2414  -1.2393  -1.2042  -1.1016  -1.0932
    -1.0624  -1.0482  -1.0325  -1.0157  -1.0053  -0.9960  -0.9877  -0.9508
    -0.8749  -0.8661  -0.8621  -0.8432  -0.7276  -0.6920  -0.6332  -0.3670
    -0.3605  -0.2965  -0.2680  -0.2188  -0.1979  -0.1747  -0.1501  -0.1499
    -0.0026   0.0001   0.0268   0.0678   0.0867   0.1256   0.1338   0.1510
     0.3153   0.4033   0.4209   0.4689   0.6548   0.7232   0.7425   0.8001
     0.8057   0.8714   0.8893   0.9052   0.9567   1.0086   1.0133   1.0528
     1.0586   1.0957   1.1287   1.1655   1.1921   1.1930   1.2057   1.2138
     1.2180   1.2457   1.2743   1.3147   1.3515   1.4281   1.4476   1.4664
     1.5117   1.5396   1.6165   1.6433   1.6586   1.6592   1.6889   1.7313
     1.7424   1.7462   1.7505   1.7734   1.7865   1.7933   1.8139   1.8210
     1.9509   1.9725   1.9801   1.9911   2.0074   2.0192   2.0335   2.0389
     2.0521   2.0527   2.1566   2.2429   2.2800   2.2888   2.2987   2.3764
     2.4503   2.4593   2.4739   2.4895   2.5174   2.5559   2.6191   2.7247
     2.7575   2.8532   4.3597   4.3937   4.4562   4.4715   5.6700   5.7391
     5.7466   6.4087   6.5161   7.4384   7.5551   7.5655   7.8436   7.9106
     7.9822   7.9929   8.0490   8.1199   8.2537   8.3607   8.6744   8.6877
     8.7326   8.7720   8.8180   8.8688   8.8706   8.9350   9.0115   9.0469
     9.0719   9.0822   9.1047   9.1682   9.2276   9.2782   9.3647   9.4128
     9.5175   9.5903

          k = 0.2500 0.0000 0.0000 ( 71527 PWs)   bands (ev):

   -38.3176 -38.2559 -35.9521 -35.8821 -23.0460 -23.0355 -23.0239 -22.9530
   -22.9425 -22.8965 -22.7549 -22.5036 -18.7883 -18.7353 -18.6794 -18.6191
   -18.3216 -18.2587 -17.3082 -17.2411 -17.2049 -17.1400 -16.9834 -16.9102
   -15.5933 -15.5522 -15.1819 -15.1669 -15.0103 -14.8943 -14.8914 -14.8696
   -14.8606 -14.8195 -14.8105 -14.7341 -14.7174 -14.7086 -14.5029 -14.4727
   -14.3534 -14.3176 -14.2743 -14.2459 -14.2361 -14.2358 -14.2288 -14.2186
   -14.2030 -14.1247 -14.0613 -13.9858 -13.0426 -12.7122  -8.3503  -8.3090
    -8.2941  -8.2059  -8.1934  -8.1606  -8.0654  -8.0554  -8.0474  -7.9423
    -7.9320  -7.9033  -7.8934  -7.8884  -7.8634  -7.7748  -7.7718  -7.7644
    -7.7616  -7.7472  -7.7458  -7.5925  -7.3572  -7.2504  -3.1062  -3.0831
    -2.9994  -2.9036  -2.4343  -2.4235  -2.3844  -2.3779  -2.3136  -2.3097
    -2.2789  -2.2120  -2.1801  -2.1424  -2.1229  -2.0879  -2.0759  -2.0231
    -1.9907  -1.9605  -1.9520  -1.9376  -1.7531  -1.7298  -1.6984  -1.6932
    -1.3527  -1.3345  -1.2895  -1.2453  -1.2268  -1.2101  -1.1835  -1.1576
    -1.1539  -1.1482  -1.1446  -1.1224  -1.0752  -1.0327  -0.9808  -0.8858
    -0.8577  -0.8511  -0.7098  -0.6501  -0.6269  -0.6072  -0.5476  -0.5385
    -0.5297  -0.5189  -0.5136  -0.4790  -0.4781  -0.4770  -0.4594  -0.4515
    -0.4514  -0.4438  -0.4188  -0.3716  -0.3440  -0.2454  -0.2292  -0.2094
    -0.2048  -0.1929  -0.1880  -0.1693  -0.1606  -0.1040  -0.0967  -0.0426
    -0.0122   0.0374   0.0446   0.0546   0.0556   0.0565   0.0632   0.0781
     0.0888   0.1666   0.1812   0.1855   0.2007   0.2297   0.2585   0.2997
     0.3161   0.3198   0.3246   0.3436   0.3641   0.3862   0.3884   0.4016
     0.4852   0.4998   0.6255   0.6529   0.6813   0.6934   0.7026   0.7637
     0.7938   0.8070   0.8254   0.8358   0.8372   0.8941   0.9042   0.9132
     0.9949   1.0346   1.0447   1.0749   1.1042   1.1098   1.1730   1.1885
     1.2167   1.2528   1.2542   1.3345   1.3370   1.3555   1.3812   1.3818
     1.4281   1.4857   1.5332   1.5433   1.5832   1.5919   1.6189   1.6323
     1.6349   1.6363   1.8177   1.8199   1.8394   1.8422   1.8487   1.8882
     2.0026   2.0163   2.1403   2.1910   2.2329   2.2413   2.2947   2.3470
     2.4157   2.4353   2.4542   2.4799   2.6448   2.6968   4.9489   5.2301
     5.2394   5.9018   5.9794   6.0663   6.3386   6.3458   6.6315   6.6680
     6.7370   6.9360   7.1909   7.2399   7.5169   7.7580   7.7751   7.8148
     7.8283   7.9086   7.9675   8.0514   8.0850   8.0958   8.1906   8.2887
     8.3624   8.5085   8.5738   8.6021   8.6080   8.7554   8.9266   9.0035
     9.0388   9.1210

          k = 0.2500 0.2618 0.0000 ( 71526 PWs)   bands (ev):

   -38.3149 -38.2532 -35.9504 -35.8804 -23.0223 -23.0118 -23.0051 -22.9330
   -22.9225 -22.8734 -22.7351 -22.4829 -18.7498 -18.6967 -18.6723 -18.6120
   -18.4323 -18.3700 -17.2784 -17.2112 -17.1987 -17.1337 -17.0490 -16.9760
   -15.4895 -15.4488 -15.1324 -15.1177 -14.9555 -14.8664 -14.8474 -14.8298
   -14.8086 -14.7752 -14.7734 -14.7197 -14.7003 -14.6752 -14.4645 -14.4316
   -14.3544 -14.3304 -14.3187 -14.2941 -14.2655 -14.2257 -14.2191 -14.2150
   -14.2125 -14.1564 -14.0659 -14.0072 -13.0089 -12.7569  -8.3396  -8.3035
    -8.2907  -8.2324  -8.2213  -8.1783  -8.1726  -8.1679  -8.0975  -8.0872
    -8.0562  -7.9645  -7.9411  -7.9289  -7.9064  -7.8804  -7.8704  -7.8376
    -7.8275  -7.7863  -7.6972  -7.6837  -7.3874  -7.3230  -3.2122  -3.1757
    -3.0439  -2.9506  -2.5906  -2.5718  -2.5239  -2.4474  -2.4023  -2.3936
    -2.3451  -2.3306  -2.2964  -2.2560  -2.2459  -2.1874  -2.1400  -2.1012
    -2.0823  -2.0428  -2.0190  -1.9958  -1.8890  -1.8260  -1.7054  -1.6864
    -1.6664  -1.6388  -1.5987  -1.5877  -1.5809  -1.5710  -1.4918  -1.4637
    -1.4358  -1.3603  -1.2237  -1.1093  -1.1041  -1.0530  -0.9818  -0.9333
    -0.9108  -0.8720  -0.8641  -0.8358  -0.7936  -0.7781  -0.7571  -0.7436
    -0.6815  -0.6493  -0.5549  -0.5332  -0.5110  -0.4875  -0.4821  -0.4248
    -0.3415  -0.3382  -0.2870  -0.2783  -0.2394  -0.2257  -0.2028  -0.1905
    -0.1837  -0.1742  -0.1529  -0.1451  -0.1086  -0.0838  -0.0397  -0.0332
    -0.0229  -0.0165  -0.0007   0.0278   0.0702   0.0965   0.1205   0.1428
     0.1508   0.1761   0.1788   0.2004   0.2038   0.2158   0.2306   0.2430
     0.2904   0.3149   0.3297   0.3651   0.4099   0.4215   0.4825   0.5273
     0.5637   0.5749   0.6744   0.7029   0.7289   0.7442   0.8323   0.8880
     0.9006   0.9133   0.9316   0.9488   0.9528   0.9759   0.9975   1.0209
     1.0257   1.0293   1.0652   1.0725   1.1289   1.1370   1.1448   1.1750
     1.2498   1.2589   1.2728   1.3164   1.3284   1.4392   1.4599   1.4688
     1.4781   1.4840   1.4853   1.4920   1.5342   1.5483   1.5515   1.5763
     1.6017   1.6103   1.6482   1.8362   1.9169   1.9846   2.1015   2.1680
     2.2309   2.3737   2.4304   2.4871   2.5328   2.5888   2.6137   2.6435
     2.7001   2.7106   2.7359   2.7638   2.9158   2.9437   5.1878   5.5672
     5.5757   6.1368   6.1902   6.2416   6.4748   6.4827   6.9461   6.9803
     7.0252   7.2469   7.2514   7.3099   7.5581   7.6210   7.7300   7.8901
     7.9000   7.9636   8.0373   8.2105   8.2106   8.2709   8.3409   8.4271
     8.4960   8.6348   8.6822   8.7517   8.7766   8.8856   8.9164   8.9338
     9.0357   9.0436

          k = 0.2500 0.5236 0.0000 ( 71476 PWs)   bands (ev):

   -38.3084 -38.2467 -35.9463 -35.8763 -22.9638 -22.9593 -22.9532 -22.8838
   -22.8734 -22.8165 -22.6867 -22.4320 -18.6729 -18.6551 -18.6499 -18.6114
   -18.5964 -18.5947 -17.2079 -17.1893 -17.1833 -17.1374 -17.1218 -17.1161
   -15.2549 -15.2174 -15.0061 -14.9914 -14.8835 -14.8458 -14.8287 -14.7564
   -14.7122 -14.6895 -14.6750 -14.6134 -14.6106 -14.5997 -14.4903 -14.4458
   -14.3783 -14.3656 -14.3420 -14.3346 -14.3075 -14.2125 -14.1986 -14.1844
   -14.1711 -14.1599 -14.1016 -14.0330 -12.9248 -12.8652  -8.5510  -8.5408
    -8.3675  -8.3183  -8.2979  -8.2877  -8.2616  -8.2499  -8.2382  -8.1988
    -8.1877  -8.1474  -8.1172  -8.1075  -8.1070  -8.0543  -7.9774  -7.9587
    -7.8526  -7.8426  -7.8165  -7.6769  -7.5678  -7.4078  -3.6211  -3.5687
    -3.2788  -3.1917  -3.0876  -3.0575  -2.9071  -2.8428  -2.6333  -2.6219
    -2.5588  -2.5092  -2.4697  -2.4627  -2.4465  -2.4200  -2.4128  -2.3508
    -2.2872  -2.2786  -2.2640  -2.2567  -2.1754  -2.1064  -2.0919  -2.0625
    -2.0411  -2.0306  -2.0176  -1.9566  -1.8249  -1.7963  -1.7775  -1.7509
    -1.4879  -1.4414  -1.3573  -1.2426  -1.2395  -1.1879  -1.1555  -1.1281
    -1.1198  -1.0928  -1.0731  -1.0433  -1.0249  -1.0058  -0.9268  -0.8912
    -0.8230  -0.7824  -0.7396  -0.7109  -0.6939  -0.6700  -0.6696  -0.6463
    -0.6087  -0.5863  -0.5624  -0.4999  -0.4957  -0.4776  -0.4416  -0.4173
    -0.3812  -0.2934  -0.2645  -0.2361  -0.1907  -0.1737  -0.0763  -0.0532
    -0.0111   0.0101   0.0546   0.0784   0.1349   0.1527   0.1891   0.2044
     0.2581   0.3102   0.3270   0.3398   0.4056   0.4408   0.5357   0.5510
     0.5824   0.6292   0.6754   0.6967   0.7058   0.7603   0.8199   0.8509
     0.8653   0.8914   0.8947   0.9144   0.9360   0.9433   0.9603   0.9727
     1.0212   1.0419   1.0618   1.0637   1.0746   1.1815   1.1832   1.2124
     1.2403   1.2589   1.2914   1.2970   1.3027   1.3082   1.3316   1.3691
     1.3745   1.4111   1.4241   1.4526   1.4673   1.4964   1.5196   1.5358
     1.5403   1.5454   1.5558   1.6021   1.6402   1.6676   1.6824   1.7031
     1.7231   1.7340   1.8552   1.8630   2.0167   2.2752   2.3012   2.3212
     2.3769   2.4057   2.4764   2.6567   2.8379   2.8608   2.9141   2.9446
     2.9557   2.9769   3.4773   3.4999   3.5825   3.6146   5.6437   6.3788
     6.3868   6.4618   6.4739   6.5967   6.7905   6.8504   6.9397   7.0060
     7.6392   7.7335   7.8045   7.8194   7.9404   7.9736   8.1184   8.1405
     8.1897   8.2119   8.2420   8.3968   8.4480   8.5550   8.5891   8.6383
     8.7367   8.8189   8.8458   8.9173   8.9375   9.0720   9.1053   9.1355
     9.1657   9.2349

          k = 0.2500 0.7854 0.0000 ( 71504 PWs)   bands (ev):

   -38.3019 -38.2402 -35.9422 -35.8722 -22.9124 -22.9037 -22.8930 -22.8334
   -22.8230 -22.7581 -22.6370 -22.3797 -18.8810 -18.8200 -18.6379 -18.5774
   -18.5451 -18.4911 -17.3242 -17.2511 -17.1713 -17.1197 -17.1059 -17.0529
   -15.0518 -15.0346 -14.9495 -14.8889 -14.8630 -14.8466 -14.7691 -14.7237
   -14.7172 -14.6849 -14.6399 -14.5308 -14.5168 -14.5064 -14.4448 -14.4432
   -14.4197 -14.3967 -14.3041 -14.2785 -14.2691 -14.2035 -14.1478 -14.1401
   -14.1339 -14.1230 -14.1109 -14.0730 -12.9718 -12.8365  -8.8271  -8.8169
    -8.6425  -8.5023  -8.4659  -8.4559  -8.3242  -8.3140  -8.2962  -8.2794
    -8.2454  -8.2335  -8.2120  -8.2005  -8.1891  -8.1703  -8.1567  -7.9374
    -7.9017  -7.8916  -7.8345  -7.7266  -7.7140  -7.5004  -4.1030  -4.0527
    -3.6928  -3.6129  -3.5080  -3.4831  -3.2950  -3.2243  -3.0281  -3.0189
    -2.9969  -2.9812  -2.9720  -2.9148  -2.7390  -2.7305  -2.6457  -2.5837
    -2.4427  -2.4070  -2.3971  -2.3875  -2.3131  -2.3082  -2.1210  -2.0660
    -2.0400  -2.0127  -1.9934  -1.9691  -1.9381  -1.9298  -1.8961  -1.8485
    -1.5878  -1.5837  -1.5566  -1.4369  -1.4321  -1.4291  -1.3817  -1.3094
    -1.2815  -1.2565  -1.2553  -1.2287  -1.1653  -1.1460  -1.0391  -0.9693
    -0.9546  -0.9470  -0.9442  -0.9377  -0.9165  -0.8902  -0.8748  -0.8572
    -0.7958  -0.7837  -0.7484  -0.7216  -0.6875  -0.6611  -0.6189  -0.4358
    -0.4299  -0.3555  -0.2772  -0.2497  -0.2446  -0.2169  -0.0432   0.0001
     0.0212   0.0363   0.0964   0.1310   0.1681   0.1959   0.2095   0.2571
     0.2767   0.3591   0.4836   0.5213   0.5260   0.6187   0.6785   0.7463
     0.7829   0.7915   0.8185   0.8750   0.9505   0.9804   0.9898   0.9965
     1.0185   1.0307   1.0676   1.0778   1.1206   1.1321   1.1435   1.1634
     1.1884   1.1945   1.2178   1.2442   1.3115   1.3373   1.3522   1.3925
     1.4017   1.4334   1.4678   1.4839   1.5246   1.5340   1.5578   1.5751
     1.5784   1.6072   1.6304   1.6426   1.6794   1.6914   1.7032   1.7147
     1.7234   1.7647   1.7801   1.8106   1.8252   1.9720   2.0003   2.0438
     2.0660   2.1041   2.1124   2.2269   2.2613   2.2710   2.2866   2.3011
     2.3625   2.4760   2.4777   2.6066   2.7144   2.7735   2.7905   2.8845
     2.9137   2.9789   3.9879   4.0178   4.0797   4.1006   5.8265   6.1211
     6.1291   6.6086   6.6956   7.0466   7.1040   7.1221   7.5011   7.5660
     7.7811   7.9831   8.0227   8.0643   8.2447   8.4121   8.4294   8.5236
     8.5755   8.6151   8.7245   8.7426   8.7814   8.9122   8.9876   8.9974
     9.0234   9.0735   9.1443   9.1957   9.2273   9.2754   9.3086   9.3613
     9.4161   9.4373

          k = 0.2500-1.0472 0.0000 ( 71492 PWs)   bands (ev):

   -38.2992 -38.2375 -35.9405 -35.8705 -22.8927 -22.8783 -22.8676 -22.8122
   -22.8018 -22.7335 -22.6160 -22.3576 -18.9615 -18.9007 -18.6308 -18.5703
   -18.4981 -18.4438 -17.3746 -17.3017 -17.1660 -17.1005 -17.0836 -17.0167
   -15.0733 -15.0488 -14.8585 -14.8490 -14.8162 -14.8124 -14.7610 -14.7222
   -14.7190 -14.6930 -14.6658 -14.5077 -14.4897 -14.4497 -14.4217 -14.4104
   -14.4018 -14.3786 -14.2895 -14.2719 -14.2150 -14.1751 -14.1640 -14.1208
   -14.1183 -14.1063 -14.1051 -14.0932 -13.0147 -12.7986  -8.9130  -8.9027
    -8.7386  -8.6167  -8.6067  -8.5794  -8.4084  -8.3251  -8.3107  -8.3006
    -8.2884  -8.2539  -8.2400  -8.1988  -8.1865  -8.1743  -8.1730  -7.9422
    -7.9320  -7.9243  -7.8436  -7.7395  -7.7250  -7.5767  -4.3008  -4.2521
    -3.8804  -3.8019  -3.6680  -3.6454  -3.4536  -3.3779  -3.2627  -3.2531
    -3.2122  -3.2079  -3.2028  -3.1306  -2.7559  -2.7471  -2.6523  -2.5863
    -2.5787  -2.5386  -2.4175  -2.4127  -2.3072  -2.3025  -2.1332  -2.0839
    -2.0824  -1.9933  -1.9797  -1.9555  -1.8993  -1.8617  -1.8525  -1.8281
    -1.7869  -1.7175  -1.6423  -1.6117  -1.5960  -1.5134  -1.4720  -1.3888
    -1.3296  -1.3071  -1.2852  -1.2818  -1.1859  -1.1508  -1.1001  -1.0491
    -1.0420  -1.0254  -1.0204  -1.0190  -0.9851  -0.9762  -0.9627  -0.8907
    -0.8849  -0.8743  -0.8403  -0.7676  -0.7397  -0.6707  -0.6292  -0.4106
    -0.4052  -0.3314  -0.2791  -0.2763  -0.2544  -0.2105  -0.0365   0.0056
     0.0300   0.0485   0.0600   0.1413   0.1654   0.1689   0.1821   0.2003
     0.2940   0.3754   0.5589   0.5687   0.6053   0.6868   0.7995   0.8203
     0.8236   0.8534   0.8761   0.9129   0.9675   1.0254   1.0269   1.0423
     1.0554   1.0697   1.0743   1.1231   1.1760   1.1982   1.2001   1.2056
     1.2164   1.2292   1.2481   1.2504   1.3648   1.4060   1.4460   1.4556
     1.4805   1.5202   1.5833   1.5921   1.6152   1.6319   1.6732   1.6900
     1.6969   1.7171   1.7262   1.7421   1.7715   1.7758   1.8976   1.9315
     1.9694   2.0128   2.0253   2.0276   2.0406   2.0637   2.1472   2.2058
     2.2180   2.2416   2.2696   2.2940   2.2993   2.3081   2.3648   2.3678
     2.3789   2.4297   2.4387   2.4598   2.4911   2.5650   2.6432   2.7510
     2.8036   2.8925   4.1320   4.1654   4.2393   4.2575   5.8066   5.9313
     5.9393   6.4977   6.5964   7.3054   7.3152   7.3758   7.6986   7.7458
     7.8313   7.8852   8.0101   8.0881   8.3021   8.3838   8.7534   8.7707
     8.8230   8.8532   8.9694   8.9762   9.0039   9.0662   9.0863   9.0988
     9.1453   9.1971   9.2061   9.2717   9.2939   9.3807   9.4039   9.4247
     9.4850   9.5774

          k = 0.3750 0.0000 0.0000 ( 71576 PWs)   bands (ev):

   -38.3176 -38.2559 -35.9522 -35.8821 -23.0279 -23.0224 -23.0172 -22.9718
   -22.9615 -22.8870 -22.7650 -22.5057 -18.7866 -18.7336 -18.6713 -18.6110
   -18.3216 -18.2587 -17.3152 -17.2483 -17.2324 -17.1682 -16.9834 -16.9102
   -15.4974 -15.4568 -15.1630 -15.1436 -15.0326 -14.9543 -14.9190 -14.8840
   -14.8683 -14.8211 -14.8002 -14.7670 -14.7412 -14.7370 -14.4832 -14.4481
   -14.3335 -14.3027 -14.2765 -14.2556 -14.2403 -14.2392 -14.2349 -14.2231
   -14.2139 -14.1320 -14.0732 -13.9853 -12.9712 -12.7905  -8.3506  -8.3131
    -8.2984  -8.2114  -8.1992  -8.1705  -8.0626  -8.0252  -8.0153  -7.9321
    -7.9221  -7.9074  -7.8971  -7.8912  -7.8296  -7.8093  -7.7991  -7.7588
    -7.7523  -7.7418  -7.7350  -7.6241  -7.3672  -7.2573  -2.9501  -2.9278
    -2.8597  -2.7628  -2.5672  -2.5534  -2.4825  -2.3722  -2.3568  -2.3360
    -2.3026  -2.2689  -2.2474  -2.2373  -2.1151  -2.0807  -2.0688  -2.0121
    -2.0098  -1.9794  -1.9706  -1.9301  -1.7804  -1.7488  -1.7095  -1.6443
    -1.3324  -1.2969  -1.2891  -1.2415  -1.1921  -1.1552  -1.1516  -1.1460
    -1.1426  -1.0842  -1.0744  -1.0654  -0.9994  -0.9794  -0.9298  -0.9000
    -0.8446  -0.7722  -0.7653  -0.6990  -0.6891  -0.6602  -0.6393  -0.6118
    -0.5975  -0.5757  -0.5392  -0.5322  -0.5298  -0.5044  -0.4822  -0.4649
    -0.4590  -0.4389  -0.3721  -0.3636  -0.3350  -0.2920  -0.2654  -0.2421
    -0.2368  -0.2116  -0.2036  -0.1872  -0.1745  -0.1070  -0.0958  -0.0546
    -0.0364   0.0444   0.0515   0.0581   0.0651   0.1012   0.1064   0.1539
     0.1609   0.1800   0.1923   0.2275   0.2430   0.2437   0.2838   0.2946
     0.3117   0.3145   0.3368   0.3527   0.3719   0.3907   0.3946   0.4065
     0.5130   0.5312   0.5919   0.6265   0.6266   0.6571   0.6805   0.6890
     0.6970   0.7021   0.7726   0.8278   0.8290   0.8360   0.9544   0.9794
     1.0015   1.0701   1.0865   1.1234   1.1475   1.1566   1.1653   1.1677
     1.2352   1.2569   1.2668   1.2978   1.3110   1.3211   1.3223   1.3616
     1.3618   1.4195   1.4569   1.5285   1.6097   1.6292   1.6610   1.6665
     1.7056   1.7122   1.7687   1.7864   1.8445   1.8900   1.9189   1.9583
     1.9869   2.0125   2.0784   2.1904   2.1960   2.2456   2.2842   2.3905
     2.4060   2.4702   2.4760   2.4974   2.6017   2.6538   5.1094   5.4327
     5.4408   5.7465   5.9925   5.9996   6.1323   6.2099   6.8683   6.9212
     6.9363   6.9791   7.0234   7.1963   7.6067   7.6391   7.6481   7.7400
     7.8908   7.9115   7.9704   8.0049   8.1472   8.2374   8.2469   8.2990
     8.3956   8.4461   8.5851   8.7057   8.8688   8.8813   8.9103   8.9543
     9.0172   9.0773

          k = 0.3750 0.2618 0.0000 ( 71552 PWs)   bands (ev):

   -38.3149 -38.2532 -35.9505 -35.8804 -23.0051 -23.0038 -22.9944 -22.9508
   -22.9404 -22.8645 -22.7446 -22.4848 -18.7481 -18.6950 -18.6643 -18.6039
   -18.4323 -18.3700 -17.2851 -17.2250 -17.2181 -17.1606 -17.0489 -16.9758
   -15.3940 -15.3541 -15.1103 -15.0945 -14.9774 -14.8983 -14.8917 -14.8603
   -14.8212 -14.7900 -14.7630 -14.7404 -14.7181 -14.7004 -14.4465 -14.4090
   -14.3485 -14.3251 -14.3103 -14.3007 -14.2767 -14.2290 -14.2197 -14.2177
   -14.2174 -14.1591 -14.0786 -14.0017 -12.9530 -12.8152  -8.3397  -8.3132
    -8.3008  -8.2574  -8.2468  -8.2051  -8.1944  -8.1836  -8.1212  -8.1107
    -8.0936  -7.9807  -7.9664  -7.9441  -7.9264  -7.8283  -7.8184  -7.7971
    -7.7895  -7.7853  -7.6565  -7.6398  -7.3613  -7.2987  -3.0534  -3.0165
    -2.8946  -2.8021  -2.6910  -2.6637  -2.5817  -2.4869  -2.3883  -2.3751
    -2.3746  -2.3564  -2.3246  -2.2889  -2.2729  -2.2461  -2.2358  -2.2162
    -2.1317  -2.0849  -2.0216  -2.0008  -1.8897  -1.8166  -1.6957  -1.6844
    -1.6442  -1.6023  -1.5943  -1.5854  -1.5801  -1.5756  -1.3813  -1.3449
    -1.3063  -1.2424  -1.1886  -1.1268  -1.1258  -1.1091  -1.0527  -1.0425
    -0.9512  -0.9262  -0.9163  -0.8841  -0.8756  -0.8703  -0.7956  -0.7873
    -0.7149  -0.7117  -0.5941  -0.5520  -0.5147  -0.4675  -0.4474  -0.3993
    -0.3447  -0.3312  -0.3101  -0.2934  -0.2518  -0.2475  -0.2139  -0.2124
    -0.1810  -0.1736  -0.1433  -0.1373  -0.1077  -0.0852  -0.0514  -0.0477
    -0.0174  -0.0115   0.0211   0.0344   0.0597   0.1237   0.1348   0.1800
     0.1848   0.1871   0.1977   0.2016   0.2151   0.2340   0.2501   0.2645
     0.2937   0.3296   0.3388   0.3641   0.3817   0.4760   0.5018   0.5171
     0.5342   0.5917   0.6879   0.7153   0.7284   0.7613   0.7972   0.8360
     0.8412   0.8744   0.9170   0.9358   0.9463   0.9956   1.0230   1.0304
     1.0532   1.0665   1.0690   1.0703   1.1029   1.1248   1.1465   1.1670
     1.2414   1.2884   1.2917   1.3174   1.3299   1.3473   1.3836   1.3899
     1.4396   1.4426   1.4516   1.4771   1.5082   1.5594   1.5679   1.5704
     1.6013   1.6441   1.6480   1.6890   2.0360   2.1210   2.2830   2.3387
     2.4137   2.4302   2.4504   2.5171   2.5668   2.5839   2.5921   2.6356
     2.7062   2.7197   2.7217   2.7476   2.8510   2.8793   5.3036   5.7331
     5.7409   5.9633   6.1963   6.2039   6.3215   6.3944   7.0237   7.0862
     7.1887   7.2377   7.2526   7.5016   7.6656   7.7333   7.7965   7.8606
     7.8690   7.9577   8.0451   8.1324   8.2818   8.3576   8.3958   8.4116
     8.4865   8.5301   8.6175   8.7073   8.8262   8.8424   8.9347   8.9995
     9.0099   9.0322

          k = 0.3750 0.5236 0.0000 ( 71469 PWs)   bands (ev):

   -38.3084 -38.2467 -35.9463 -35.8763 -22.9581 -22.9490 -22.9383 -22.8991
   -22.8888 -22.8091 -22.6945 -22.4335 -18.6728 -18.6485 -18.6473 -18.6112
   -18.5950 -18.5869 -17.2128 -17.2079 -17.1896 -17.1449 -17.1418 -17.1191
   -15.1647 -15.1295 -14.9954 -14.9832 -14.8796 -14.8442 -14.8406 -14.7441
   -14.7181 -14.7108 -14.6946 -14.6781 -14.6308 -14.6128 -14.4965 -14.4561
   -14.3968 -14.3649 -14.3616 -14.3212 -14.2904 -14.1994 -14.1939 -14.1799
   -14.1764 -14.1650 -14.1018 -14.0345 -12.9099 -12.8773  -8.5491  -8.5390
    -8.4115  -8.4014  -8.3619  -8.3171  -8.2610  -8.2493  -8.2417  -8.2241
    -8.1933  -8.1823  -8.1383  -8.1092  -8.0062  -7.9960  -7.9718  -7.8575
    -7.8552  -7.8454  -7.8182  -7.6827  -7.5128  -7.4073  -3.4755  -3.4252
    -3.1727  -3.1376  -3.1325  -3.0451  -2.9357  -2.8670  -2.5981  -2.5883
    -2.5322  -2.4867  -2.4826  -2.4704  -2.4388  -2.4132  -2.4054  -2.3599
    -2.3271  -2.3164  -2.3152  -2.2583  -2.2520  -2.2275  -2.2052  -2.1960
    -2.0178  -1.9707  -1.8997  -1.8660  -1.7651  -1.7293  -1.7253  -1.6770
    -1.5563  -1.5095  -1.4413  -1.4079  -1.3951  -1.3149  -1.2612  -1.2010
    -1.1845  -1.1542  -1.0969  -1.0860  -1.0534  -1.0364  -0.8742  -0.8533
    -0.8447  -0.7946  -0.7588  -0.7176  -0.6725  -0.6481  -0.6436  -0.6277
    -0.6067  -0.5739  -0.5665  -0.5080  -0.4997  -0.4783  -0.4408  -0.3885
    -0.3761  -0.3542  -0.3113  -0.3030  -0.2567  -0.2291  -0.0769  -0.0713
     0.0479   0.0773   0.1154   0.1227   0.1523   0.2059   0.2384   0.2577
     0.2977   0.3469   0.3833   0.3957   0.4065   0.4614   0.5145   0.5961
     0.6017   0.6842   0.6998   0.7357   0.7546   0.7584   0.7958   0.8005
     0.8342   0.8421   0.8787   0.8952   0.9000   0.9050   0.9199   0.9375
     0.9598   0.9903   1.0018   1.0963   1.1170   1.1337   1.1846   1.2035
     1.2360   1.2474   1.2926   1.3126   1.3277   1.3377   1.3585   1.3617
     1.3708   1.3973   1.4091   1.4349   1.4489   1.4674   1.4748   1.4896
     1.5258   1.5392   1.5747   1.5929   1.6124   1.6286   1.6840   1.7215
     1.7271   1.7324   1.8174   1.8245   2.2000   2.3327   2.4080   2.4225
     2.6683   2.7086   2.7805   2.8349   2.8565   2.8727   2.9153   2.9388
     3.0012   3.0153   3.2969   3.3216   3.4219   3.4567   5.6934   6.4260
     6.4348   6.4750   6.4869   6.5369   6.8693   6.9271   6.9764   7.0405
     7.7197   7.8311   7.8754   7.9143   7.9794   7.9939   8.0212   8.0777
     8.1653   8.1776   8.3236   8.4482   8.5034   8.5993   8.6308   8.7194
     8.7554   8.8651   8.9090   8.9129   8.9312   8.9725   9.0102   9.0572
     9.1075   9.1638

          k = 0.3750 0.7854 0.0000 ( 71522 PWs)   bands (ev):

   -38.3019 -38.2402 -35.9422 -35.8722 -22.9115 -22.8915 -22.8808 -22.8460
   -22.8356 -22.7523 -22.6432 -22.3809 -18.8809 -18.8199 -18.6304 -18.5698
   -18.5438 -18.4898 -17.3241 -17.2511 -17.1934 -17.1284 -17.1248 -17.0581
   -14.9987 -14.9832 -14.8948 -14.8792 -14.8782 -14.8150 -14.7371 -14.7217
   -14.7069 -14.6643 -14.6442 -14.5597 -14.5358 -14.5198 -14.5039 -14.4928
   -14.4476 -14.4363 -14.2955 -14.2699 -14.2618 -14.2087 -14.1427 -14.1348
   -14.1289 -14.1276 -14.1149 -14.0779 -12.9418 -12.8684  -8.7457  -8.7356
    -8.5642  -8.4733  -8.4632  -8.4469  -8.3208  -8.3110  -8.3002  -8.2948
    -8.2366  -8.2246  -8.2068  -8.1958  -8.1885  -8.1699  -8.1373  -8.0067
    -7.9966  -7.9390  -7.8378  -7.8124  -7.7463  -7.5754  -3.9598  -3.9136
    -3.5965  -3.5674  -3.5660  -3.4903  -3.3459  -3.2706  -3.0173  -3.0081
    -2.9919  -2.9872  -2.9827  -2.9229  -2.6607  -2.6507  -2.5656  -2.4925
    -2.4366  -2.4292  -2.3087  -2.2981  -2.2964  -2.2691  -2.2657  -2.1683
    -2.1643  -2.1270  -2.0059  -1.9789  -1.9597  -1.9240  -1.8338  -1.8030
    -1.7909  -1.7672  -1.7253  -1.6419  -1.5115  -1.4666  -1.4331  -1.3083
    -1.3029  -1.2723  -1.2643  -1.2464  -1.1146  -1.0836  -1.0514  -0.9989
    -0.9673  -0.9544  -0.9189  -0.8995  -0.8644  -0.8510  -0.8481  -0.8157
    -0.8112  -0.7693  -0.7333  -0.7011  -0.6567  -0.6530  -0.5968  -0.4914
    -0.4832  -0.4076  -0.4017  -0.3873  -0.2760  -0.2449  -0.0494   0.0053
     0.1010   0.1719   0.1956   0.2076   0.2307   0.2970   0.3160   0.3310
     0.3324   0.4318   0.4497   0.4980   0.6161   0.6872   0.7133   0.7372
     0.7957   0.8134   0.8381   0.8455   0.8977   0.9044   0.9098   0.9496
     0.9752   1.0204   1.0778   1.0940   1.1317   1.1370   1.1561   1.1652
     1.1979   1.2157   1.2371   1.2457   1.2722   1.2897   1.3050   1.3152
     1.3951   1.4202   1.4496   1.4745   1.5022   1.5134   1.5284   1.5471
     1.5670   1.5973   1.6072   1.6229   1.6445   1.6505   1.6702   1.7253
     1.7343   1.7603   1.7767   1.8360   1.8471   1.9441   1.9938   2.0101
     2.0476   2.1412   2.1494   2.2270   2.2356   2.3017   2.3456   2.3910
     2.6730   2.6968   2.7186   2.7766   2.7927   2.8427   2.8624   2.8980
     3.0983   3.1189   3.6791   3.7093   3.8027   3.8271   5.9330   6.3505
     6.3601   6.7057   6.7808   6.9122   6.9262   7.0888   7.3938   7.4623
     7.6721   7.9295   7.9605   7.9687   8.3097   8.4459   8.4664   8.4857
     8.5240   8.6242   8.6984   8.7148   8.8673   8.9815   9.0475   9.1031
     9.1286   9.1571   9.2329   9.2667   9.2880   9.3169   9.4407   9.4533
     9.5251   9.5883

          k = 0.3750-1.0472 0.0000 ( 71526 PWs)   bands (ev):

   -38.2992 -38.2375 -35.9405 -35.8705 -22.8919 -22.8672 -22.8565 -22.8235
   -22.8132 -22.7283 -22.6215 -22.3587 -18.9614 -18.9006 -18.6233 -18.5628
   -18.4969 -18.4426 -17.3747 -17.3017 -17.1873 -17.1223 -17.0884 -17.0216
   -15.0266 -15.0005 -14.8783 -14.8559 -14.7775 -14.7616 -14.7329 -14.7294
   -14.6746 -14.6746 -14.6476 -14.5047 -14.4944 -14.4926 -14.4819 -14.4535
   -14.4491 -14.4303 -14.2638 -14.2551 -14.2222 -14.2018 -14.1647 -14.1209
   -14.1156 -14.1085 -14.1037 -14.0965 -12.9687 -12.8516  -8.7815  -8.7713
    -8.6160  -8.4922  -8.4786  -8.4686  -8.4534  -8.4433  -8.3035  -8.2895
    -8.2844  -8.2387  -8.2263  -8.2238  -8.2138  -8.2021  -8.1718  -8.1088
    -8.0987  -7.9269  -7.8909  -7.8411  -7.8148  -7.7013  -4.1558  -4.1116
    -3.7590  -3.7568  -3.7304  -3.6811  -3.5116  -3.4316  -3.2513  -3.2418
    -3.2238  -3.2144  -3.1998  -3.1382  -2.6657  -2.6554  -2.5546  -2.4782
    -2.4562  -2.4363  -2.4277  -2.4184  -2.2979  -2.2903  -2.2183  -2.1143
    -2.1071  -2.0658  -2.0450  -2.0105  -1.9918  -1.9741  -1.9650  -1.9434
    -1.9017  -1.9015  -1.8160  -1.7530  -1.5551  -1.5095  -1.4768  -1.3581
    -1.3501  -1.3242  -1.3155  -1.3057  -1.1405  -1.1071  -1.0888  -1.0728
[...]
    -2.1420  -2.0993  -2.0190  -2.0044  -1.8900  -1.8126  -1.6902  -1.6876
    -1.6320  -1.5909  -1.5894  -1.5887  -1.5795  -1.5725  -1.2616  -1.2598
    -1.2346  -1.1923  -1.1589  -1.1470  -1.1288  -1.1127  -1.1032  -1.0655
    -1.0446  -1.0259  -1.0222  -0.9584  -0.9118  -0.8811  -0.7829  -0.7684
    -0.6832  -0.6573  -0.6567  -0.6130  -0.5126  -0.4584  -0.4171  -0.3895
    -0.3664  -0.3417  -0.3221  -0.3113  -0.2599  -0.2596  -0.2022  -0.1989
    -0.1928  -0.1729  -0.1324  -0.1179  -0.1067  -0.0788  -0.0580  -0.0526
    -0.0175  -0.0041   0.0352   0.0386   0.0529   0.1320   0.1391   0.1750
     0.1903   0.1925   0.2140   0.2309   0.2396   0.2446   0.2709   0.2713
     0.2895   0.2919   0.3101   0.3729   0.3923   0.4825   0.4932   0.5315
     0.5772   0.6093   0.6865   0.7158   0.7271   0.7444   0.7537   0.7727
     0.8517   0.8648   0.8821   0.8948   0.9364   1.0069   1.0630   1.0731
     1.0792   1.0845   1.0901   1.0911   1.1205   1.1629   1.1836   1.2125
     1.2196   1.2270   1.2379   1.2896   1.2930   1.3349   1.3758   1.3815
     1.3867   1.3963   1.4406   1.4468   1.5492   1.5786   1.5849   1.5896
     1.5927   1.5993   1.6463   1.6518   2.1175   2.1290   2.3864   2.4192
     2.4214   2.4342   2.4759   2.5592   2.5672   2.5910   2.6335   2.6497
     2.6898   2.7310   2.7325   2.7390   2.7866   2.8136   5.3720   5.8560
     5.9379   5.9449   5.9550   5.9626   6.4440   6.5120   6.8816   6.9562
     7.3703   7.5201   7.5241   7.5577   7.5770   7.6219   7.6837   7.7685
     7.8326   7.9926   8.0326   8.0524   8.2774   8.3970   8.4339   8.4344
     8.5255   8.6239   8.6642   8.6872   8.7600   8.7607   8.9100   8.9428
     8.9661   9.0122

          k =-0.5000 0.5236 0.0000 ( 71498 PWs)   bands (ev):

   -38.3084 -38.2467 -35.9463 -35.8763 -22.9576 -22.9390 -22.9282 -22.9094
   -22.8992 -22.8058 -22.6981 -22.4341 -18.6727 -18.6479 -18.6441 -18.6111
   -18.5945 -18.5836 -17.2184 -17.2140 -17.1901 -17.1539 -17.1449 -17.1194
   -15.1049 -15.0731 -15.0081 -14.9935 -14.8773 -14.8637 -14.8370 -14.7626
   -14.7198 -14.7186 -14.7078 -14.6817 -14.6264 -14.6212 -14.4984 -14.4605
   -14.4107 -14.3716 -14.3614 -14.3169 -14.2840 -14.1924 -14.1913 -14.1801
   -14.1794 -14.1669 -14.1021 -14.0350 -12.8957 -12.8905  -8.5151  -8.5050
    -8.4860  -8.4759  -8.3283  -8.3162  -8.2945  -8.2604  -8.2487  -8.2327
    -8.1928  -8.1818  -8.1444  -8.1387  -7.9717  -7.9161  -7.9061  -7.9053
    -7.8950  -7.8186  -7.7937  -7.7093  -7.4572  -7.4387  -3.3518  -3.3041
    -3.2639  -3.2244  -3.0196  -2.9980  -2.9307  -2.9280  -2.5594  -2.5505
    -2.5206  -2.5113  -2.4690  -2.4680  -2.4101  -2.4018  -2.3989  -2.3859
    -2.3741  -2.3718  -2.3641  -2.3477  -2.2537  -2.2465  -2.2321  -2.2248
    -2.0063  -1.9776  -1.7393  -1.7256  -1.7084  -1.6890  -1.6806  -1.6501
    -1.6003  -1.5950  -1.5695  -1.5393  -1.5046  -1.4295  -1.2613  -1.2444
    -1.1875  -1.1603  -1.1193  -1.0699  -1.0465  -1.0283  -0.8883  -0.8721
    -0.8033  -0.7939  -0.7686  -0.7345  -0.6451  -0.6428  -0.6305  -0.6186
    -0.5974  -0.5646  -0.5335  -0.5308  -0.5192  -0.4961  -0.4478  -0.4278
    -0.3700  -0.3663  -0.3607  -0.3162  -0.2536  -0.2388  -0.0763  -0.0749
     0.0928   0.0976   0.1194   0.1552   0.2055   0.2059   0.2481   0.3040
     0.3080   0.3379   0.3755   0.3772   0.4474   0.5172   0.5346   0.5950
     0.6101   0.6717   0.7154   0.7624   0.7669   0.7818   0.7922   0.8004
     0.8074   0.8170   0.8653   0.8815   0.8829   0.8849   0.8924   0.8937
     0.9501   0.9686   0.9874   1.1023   1.1389   1.1502   1.1795   1.2406
     1.2582   1.2591   1.2596   1.2678   1.3127   1.3146   1.3225   1.3450
     1.3741   1.3842   1.3989   1.4141   1.4627   1.4809   1.5022   1.5092
     1.5244   1.5453   1.5630   1.5702   1.6003   1.6329   1.6736   1.7169
     1.7698   1.7727   1.7738   1.7818   2.3028   2.3153   2.4249   2.4292
     2.8329   2.8332   2.8783   2.9033   2.9125   2.9299   3.0143   3.0403
     3.0620   3.0933   3.1561   3.1917   3.2276   3.2650   5.7157   6.4506
     6.4607   6.4790   6.4885   6.5072   6.9240   6.9753   6.9813   7.0337
     7.7918   7.7926   7.8867   7.8973   7.9484   8.0133   8.1081   8.1170
     8.1303   8.1395   8.4182   8.5263   8.5782   8.6313   8.6545   8.7176
     8.7930   8.8490   8.8722   8.9010   8.9139   8.9310   8.9542   9.0522
     9.0582   9.1799

          k =-0.5000 0.7854 0.0000 ( 71502 PWs)   bands (ev):

   -38.3019 -38.2402 -35.9422 -35.8722 -22.9111 -22.8837 -22.8729 -22.8539
   -22.8437 -22.7496 -22.6460 -22.3814 -18.8809 -18.8199 -18.6272 -18.5666
   -18.5433 -18.4892 -17.3241 -17.2510 -17.2025 -17.1377 -17.1269 -17.0603
   -14.9587 -14.9412 -14.9260 -14.9146 -14.8350 -14.7682 -14.7393 -14.7147
   -14.6936 -14.6537 -14.6503 -14.5922 -14.5564 -14.5418 -14.5089 -14.5020
   -14.4594 -14.4582 -14.2902 -14.2728 -14.2518 -14.2148 -14.1388 -14.1319
   -14.1315 -14.1250 -14.1184 -14.0803 -12.9093 -12.9016  -8.6417  -8.6316
    -8.6032  -8.5930  -8.4790  -8.4092  -8.4065  -8.2951  -8.2400  -8.2280
    -8.2251  -8.2142  -8.2049  -8.1648  -8.1455  -8.1447  -8.1351  -8.1347
    -8.0499  -7.9354  -7.8969  -7.8392  -7.6873  -7.6620  -3.8603  -3.8188
    -3.6723  -3.6349  -3.4763  -3.4106  -3.4046  -3.3184  -3.0051  -3.0041
    -2.9959  -2.9948  -2.9823  -2.9270  -2.5803  -2.5699  -2.5030  -2.4911
    -2.4460  -2.4279  -2.3565  -2.3371  -2.2772  -2.2663  -2.2472  -2.2348
    -2.1545  -2.1170  -2.0225  -1.9920  -1.9824  -1.9701  -1.8921  -1.8785
    -1.8357  -1.8315  -1.7085  -1.6627  -1.5778  -1.5278  -1.3568  -1.3255
    -1.3162  -1.3027  -1.2648  -1.2510  -1.0682  -1.0525  -1.0369  -1.0173
    -0.9751  -0.9512  -0.9484  -0.9231  -0.8411  -0.8388  -0.8270  -0.8238
    -0.7793  -0.7253  -0.7132  -0.6876  -0.6639  -0.6336  -0.5541  -0.5422
    -0.5202  -0.4954  -0.4546  -0.4331  -0.2785  -0.2498  -0.0372  -0.0078
     0.1753   0.1873   0.2560   0.2609   0.2692   0.2792   0.3465   0.3655
     0.3871   0.4163   0.4658   0.5491   0.5762   0.7661   0.7722   0.7729
     0.7997   0.8010   0.8247   0.8508   0.8581   0.8859   0.8920   0.9195
     0.9427   0.9827   1.0703   1.1066   1.1136   1.1282   1.1529   1.1563
     1.1585   1.1915   1.2181   1.2438   1.2568   1.3170   1.3635   1.3722
     1.3914   1.4036   1.4137   1.4231   1.4769   1.5264   1.5471   1.5750
     1.5765   1.5943   1.6071   1.6086   1.6295   1.6427   1.6431   1.6668
     1.7259   1.7351   1.7575   1.7667   1.8464   1.9504   2.0130   2.0256
     2.1794   2.1868   2.1897   2.1983   2.2118   2.2136   2.3358   2.3504
     2.7187   2.7231   2.7497   2.7795   2.8599   2.8851   3.2546   3.2867
     3.2903   3.3213   3.4270   3.4596   3.4690   3.4923   5.9812   6.5973
     6.6062   6.6197   6.6455   6.8209   6.8850   7.0943   7.3273   7.3995
     7.6258   7.9131   7.9278   7.9564   8.3437   8.4352   8.4931   8.5225
     8.5255   8.6028   8.6223   8.6561   8.9780   8.9837   9.0226   9.0822
     9.2331   9.3198   9.3423   9.3546   9.3836   9.4149   9.4154   9.4497
     9.5232   9.5272

          k =-0.5000-1.0472 0.0000 ( 71492 PWs)   bands (ev):

   -38.2992 -38.2375 -35.9405 -35.8705 -22.8916 -22.8603 -22.8495 -22.8305
   -22.8203 -22.7259 -22.6240 -22.3591 -18.9614 -18.9006 -18.6202 -18.5596
   -18.4964 -18.4421 -17.3747 -17.3017 -17.1961 -17.1313 -17.0904 -17.0237
   -14.9920 -14.9614 -14.9110 -14.8967 -14.7706 -14.7341 -14.7044 -14.6825
   -14.6732 -14.6475 -14.6249 -14.5432 -14.5204 -14.5044 -14.4941 -14.4798
   -14.4768 -14.4438 -14.2396 -14.2350 -14.2342 -14.2309 -14.1649 -14.1209
   -14.1125 -14.1118 -14.1006 -14.0998 -12.9173 -12.9058  -8.6451  -8.6349
    -8.5944  -8.5843  -8.5002  -8.4486  -8.4226  -8.3202  -8.3099  -8.2967
    -8.2908  -8.2838  -8.2189  -8.2164  -8.2063  -8.2051  -8.1843  -8.1739
    -8.1665  -8.0009  -7.9263  -7.8594  -7.8369  -7.7727  -4.0601  -4.0206
    -3.8316  -3.7960  -3.6710  -3.6049  -3.5685  -3.4799  -3.2380  -3.2371
    -3.2287  -3.2277  -3.1956  -3.1421  -2.5850  -2.5756  -2.4812  -2.4674
    -2.4278  -2.3706  -2.3533  -2.3177  -2.3164  -2.3052  -2.2321  -2.2187
    -2.2139  -2.1810  -2.1542  -2.1334  -2.0820  -1.9999  -1.9931  -1.9882
    -1.9632  -1.9405  -1.7256  -1.6819  -1.6056  -1.5578  -1.3935  -1.3685
    -1.3572  -1.3503  -1.3230  -1.3148  -1.1527  -1.1151  -1.0672  -1.0429
    -1.0373  -1.0110  -0.9633  -0.9384  -0.9210  -0.9207  -0.9099  -0.9014
    -0.8196  -0.7903  -0.7722  -0.7415  -0.7395  -0.6402  -0.5594  -0.5564
    -0.5401  -0.5176  -0.4715  -0.4494  -0.2817  -0.2509  -0.0156   0.0210
     0.2063   0.2121   0.2746   0.2820   0.3170   0.3289   0.3403   0.3599
     0.3625   0.4080   0.4840   0.5941   0.5980   0.8114   0.8141   0.8620
     0.8721   0.8918   0.9114   0.9479   0.9488   0.9794   0.9799   1.0297
     1.0321   1.0348   1.0974   1.1267   1.1409   1.1597   1.1740   1.1993
     1.2114   1.2505   1.2583   1.2756   1.2818   1.2973   1.3233   1.3271
     1.3700   1.4055   1.4186   1.5266   1.5980   1.6128   1.6646   1.6799
     1.6834   1.7138   1.7811   1.8115   1.8270   1.8401   1.9035   1.9083
     1.9347   1.9676   1.9755   2.0107   2.0115   2.0231   2.0246   2.1345
     2.1990   2.2490   2.2522   2.2952   2.3591   2.3679   2.3680   2.3771
     2.5088   2.5145   2.5586   2.5793   2.7272   2.7989   3.2760   3.3079
     3.3396   3.3734   3.4356   3.4687   3.5475   3.5691   6.0562   6.5408
     6.5494   6.5593   6.5924   6.7468   6.8090   7.1664   7.3513   7.4135
     7.7141   7.9626   8.0328   8.0409   8.2592   8.6332   8.7110   8.7812
     8.9491   8.9826   9.0056   9.1130   9.1326   9.1866   9.2050   9.2234
     9.2696   9.3084   9.4017   9.4021   9.5613   9.5925   9.5967   9.6100
     9.6108   9.6217

     the Fermi energy is     2.5394 ev

!    total energy              =   -3711.53414735 Ry
     Harris-Foulkes estimate   =   -3711.53414739 Ry
     estimated scf accuracy    <          6.6E-09 Ry

     The total energy is the sum of the following terms:

     one-electron contribution =  -56867.16994346 Ry
     hartree contribution      =   28737.07786752 Ry
     xc contribution           =   -1263.80181970 Ry
     ewald contribution        =   25682.37946433 Ry
     smearing contrib. (-TS)   =      -0.01971603 Ry

     convergence has been achieved in  35 iterations

     negative rho (up, down):  9.200E-02 0.000E+00

     Forces acting on atoms (cartesian axes, Ry/au):

     atom    1 type  4   force =    -0.00000783    0.00000000   -0.00048289
     atom    2 type  4   force =     0.00000783    0.00000000   -0.00048289
     atom    3 type  3   force =    -0.00000516    0.00000000    0.00011535
     atom    4 type  3   force =     0.00000516    0.00000000    0.00011535
     atom    5 type  4   force =     0.00000244    0.00000000    0.00009991
     atom    6 type  4   force =    -0.00000244    0.00000000    0.00009991
     atom    7 type  1   force =     0.00000000    0.00000000   -0.00037100
     atom    8 type  1   force =     0.00000000    0.00000000   -0.00033981
     atom    9 type  3   force =     0.00010575    0.00000000   -0.00030166
     atom   10 type  3   force =    -0.00010575    0.00000000   -0.00030166
     atom   11 type  4   force =     0.00000000    0.00000000    0.00105244
     atom   12 type  4   force =     0.00004531    0.00000000    0.00129037
     atom   13 type  4   force =    -0.00004531    0.00000000    0.00129037
     atom   14 type  4   force =     0.00000000    0.00000000    0.00137799
     atom   15 type  2   force =     0.00000000    0.00000000   -0.00312163
     atom   16 type  5   force =     0.00000000    0.00000000   -0.00461687
     atom   17 type  4   force =     0.00089727    0.00000000    0.00589552
     atom   18 type  4   force =    -0.00089727    0.00000000    0.00589552
     atom   19 type  4   force =     0.00000000    0.00000000    0.00384783
     atom   20 type  4   force =     0.00000000    0.00000000    0.00498631
     atom   21 type  3   force =     0.00052693    0.00000000   -0.00162396
     atom   22 type  3   force =    -0.00052693    0.00000000   -0.00162396
     atom   23 type  1   force =     0.00000000    0.00000000    0.00729082
     atom   24 type  1   force =     0.00000000    0.00000000    0.01359323
     atom   25 type  4   force =     0.00239599    0.00000000   -0.01747511
     atom   26 type  4   force =    -0.00239599    0.00000000   -0.01747511
     atom   27 type  4   force =    -0.01208060    0.00000000    0.02828708
     atom   28 type  4   force =     0.01208060    0.00000000    0.02828708
     atom   29 type  3   force =     0.01183550    0.00000000   -0.02097477
     atom   30 type  3   force =    -0.01183550    0.00000000   -0.02097477
     atom   31 type  4   force =     0.01411927    0.00000000    0.02436803
     atom   32 type  4   force =    -0.01411927    0.00000000    0.02436803
     atom   33 type  1   force =     0.00000000    0.00000000   -0.00946342
     atom   34 type  1   force =     0.00000000    0.00000000   -0.01723370
     atom   35 type  3   force =    -0.00340840    0.00000000   -0.02082277
     atom   36 type  3   force =     0.00340840    0.00000000   -0.02082277
     atom   37 type  4   force =     0.00000000    0.00000000    0.00344484
     atom   38 type  4   force =     0.00000000    0.00000000    0.00097052
     atom   39 type  4   force =     0.00275937    0.00000000    0.00061642
     atom   40 type  4   force =    -0.00275937    0.00000000    0.00061642
     atom   41 type  5   force =     0.00000000    0.00000000    0.00199068
     atom   42 type  2   force =     0.00000000    0.00000000    0.00036037
     atom   43 type  4   force =     0.00000000    0.00000000    0.00021132
     atom   44 type  4   force =     0.00003080    0.00000000   -0.00128084
     atom   45 type  4   force =    -0.00003080    0.00000000   -0.00128084
     atom   46 type  4   force =     0.00000000    0.00000000   -0.00006268
     atom   47 type  3   force =    -0.00003289    0.00000000    0.00033367
     atom   48 type  3   force =     0.00003289    0.00000000    0.00033367
     atom   49 type  1   force =     0.00000000    0.00000000    0.00017335
     atom   50 type  1   force =     0.00000000    0.00000000    0.00022365
     atom   51 type  4   force =    -0.00004354    0.00000000   -0.00073365
     atom   52 type  4   force =     0.00004354    0.00000000   -0.00073365
     atom   53 type  3   force =    -0.00003577    0.00000000    0.00089562
     atom   54 type  3   force =     0.00003577    0.00000000    0.00089562
     atom   55 type  4   force =     0.00002142    0.00000000   -0.00036340
     atom   56 type  4   force =    -0.00002142    0.00000000   -0.00036340

     Total force =     0.083487     Total SCF correction =     0.000326


     Computing stress (Cartesian axis) and pressure


     negative rho (up, down):  9.200E-02 0.000E+00
          total   stress  (Ry/bohr**3)                   (kbar)     P=       -6.05
  -0.00000156   0.00000000   0.00000000           -0.23        0.00        0.00
   0.00000000  -0.00008570   0.00000000            0.00      -12.61        0.00
   0.00000000   0.00000000  -0.00003612            0.00        0.00       -5.31

 
     init_run     :     24.31s CPU     25.07s WALL (       1 calls)
     electrons    :   1732.92s CPU   1798.80s WALL (       1 calls)
     forces       :     10.60s CPU     11.25s WALL (       1 calls)
     stress       :     93.30s CPU     94.82s WALL (       1 calls)

     Called by init_run:
     wfcinit      :     19.92s CPU     20.18s WALL (       1 calls)
     potinit      :      0.98s CPU      1.00s WALL (       1 calls)
     hinit0       :      1.57s CPU      1.60s WALL (       1 calls)

     Called by electrons:
     c_bands      :   1453.48s CPU   1483.05s WALL (      35 calls)
     sum_band     :    212.12s CPU    232.62s WALL (      35 calls)
     v_of_rho     :      3.67s CPU      3.73s WALL (      36 calls)
     newd         :     33.08s CPU     48.89s WALL (      36 calls)
     mix_rho      :     31.33s CPU     31.62s WALL (      35 calls)

     Called by c_bands:
     init_us_2    :      7.99s CPU      8.04s WALL (    1825 calls)
     cegterg      :   1387.51s CPU   1416.27s WALL (     875 calls)

     Called by sum_band:
     sum_band:bec :      0.99s CPU      0.99s WALL (     875 calls)
     addusdens    :     33.08s CPU     51.50s WALL (      35 calls)

     Called by *egterg:
     h_psi        :    646.69s CPU    658.14s WALL (    4450 calls)
     s_psi        :     99.34s CPU     99.83s WALL (    4450 calls)
     g_psi        :      1.46s CPU      1.47s WALL (    3550 calls)
     cdiaghg      :    330.12s CPU    331.35s WALL (    4425 calls)

     Called by h_psi:
     h_psi:calbec :    107.67s CPU    108.05s WALL (    4450 calls)
     vloc_psi     :    436.82s CPU    442.93s WALL (    4450 calls)
     add_vuspsi   :     99.68s CPU    100.08s WALL (    4450 calls)

     General routines
     calbec       :    174.21s CPU    174.80s WALL (    5450 calls)
     fft          :      2.95s CPU      2.98s WALL (     491 calls)
     ffts         :     17.64s CPU     17.80s WALL (   20731 calls)
     fftw         :    500.45s CPU    507.43s WALL ( 1244230 calls)
     interpolate  :      0.22s CPU      0.22s WALL (      36 calls)
 
     Parallel routines
     fft_scatt_xy :     60.07s CPU     60.96s WALL ( 1265452 calls)
     fft_scatt_yz :    323.52s CPU    328.04s WALL ( 1265452 calls)
 
     PWSCF        :  31m 2.16s CPU  32m11.51s WALL

 
   This run was terminated on:  10:32:32  28May2021            

=------------------------------------------------------------------------------=
   JOB DONE.
=------------------------------------------------------------------------------=
[1622212352.698933] [holy7c04101:173671:0]          mpool.c:43   UCX  WARN  object 0x3a59c40 was not returned to mpool ucp_requests
[1622212352.698055] [holy7c04106:107468:0]          mpool.c:43   UCX  WARN  object 0x33b7e40 was not returned to mpool ucp_requests
[1622212352.698073] [holy7c04106:107468:0]          mpool.c:43   UCX  WARN  object 0x33b81c0 was not returned to mpool ucp_requests
[1622212352.700621] [holy7c04103:132132:0]          mpool.c:43   UCX  WARN  object 0x38a3c80 was not returned to mpool ucp_requests
[1622212352.700641] [holy7c04103:132132:0]          mpool.c:43   UCX  WARN  object 0x38a4000 was not returned to mpool ucp_requests
[1622212352.702905] [holy7c04105:155963:0]          mpool.c:43   UCX  WARN  object 0x3bc4400 was not returned to mpool ucp_requests
[1622212352.702928] [holy7c04105:155963:0]          mpool.c:43   UCX  WARN  object 0x3bc45c0 was not returned to mpool ucp_requests
[1622212352.715347] [holy7c04107:228218:0]          mpool.c:43   UCX  WARN  object 0x3c83900 was not returned to mpool ucp_requests
[1622212352.699978] [holy7c04101:173672:0]          mpool.c:43   UCX  WARN  object 0x3f62d80 was not returned to mpool ucp_requests
[1622212352.699995] [holy7c04101:173672:0]          mpool.c:43   UCX  WARN  object 0x3f62f40 was not returned to mpool ucp_requests
[1622212352.709264] [holy7c04101:173670:0]          mpool.c:43   UCX  WARN  object 0x2e5c440 was not returned to mpool ucp_requests
[1622212352.700281] [holy7c04103:132134:0]          mpool.c:43   UCX  WARN  object 0x4327a80 was not returned to mpool ucp_requests
[1622212352.700311] [holy7c04103:132134:0]          mpool.c:43   UCX  WARN  object 0x4327c40 was not returned to mpool ucp_requests
[1622212352.709124] [holy7c04103:132133:0]          mpool.c:43   UCX  WARN  object 0x29b0180 was not returned to mpool ucp_requests
[1622212352.708508] [holy7c04104:87181:0]          mpool.c:43   UCX  WARN  object 0x45b39c0 was not returned to mpool ucp_requests
[1622212352.702932] [holy7c04105:155965:0]          mpool.c:43   UCX  WARN  object 0x3703300 was not returned to mpool ucp_requests
[1622212352.712377] [holy7c04105:155967:0]          mpool.c:43   UCX  WARN  object 0x477a140 was not returned to mpool ucp_requests
[1622212352.711658] [holy7c04107:228217:0]          mpool.c:43   UCX  WARN  object 0x2f50000 was not returned to mpool ucp_requests
