
     Program PWSCF v.6.5 starts on 27May2021 at 23:56: 5 

     This program is part of the open-source Quantum ESPRESSO suite
     for quantum simulation of materials; please cite
         "P. Giannozzi et al., J. Phys.:Condens. Matter 21 395502 (2009);
         "P. Giannozzi et al., J. Phys.:Condens. Matter 29 465901 (2017);
          URL http://www.quantum-espresso.org", 
     in publications or presentations arising from this work. More details at
     http://www.quantum-espresso.org/quote

     Parallel version (MPI), running on    32 processors

     MPI processes distributed on    19 nodes
     R & G space division:  proc/nbgrp/npool/nimage =      32
     Reading input from YCBCO50_212_Y_cleave_0.75_sep.pwi
Warning: card &IONS ignored
Warning: card     ION_DYNAMICS = 'BFGS' ignored
Warning: card / ignored
Warning: card &CELL ignored
Warning: card     CELL_DYNAMICS = 'BFGS' ignored
Warning: card     PRESS_CONV_THR = 5 ignored
Warning: card / ignored

     Current dimensions of program PWSCF are:
     Max number of different atomic species (ntypx) = 10
     Max number of k-points (npk) =  40000
     Max angular momentum in pseudopotentials (lmaxx) =  3

     Subspace diagonalization in iterative solution of the eigenvalue problem:
     one sub-group per band group will be used
     scalapack distributed-memory algorithm (size of sub-group:  5*  5 procs)

     Message from routine setup:
     using ibrav=0 with symmetry is DISCOURAGED, use correct ibrav instead
 
     Parallelization info
     --------------------
     sticks:   dense  smooth     PW     G-vecs:    dense   smooth      PW
     Min         188      62     17                90372    17384    2591
     Max         189      63     18                90400    17429    2632
     Sum        6019    2003    565              2892413   557031   83745
 


     bravais-lattice index     =            0
     lattice parameter (alat)  =      14.8133  a.u.
     unit-cell volume          =    8865.7494 (a.u.)^3
     number of atoms/cell      =           56
     number of atomic types    =            5
     number of electrons       =       456.00
     number of Kohn-Sham states=          274
     kinetic-energy cutoff     =      60.0000  Ry
     charge density cutoff     =     720.0000  Ry
     convergence threshold     =      1.0E-08
     mixing beta               =       0.5000
     number of iterations used =           10  local-TF  mixing
     Exchange-correlation= SLA PW PBE PBE
                           (   1   4   3   4   0   0   0)

     celldm(1)=  14.813271  celldm(2)=   0.000000  celldm(3)=   0.000000
     celldm(4)=   0.000000  celldm(5)=   0.000000  celldm(6)=   0.000000

     crystal axes: (cart. coord. in units of alat)
               a(1) = (   1.000000   0.000000   0.000000 )  
               a(2) = (   0.000000   0.477453   0.000000 )  
               a(3) = (   0.000000   0.000000   5.712578 )  

     reciprocal axes: (cart. coord. in units 2 pi/alat)
               b(1) = (  1.000000  0.000000  0.000000 )  
               b(2) = (  0.000000  2.094448  0.000000 )  
               b(3) = (  0.000000  0.000000  0.175052 )  


     PseudoPot. # 1 for Ba read from file:
     ./pseudo/Ba.pbe-nsp-van.UPF
     MD5 check sum: 2b9c31dd849566dd297d80989662b7a0
     Pseudo is Ultrasoft + core correction, Zval = 10.0
     Generated by new atomic code, or converted to UPF format
     Using radial grid of  907 points,  6 beta functions with: 
                l(1) =   0
                l(2) =   0
                l(3) =   1
                l(4) =   1
                l(5) =   2
                l(6) =   2
     Q(r) pseudized with  6 coefficients,  rinner =    1.200   1.200   1.200
                                                       1.200   1.200

     PseudoPot. # 2 for Ca read from file:
     ./pseudo/Ca.pbe-nsp-van.UPF
     MD5 check sum: 6471098428ff4fa451746d08035ff179
     Pseudo is Ultrasoft + core correction, Zval = 10.0
     Generated by new atomic code, or converted to UPF format
     Using radial grid of  845 points,  6 beta functions with: 
                l(1) =   0
                l(2) =   0
                l(3) =   1
                l(4) =   1
                l(5) =   2
                l(6) =   2
     Q(r) pseudized with  6 coefficients,  rinner =    1.200   1.200   1.200
                                                       1.200   1.200

     PseudoPot. # 3 for Cu read from file:
     ./pseudo/Cu.pbe-n-van_ak.UPF
     MD5 check sum: 34e3282627ffb533726feb647e090d62
     Pseudo is Ultrasoft + core correction, Zval = 11.0
     Generated by new atomic code, or converted to UPF format
     Using radial grid of  867 points,  6 beta functions with: 
                l(1) =   0
                l(2) =   0
                l(3) =   1
                l(4) =   1
                l(5) =   2
                l(6) =   2
     Q(r) pseudized with  8 coefficients,  rinner =    1.400   1.400   1.400
                                                       1.400   1.400

     PseudoPot. # 4 for O  read from file:
     ./pseudo/O.pbe-van_ak.UPF
     MD5 check sum: 783ce7fe4c79b6a4916957118fed0856
     Pseudo is Ultrasoft, Zval =  6.0
     Generated by new atomic code, or converted to UPF format
     Using radial grid of  737 points,  4 beta functions with: 
                l(1) =   0
                l(2) =   0
                l(3) =   1
                l(4) =   1
     Q(r) pseudized with  8 coefficients,  rinner =    0.800   0.800   0.800


     PseudoPot. # 5 for Y  read from file:
     ./pseudo/Y.pbe-nsp-van.UPF
     MD5 check sum: 4412fed3ab108fed87a1b7d6a69a4a38
     Pseudo is Ultrasoft + core correction, Zval = 11.0
     Generated by new atomic code, or converted to UPF format
     Using radial grid of  885 points,  6 beta functions with: 
                l(1) =   0
                l(2) =   0
                l(3) =   1
                l(4) =   1
                l(5) =   2
                l(6) =   2
     Q(r) pseudized with  6 coefficients,  rinner =    1.200   1.200   1.200
                                                       1.200   1.200

     atomic species   valence    mass     pseudopotential
        Ba            10.00   137.32700     Ba( 1.00)
        Ca            10.00    40.07800     Ca( 1.00)
        Cu            11.00    63.54600     Cu( 1.00)
        O              6.00    15.99900     O ( 1.00)
        Y             11.00    88.90584     Y ( 1.00)

      4 Sym. Ops. (no inversion) found ( 2 have fractional translation)



   Cartesian axes

     site n.     atom                  positions (alat units)
         1           O   tau(   1) = (  -0.0008343   0.2387265  -0.0222443  )
         2           O   tau(   2) = (   0.5008340   0.2387265  -0.0222443  )
         3           Cu  tau(   3) = (   0.5017257   0.0000000   0.0109608  )
         4           Cu  tau(   4) = (  -0.0017260   0.0000000   0.0109608  )
         5           O   tau(   5) = (  -0.0028933   0.0000000   0.2506504  )
         6           O   tau(   6) = (   0.5028929   0.0000000   0.2506504  )
         7           Ba  tau(   7) = (   0.7499995   0.2387265   0.2749435  )
         8           Ba  tau(   8) = (   0.2499998   0.2387265   0.2755214  )
         9           Cu  tau(   9) = (   0.4980963   0.0000000   0.5208446  )
        10           Cu  tau(  10) = (   0.0019033   0.0000000   0.5208446  )
        11           O   tau(  11) = (   0.2499998   0.0000000   0.5341884  )
        12           O   tau(  12) = (   0.5083351   0.2387265   0.5569851  )
        13           O   tau(  13) = (  -0.0083354   0.2387265   0.5569851  )
        14           O   tau(  14) = (   0.7499995   0.0000000   0.5573831  )
        15           Ca  tau(  15) = (   0.2499998   0.2387265   0.7436937  )
        16           Y   tau(  16) = (   0.7499995   0.2387265   0.7469544  )
        17           O   tau(  17) = (  -0.0063798   0.2387265   0.9248530  )
        18           O   tau(  18) = (   0.5063794   0.2387265   0.9248530  )
        19           O   tau(  19) = (   0.7499995   0.0000000   0.9338544  )
        20           O   tau(  20) = (   0.2499998   0.0000000   0.9461329  )
        21           Cu  tau(  21) = (   0.0015717   0.0000000   0.9686860  )
        22           Cu  tau(  22) = (   0.4984280   0.0000000   0.9686860  )
        23           Ba  tau(  23) = (   0.2499998   0.2387265   1.2085224  )
        24           Ba  tau(  24) = (   0.7499995   0.2387265   1.2233294  )
        25           O   tau(  25) = (   0.0063772   0.0000000   1.2547537  )
        26           O   tau(  26) = (   0.4936224   0.0000000   1.2547537  )
        27           O   tau(  27) = (   0.5384045   0.2387265   1.4952521  )
        28           O   tau(  28) = (  -0.0384049   0.2387265   1.4952521  )
        29           Cu  tau(  29) = (   0.5006120   0.0000000   1.4952546  )
        30           Cu  tau(  30) = (  -0.0006123   0.0000000   1.4952546  )
        31           O   tau(  31) = (   0.4936212   0.0000000   1.7357531  )
        32           O   tau(  32) = (   0.0063785   0.0000000   1.7357531  )
        33           Ba  tau(  33) = (   0.7499995   0.2387265   1.7671824  )
        34           Ba  tau(  34) = (   0.2499998   0.2387265   1.7819920  )
        35           Cu  tau(  35) = (   0.4984280   0.0000000   2.0218232  )
        36           Cu  tau(  36) = (   0.0015717   0.0000000   2.0218232  )
        37           O   tau(  37) = (   0.2499998   0.0000000   2.0443814  )
        38           O   tau(  38) = (   0.7499995   0.0000000   2.0566511  )
        39           O   tau(  39) = (   0.5063781   0.2387265   2.0656562  )
        40           O   tau(  40) = (  -0.0063785   0.2387265   2.0656562  )
        41           Y   tau(  41) = (   0.7499995   0.2387265   2.2435498  )
        42           Ca  tau(  42) = (   0.2499998   0.2387265   2.2468194  )
        43           O   tau(  43) = (   0.7499995   0.0000000   2.5287946  )
        44           O   tau(  44) = (  -0.0083354   0.2387265   2.5291964  )
        45           O   tau(  45) = (   0.5083351   0.2387265   2.5291964  )
        46           O   tau(  46) = (   0.2499998   0.0000000   2.5519944  )
        47           Cu  tau(  47) = (   0.0019059   0.0000000   2.5653280  )
        48           Cu  tau(  48) = (   0.4980938   0.0000000   2.5653280  )
        49           Ba  tau(  49) = (   0.2499998   0.2387265   2.8106677  )
        50           Ba  tau(  50) = (   0.7499995   0.2387265   2.8112099  )
        51           O   tau(  51) = (  -0.0028895   0.0000000   2.8355170  )
        52           O   tau(  52) = (   0.5028891   0.0000000   2.8355170  )
        53           Cu  tau(  53) = (   0.5017844   0.0000000   3.0752016  )
        54           Cu  tau(  54) = (  -0.0017847   0.0000000   3.0752016  )
        55           O   tau(  55) = (   0.5008990   0.2387265   3.1084080  )
        56           O   tau(  56) = (  -0.0008994   0.2387265   3.1084080  )

     number of k points=    25  Gaussian smearing, width (Ry)=  0.0100
                       cart. coord. in units 2pi/alat
        k(    1) = (   0.0000000   0.0000000   0.0000000), wk =   0.0312500
        k(    2) = (   0.0000000   0.2618060   0.0000000), wk =   0.0625000
        k(    3) = (   0.0000000   0.5236121   0.0000000), wk =   0.0625000
        k(    4) = (   0.0000000   0.7854181   0.0000000), wk =   0.0625000
        k(    5) = (   0.0000000  -1.0472241   0.0000000), wk =   0.0312500
        k(    6) = (   0.1250000   0.0000000   0.0000000), wk =   0.0625000
        k(    7) = (   0.1250000   0.2618060   0.0000000), wk =   0.1250000
        k(    8) = (   0.1250000   0.5236121   0.0000000), wk =   0.1250000
        k(    9) = (   0.1250000   0.7854181   0.0000000), wk =   0.1250000
        k(   10) = (   0.1250000  -1.0472241   0.0000000), wk =   0.0625000
        k(   11) = (   0.2500000   0.0000000   0.0000000), wk =   0.0625000
        k(   12) = (   0.2500000   0.2618060   0.0000000), wk =   0.1250000
        k(   13) = (   0.2500000   0.5236121   0.0000000), wk =   0.1250000
        k(   14) = (   0.2500000   0.7854181   0.0000000), wk =   0.1250000
        k(   15) = (   0.2500000  -1.0472241   0.0000000), wk =   0.0625000
        k(   16) = (   0.3750000   0.0000000   0.0000000), wk =   0.0625000
        k(   17) = (   0.3750000   0.2618060   0.0000000), wk =   0.1250000
        k(   18) = (   0.3750000   0.5236121   0.0000000), wk =   0.1250000
        k(   19) = (   0.3750000   0.7854181   0.0000000), wk =   0.1250000
        k(   20) = (   0.3750000  -1.0472241   0.0000000), wk =   0.0625000
        k(   21) = (  -0.5000000   0.0000000   0.0000000), wk =   0.0312500
        k(   22) = (  -0.5000000   0.2618060   0.0000000), wk =   0.0625000
        k(   23) = (  -0.5000000   0.5236121   0.0000000), wk =   0.0625000
        k(   24) = (  -0.5000000   0.7854181   0.0000000), wk =   0.0625000
        k(   25) = (  -0.5000000  -1.0472241   0.0000000), wk =   0.0312500

     Dense  grid:  2892413 G-vectors     FFT dimensions: ( 128,  64, 729)

     Smooth grid:   557031 G-vectors     FFT dimensions: (  80,  36, 432)

     Estimated max dynamical RAM per process >     837.98 MB

     Estimated total dynamical RAM >      26.19 GB

     Initial potential from superposition of free atoms

     starting charge  455.69457, renormalised to  456.00000

     negative rho (up, down):  9.342E-02 0.000E+00
     Starting wfcs are  396 randomized atomic wfcs

     total cpu time spent up to now is       27.5 secs

     Self-consistent Calculation

     iteration #  1     ecut=    60.00 Ry     beta= 0.50
     Davidson diagonalization with overlap
     ethr =  1.00E-02,  avg # of iterations =  2.0

     negative rho (up, down):  8.588E-02 0.000E+00

     total cpu time spent up to now is       75.9 secs

     total energy              =   -3708.47131231 Ry
     Harris-Foulkes estimate   =   -3716.34815912 Ry
     estimated scf accuracy    <      29.99458372 Ry

     iteration #  2     ecut=    60.00 Ry     beta= 0.50
     Davidson diagonalization with overlap
     ethr =  6.58E-03,  avg # of iterations =  2.0

     negative rho (up, down):  8.533E-02 0.000E+00

     total cpu time spent up to now is      124.5 secs

     total energy              =   -3711.13785331 Ry
     Harris-Foulkes estimate   =   -3712.23899211 Ry
     estimated scf accuracy    <       5.31332637 Ry

     iteration #  3     ecut=    60.00 Ry     beta= 0.50
     Davidson diagonalization with overlap
     ethr =  1.17E-03,  avg # of iterations =  2.0

     negative rho (up, down):  8.559E-02 0.000E+00

     total cpu time spent up to now is      177.1 secs

     total energy              =   -3711.65747707 Ry
     Harris-Foulkes estimate   =   -3711.91404820 Ry
     estimated scf accuracy    <       7.00249769 Ry

     iteration #  4     ecut=    60.00 Ry     beta= 0.50
     Davidson diagonalization with overlap
     ethr =  1.17E-03,  avg # of iterations =  1.0

     negative rho (up, down):  8.613E-02 0.000E+00

     total cpu time spent up to now is      221.3 secs

     total energy              =   -3711.67070181 Ry
     Harris-Foulkes estimate   =   -3711.77966039 Ry
     estimated scf accuracy    <       2.53256343 Ry

     iteration #  5     ecut=    60.00 Ry     beta= 0.50
     Davidson diagonalization with overlap
     ethr =  5.55E-04,  avg # of iterations =  1.1

     negative rho (up, down):  8.762E-02 0.000E+00

     total cpu time spent up to now is      265.5 secs

     total energy              =   -3711.59667564 Ry
     Harris-Foulkes estimate   =   -3711.71840376 Ry
     estimated scf accuracy    <       2.01925620 Ry

     iteration #  6     ecut=    60.00 Ry     beta= 0.50
     Davidson diagonalization with overlap
     ethr =  4.43E-04,  avg # of iterations =  5.3

     negative rho (up, down):  8.831E-02 0.000E+00

     total cpu time spent up to now is      322.2 secs

     total energy              =   -3711.61616675 Ry
     Harris-Foulkes estimate   =   -3711.63877597 Ry
     estimated scf accuracy    <       1.75057627 Ry

     iteration #  7     ecut=    60.00 Ry     beta= 0.50
     Davidson diagonalization with overlap
     ethr =  3.84E-04,  avg # of iterations =  2.6

     negative rho (up, down):  8.922E-02 0.000E+00

     total cpu time spent up to now is      371.1 secs

     total energy              =   -3711.60624935 Ry
     Harris-Foulkes estimate   =   -3711.62674310 Ry
     estimated scf accuracy    <       0.93166833 Ry

     iteration #  8     ecut=    60.00 Ry     beta= 0.50
     Davidson diagonalization with overlap
     ethr =  2.04E-04,  avg # of iterations =  7.5

     negative rho (up, down):  8.994E-02 0.000E+00

     total cpu time spent up to now is      437.5 secs

     total energy              =   -3711.59878892 Ry
     Harris-Foulkes estimate   =   -3711.61905709 Ry
     estimated scf accuracy    <       1.11270762 Ry

     iteration #  9     ecut=    60.00 Ry     beta= 0.50
     Davidson diagonalization with overlap
     ethr =  2.04E-04,  avg # of iterations =  1.9

     negative rho (up, down):  9.013E-02 0.000E+00

     total cpu time spent up to now is      485.0 secs

     total energy              =   -3711.59809957 Ry
     Harris-Foulkes estimate   =   -3711.60560958 Ry
     estimated scf accuracy    <       0.34560972 Ry

     iteration # 10     ecut=    60.00 Ry     beta= 0.50
     Davidson diagonalization with overlap
     ethr =  7.58E-05,  avg # of iterations =  6.0

     negative rho (up, down):  9.005E-02 0.000E+00

     total cpu time spent up to now is      545.7 secs

     total energy              =   -3711.59316201 Ry
     Harris-Foulkes estimate   =   -3711.60020939 Ry
     estimated scf accuracy    <       0.21210879 Ry

     iteration # 11     ecut=    60.00 Ry     beta= 0.50
     Davidson diagonalization with overlap
     ethr =  4.65E-05,  avg # of iterations =  4.9

     negative rho (up, down):  8.978E-02 0.000E+00

     total cpu time spent up to now is      601.8 secs

     total energy              =   -3711.59373499 Ry
     Harris-Foulkes estimate   =   -3711.59512757 Ry
     estimated scf accuracy    <       0.20750106 Ry

     iteration # 12     ecut=    60.00 Ry     beta= 0.50
     Davidson diagonalization with overlap
     ethr =  4.55E-05,  avg # of iterations =  1.0

     negative rho (up, down):  8.955E-02 0.000E+00

     total cpu time spent up to now is      645.9 secs

     total energy              =   -3711.59130105 Ry
     Harris-Foulkes estimate   =   -3711.59427067 Ry
     estimated scf accuracy    <       0.13796493 Ry

     iteration # 13     ecut=    60.00 Ry     beta= 0.50
     Davidson diagonalization with overlap
     ethr =  3.03E-05,  avg # of iterations =  3.6

     negative rho (up, down):  8.937E-02 0.000E+00

     total cpu time spent up to now is      697.0 secs

     total energy              =   -3711.58948674 Ry
     Harris-Foulkes estimate   =   -3711.59180635 Ry
     estimated scf accuracy    <       0.10555415 Ry

     iteration # 14     ecut=    60.00 Ry     beta= 0.50
     Davidson diagonalization with overlap
     ethr =  2.31E-05,  avg # of iterations =  3.4

     negative rho (up, down):  9.994E-02 0.000E+00

     total cpu time spent up to now is      748.3 secs

     total energy              =   -3711.58693616 Ry
     Harris-Foulkes estimate   =   -3711.58973881 Ry
     estimated scf accuracy    <       0.06433968 Ry

     iteration # 15     ecut=    60.00 Ry     beta= 0.50
     Davidson diagonalization with overlap
     ethr =  1.41E-05,  avg # of iterations =  9.4

     negative rho (up, down):  1.012E-01 0.000E+00

     total cpu time spent up to now is      819.1 secs

     total energy              =   -3711.58582353 Ry
     Harris-Foulkes estimate   =   -3711.58740764 Ry
     estimated scf accuracy    <       0.04183698 Ry

     iteration # 16     ecut=    60.00 Ry     beta= 0.50
     Davidson diagonalization with overlap
     c_bands:  3 eigenvalues not converged
     ethr =  9.17E-06,  avg # of iterations =  4.0

     negative rho (up, down):  1.198E-01 0.000E+00

     total cpu time spent up to now is      871.2 secs

     total energy              =   -3711.58358204 Ry
     Harris-Foulkes estimate   =   -3711.58602748 Ry
     estimated scf accuracy    <       0.02920827 Ry

     iteration # 17     ecut=    60.00 Ry     beta= 0.50
     Davidson diagonalization with overlap
     ethr =  6.41E-06,  avg # of iterations = 11.3

     negative rho (up, down):  1.166E-01 0.000E+00

     total cpu time spent up to now is      950.2 secs

     total energy              =   -3711.58258987 Ry
     Harris-Foulkes estimate   =   -3711.58391748 Ry
     estimated scf accuracy    <       0.01092825 Ry

     iteration # 18     ecut=    60.00 Ry     beta= 0.50
     Davidson diagonalization with overlap
     ethr =  2.40E-06,  avg # of iterations =  8.7

     negative rho (up, down):  1.026E-01 0.000E+00

     total cpu time spent up to now is     1020.2 secs

     total energy              =   -3711.58203447 Ry
     Harris-Foulkes estimate   =   -3711.58273073 Ry
     estimated scf accuracy    <       0.00430875 Ry

     iteration # 19     ecut=    60.00 Ry     beta= 0.50
     Davidson diagonalization with overlap
     ethr =  9.45E-07,  avg # of iterations =  6.2

     negative rho (up, down):  8.969E-02 0.000E+00

     total cpu time spent up to now is     1082.7 secs

     total energy              =   -3711.58188037 Ry
     Harris-Foulkes estimate   =   -3711.58209370 Ry
     estimated scf accuracy    <       0.00276053 Ry

     iteration # 20     ecut=    60.00 Ry     beta= 0.50
     Davidson diagonalization with overlap
     c_bands:  1 eigenvalues not converged
     c_bands:  1 eigenvalues not converged
     ethr =  6.05E-07,  avg # of iterations =  9.0

     negative rho (up, down):  9.056E-02 0.000E+00

     total cpu time spent up to now is     1153.7 secs

     total energy              =   -3711.58191684 Ry
     Harris-Foulkes estimate   =   -3711.58192602 Ry
     estimated scf accuracy    <       0.00091193 Ry

     iteration # 21     ecut=    60.00 Ry     beta= 0.50
     Davidson diagonalization with overlap
     ethr =  2.00E-07,  avg # of iterations =  5.6

     negative rho (up, down):  9.082E-02 0.000E+00

     total cpu time spent up to now is     1212.5 secs

     total energy              =   -3711.58193121 Ry
     Harris-Foulkes estimate   =   -3711.58194345 Ry
     estimated scf accuracy    <       0.00047544 Ry

     iteration # 22     ecut=    60.00 Ry     beta= 0.50
     Davidson diagonalization with overlap
     ethr =  1.04E-07,  avg # of iterations =  3.8

     negative rho (up, down):  9.116E-02 0.000E+00

     total cpu time spent up to now is     1266.3 secs

     total energy              =   -3711.58195780 Ry
     Harris-Foulkes estimate   =   -3711.58193908 Ry
     estimated scf accuracy    <       0.00024105 Ry

     iteration # 23     ecut=    60.00 Ry     beta= 0.50
     Davidson diagonalization with overlap
     ethr =  5.29E-08,  avg # of iterations =  2.0

     negative rho (up, down):  9.132E-02 0.000E+00

     total cpu time spent up to now is     1312.6 secs

     total energy              =   -3711.58198080 Ry
     Harris-Foulkes estimate   =   -3711.58196094 Ry
     estimated scf accuracy    <       0.00007998 Ry

     iteration # 24     ecut=    60.00 Ry     beta= 0.50
     Davidson diagonalization with overlap
     ethr =  1.75E-08,  avg # of iterations =  3.7

     negative rho (up, down):  9.149E-02 0.000E+00

     total cpu time spent up to now is     1366.6 secs

     total energy              =   -3711.58198385 Ry
     Harris-Foulkes estimate   =   -3711.58198553 Ry
     estimated scf accuracy    <       0.00001593 Ry

     iteration # 25     ecut=    60.00 Ry     beta= 0.50
     Davidson diagonalization with overlap
     ethr =  3.49E-09,  avg # of iterations =  1.6

     negative rho (up, down):  9.161E-02 0.000E+00

     total cpu time spent up to now is     1413.2 secs

     total energy              =   -3711.58198496 Ry
     Harris-Foulkes estimate   =   -3711.58198527 Ry
     estimated scf accuracy    <       0.00001801 Ry

     iteration # 26     ecut=    60.00 Ry     beta= 0.50
     Davidson diagonalization with overlap
     ethr =  3.49E-09,  avg # of iterations =  1.0

     negative rho (up, down):  9.162E-02 0.000E+00

     total cpu time spent up to now is     1458.0 secs

     total energy              =   -3711.58198508 Ry
     Harris-Foulkes estimate   =   -3711.58198531 Ry
     estimated scf accuracy    <       0.00000748 Ry

     iteration # 27     ecut=    60.00 Ry     beta= 0.50
     Davidson diagonalization with overlap
     ethr =  1.64E-09,  avg # of iterations =  1.0

     negative rho (up, down):  9.155E-02 0.000E+00

     total cpu time spent up to now is     1501.7 secs

     total energy              =   -3711.58198531 Ry
     Harris-Foulkes estimate   =   -3711.58198524 Ry
     estimated scf accuracy    <       0.00000430 Ry

     iteration # 28     ecut=    60.00 Ry     beta= 0.50
     Davidson diagonalization with overlap
     ethr =  9.42E-10,  avg # of iterations =  1.0

     negative rho (up, down):  9.172E-02 0.000E+00

     total cpu time spent up to now is     1545.5 secs

     total energy              =   -3711.58198490 Ry
     Harris-Foulkes estimate   =   -3711.58198541 Ry
     estimated scf accuracy    <       0.00000147 Ry

     iteration # 29     ecut=    60.00 Ry     beta= 0.50
     Davidson diagonalization with overlap
     ethr =  3.21E-10,  avg # of iterations =  1.6

     negative rho (up, down):  9.175E-02 0.000E+00

     total cpu time spent up to now is     1591.3 secs

     total energy              =   -3711.58198492 Ry
     Harris-Foulkes estimate   =   -3711.58198499 Ry
     estimated scf accuracy    <       0.00000316 Ry

     iteration # 30     ecut=    60.00 Ry     beta= 0.50
     Davidson diagonalization with overlap
     ethr =  3.21E-10,  avg # of iterations =  1.0

     negative rho (up, down):  9.171E-02 0.000E+00

     total cpu time spent up to now is     1636.0 secs

     total energy              =   -3711.58198502 Ry
     Harris-Foulkes estimate   =   -3711.58198494 Ry
     estimated scf accuracy    <       0.00000275 Ry

     iteration # 31     ecut=    60.00 Ry     beta= 0.50
     Davidson diagonalization with overlap
     ethr =  3.21E-10,  avg # of iterations =  1.0

     negative rho (up, down):  9.160E-02 0.000E+00

     total cpu time spent up to now is     1682.5 secs

     total energy              =   -3711.58198511 Ry
     Harris-Foulkes estimate   =   -3711.58198503 Ry
     estimated scf accuracy    <       0.00000212 Ry

     iteration # 32     ecut=    60.00 Ry     beta= 0.50
     Davidson diagonalization with overlap
     ethr =  3.21E-10,  avg # of iterations =  1.0

     negative rho (up, down):  9.169E-02 0.000E+00

     total cpu time spent up to now is     1726.4 secs

     total energy              =   -3711.58198494 Ry
     Harris-Foulkes estimate   =   -3711.58198515 Ry
     estimated scf accuracy    <       0.00000036 Ry

     iteration # 33     ecut=    60.00 Ry     beta= 0.50
     Davidson diagonalization with overlap
     ethr =  7.82E-11,  avg # of iterations =  2.0

     negative rho (up, down):  9.173E-02 0.000E+00

     total cpu time spent up to now is     1772.5 secs

     total energy              =   -3711.58198488 Ry
     Harris-Foulkes estimate   =   -3711.58198496 Ry
     estimated scf accuracy    <       0.00000049 Ry

     iteration # 34     ecut=    60.00 Ry     beta= 0.50
     Davidson diagonalization with overlap
     ethr =  7.82E-11,  avg # of iterations =  1.0

     negative rho (up, down):  9.173E-02 0.000E+00

     total cpu time spent up to now is     1816.3 secs

     total energy              =   -3711.58198488 Ry
     Harris-Foulkes estimate   =   -3711.58198489 Ry
     estimated scf accuracy    <       0.00000014 Ry

     iteration # 35     ecut=    60.00 Ry     beta= 0.50
     Davidson diagonalization with overlap
     ethr =  3.05E-11,  avg # of iterations =  1.0

     negative rho (up, down):  9.174E-02 0.000E+00

     total cpu time spent up to now is     1859.3 secs

     total energy              =   -3711.58198487 Ry
     Harris-Foulkes estimate   =   -3711.58198488 Ry
     estimated scf accuracy    <       0.00000001 Ry

     iteration # 36     ecut=    60.00 Ry     beta= 0.50
     Davidson diagonalization with overlap
     ethr =  2.96E-12,  avg # of iterations =  3.5

     negative rho (up, down):  9.175E-02 0.000E+00

     total cpu time spent up to now is     1911.0 secs

     total energy              =   -3711.58198486 Ry
     Harris-Foulkes estimate   =   -3711.58198487 Ry
     estimated scf accuracy    <       0.00000002 Ry

     iteration # 37     ecut=    60.00 Ry     beta= 0.50
     Davidson diagonalization with overlap
     ethr =  2.96E-12,  avg # of iterations =  1.0

     negative rho (up, down):  9.175E-02 0.000E+00

     total cpu time spent up to now is     1954.1 secs

     End of self-consistent calculation

          k = 0.0000 0.0000 0.0000 ( 69653 PWs)   bands (ev):

   -39.8103 -37.9751 -37.2257 -35.6018 -22.7702 -22.6999 -22.6418 -22.6251
   -22.5625 -22.4982 -22.4908 -22.3368 -19.9100 -19.8372 -19.7469 -18.4505
   -18.3464 -18.3211 -18.2709 -18.2282 -17.9783 -16.9499 -16.8149 -16.6314
   -15.5084 -15.3623 -15.0530 -14.9340 -14.8578 -14.8520 -14.8082 -14.8056
   -14.6550 -14.6056 -14.5062 -14.4292 -14.4073 -14.4059 -14.3670 -14.3142
   -14.2590 -14.0529 -13.9504 -13.9425 -13.9380 -13.9378 -13.9328 -13.8988
   -13.8979 -13.8357 -13.5885 -13.5443 -13.5381 -13.4554  -8.0368  -8.0080
    -7.9294  -7.8991  -7.8197  -7.7876  -7.7363  -7.7139  -7.6941  -7.6863
    -7.6815  -7.6607  -7.5852  -7.5739  -7.5505  -7.5216  -7.4686  -7.4627
    -7.4435  -7.3681  -7.3581  -7.3105  -7.2925  -7.1426  -3.1033  -2.9370
    -2.7603  -2.6809  -2.3240  -2.1775  -2.1270  -2.0808  -2.0489  -2.0387
    -2.0225  -1.9924  -1.9898  -1.8591  -1.8337  -1.8244  -1.7869  -1.7474
    -1.6155  -1.5794  -1.4804  -1.4591  -1.4544  -1.3905  -1.3335  -1.2805
    -1.2685  -1.2222  -1.2146  -1.1709  -1.1184  -1.0953  -1.0559  -0.9079
    -0.9014  -0.8763  -0.8754  -0.8748  -0.8739  -0.8610  -0.8256  -0.8187
    -0.7827  -0.7339  -0.6710  -0.6651  -0.6483  -0.6218  -0.6182  -0.5792
    -0.4836  -0.4738  -0.3761  -0.2771  -0.2546  -0.2094  -0.2025  -0.1875
    -0.1350  -0.1329  -0.0897  -0.0850  -0.0772  -0.0583  -0.0158   0.0406
     0.0553   0.0845   0.0914   0.1026   0.1034   0.1191   0.1423   0.1518
     0.1768   0.2234   0.2254   0.2407   0.2838   0.3141   0.3192   0.3485
     0.3533   0.3584   0.3849   0.4276   0.4335   0.4439   0.4558   0.4617
     0.4695   0.5179   0.5826   0.6302   0.6451   0.6526   0.6568   0.6901
     0.7067   0.7651   0.8503   0.8737   0.8876   1.0083   1.0373   1.0557
     1.0779   1.0887   1.1422   1.1453   1.1790   1.2164   1.2367   1.3129
     1.3134   1.3214   1.3325   1.3390   1.3507   1.4451   1.4510   1.4644
     1.5142   1.5373   1.5411   1.5716   1.6014   1.6393   1.6958   1.7255
     1.7538   1.7797   1.8120   1.8146   1.8384   1.8677   1.8895   1.9153
     1.9336   1.9424   2.0342   2.0805   2.1616   2.1712   2.1996   2.2791
     2.2829   2.3393   2.3530   2.3714   2.4176   2.4291   2.4940   2.5113
     2.6222   2.6761   2.6838   2.7931   2.9676   2.9838   4.6530   5.3268
     5.4079   5.8207   6.2022   6.3332   6.5462   6.6818   6.7305   6.7374
     6.7895   6.9852   7.2502   7.3762   7.4415   7.4554   7.4699   7.4900
     7.6651   7.8370   8.1501   8.2262   8.2366   8.2512   8.2561   8.3587
     8.3808   8.5583   8.5607   8.6080   8.6411   8.7257   8.9060   8.9694
     8.9926   9.0237

          k = 0.0000 0.2618 0.0000 ( 69651 PWs)   bands (ev):

   -39.8081 -37.9724 -37.2243 -35.6001 -22.7456 -22.6763 -22.6227 -22.6003
   -22.5437 -22.4792 -22.4672 -22.3180 -19.9059 -19.8608 -19.7601 -18.4118
   -18.3391 -18.3184 -18.2888 -18.2294 -18.0892 -16.9204 -16.8105 -16.6975
   -15.4546 -15.2563 -15.0106 -14.8777 -14.8096 -14.7949 -14.7945 -14.7419
   -14.6095 -14.5671 -14.5044 -14.4044 -14.3974 -14.3830 -14.3432 -14.2760
   -14.2222 -14.0491 -13.9994 -13.9500 -13.9382 -13.9278 -13.9166 -13.8965
   -13.8733 -13.8631 -13.5929 -13.5922 -13.5773 -13.5179  -8.0451  -8.0013
    -7.9220  -7.9120  -7.7821  -7.7760  -7.7472  -7.7300  -7.7240  -7.7170
    -7.6647  -7.6542  -7.6523  -7.6505  -7.6134  -7.6106  -7.5926  -7.5898
    -7.5759  -7.5182  -7.4683  -7.4079  -7.3786  -7.3551  -3.2107  -3.0360
    -2.8223  -2.7240  -2.5390  -2.2444  -2.2068  -2.1547  -2.1392  -2.0904
    -2.0762  -2.0741  -2.0249  -2.0113  -1.9958  -1.9275  -1.8412  -1.8271
    -1.7700  -1.7316  -1.6682  -1.6504  -1.6043  -1.5732  -1.5610  -1.5588
    -1.4058  -1.3306  -1.3206  -1.3125  -1.2970  -1.2894  -1.2888  -1.2565
    -1.1930  -1.1832  -1.0933  -0.9857  -0.9287  -0.8847  -0.8024  -0.7847
    -0.7396  -0.7247  -0.7141  -0.6634  -0.6571  -0.6160  -0.5642  -0.5214
    -0.4747  -0.4496  -0.3171  -0.3005  -0.2881  -0.2778  -0.2569  -0.2440
    -0.2230  -0.2132  -0.2094  -0.1297  -0.1277  -0.0737  -0.0504  -0.0375
    -0.0045   0.0436   0.0914   0.1071   0.1081   0.1504   0.1917   0.2015
     0.2314   0.2531   0.2565   0.2761   0.2888   0.2949   0.3176   0.3821
     0.3832   0.3844   0.4127   0.4545   0.4697   0.4719   0.4782   0.4876
     0.4999   0.5211   0.5264   0.5380   0.5780   0.6067   0.7359   0.7633
     0.7653   0.8712   0.9191   0.9370   0.9501   1.0250   1.0700   1.1132
     1.1693   1.2007   1.2176   1.2223   1.2494   1.3046   1.3115   1.3303
     1.3440   1.3772   1.4031   1.4093   1.4293   1.4614   1.4699   1.4992
     1.5020   1.5569   1.5920   1.5978   1.6307   1.6709   1.7159   1.7329
     1.7356   1.7903   1.8045   1.8220   1.8435   1.9017   1.9092   1.9134
     1.9204   1.9427   2.0084   2.1039   2.1526   2.1596   2.1733   2.2104
     2.2310   2.3242   2.3883   2.5801   2.9060   2.9325   2.9575   2.9663
     2.9939   3.0704   3.0766   3.1685   3.2455   3.3294   4.9093   5.7091
     5.7557   6.0192   6.1611   6.3952   6.4645   6.6387   7.0064   7.0562
     7.1246   7.2115   7.2626   7.2758   7.4267   7.5748   7.6926   7.8061
     7.8384   7.8682   8.0117   8.0220   8.2020   8.3234   8.3967   8.4391
     8.5443   8.6937   8.7870   8.8088   8.8480   8.8782   9.0108   9.0229
     9.1369   9.2108

          k = 0.0000 0.5236 0.0000 ( 69545 PWs)   bands (ev):

   -39.8030 -37.9659 -37.2210 -35.5960 -22.6850 -22.6183 -22.5759 -22.5391
   -22.4977 -22.4325 -22.4094 -22.2718 -19.9620 -19.8958 -19.7439 -18.3507
   -18.3294 -18.3216 -18.3122 -18.3121 -18.2121 -16.8499 -16.8377 -16.8000
   -15.3144 -15.0165 -14.9079 -14.7893 -14.7286 -14.6899 -14.6440 -14.5685
   -14.5652 -14.4933 -14.4717 -14.4286 -14.4075 -14.3920 -14.1860 -14.1750
   -14.1318 -14.1118 -14.0444 -13.9597 -13.9342 -13.9128 -13.8857 -13.8764
   -13.8684 -13.7764 -13.7256 -13.6715 -13.6551 -13.6231  -8.1890  -8.1281
    -8.0539  -8.0295  -7.9873  -7.9646  -7.9273  -7.9099  -7.9094  -7.8936
    -7.8699  -7.7882  -7.7482  -7.7152  -7.7104  -7.7083  -7.7037  -7.6591
    -7.6577  -7.6116  -7.5303  -7.5189  -7.4900  -7.3192  -3.5979  -3.4262
    -3.0686  -2.9336  -2.9177  -2.7293  -2.5595  -2.4673  -2.4640  -2.4542
    -2.3828  -2.3571  -2.2020  -2.1754  -2.1754  -2.1428  -2.1332  -2.0994
    -2.0935  -2.0294  -1.9981  -1.9913  -1.9813  -1.9787  -1.9687  -1.9654
    -1.8661  -1.6816  -1.6260  -1.5751  -1.5029  -1.4922  -1.4335  -1.3739
    -1.2581  -1.1866  -1.1261  -1.1220  -1.0499  -0.8706  -0.8618  -0.8588
    -0.8584  -0.7957  -0.7417  -0.7324  -0.7321  -0.6955  -0.6487  -0.6340
    -0.5879  -0.5655  -0.5553  -0.5444  -0.5251  -0.5016  -0.4658  -0.4474
    -0.4436  -0.4205  -0.4140  -0.4071  -0.3938  -0.3128  -0.2902  -0.2839
    -0.2433  -0.2321  -0.1700  -0.1482  -0.0561  -0.0147   0.1320   0.1603
     0.2433   0.2783   0.3061   0.3200   0.3464   0.3709   0.3898   0.4157
     0.4213   0.4705   0.5156   0.5410   0.5649   0.7080   0.7331   0.7553
     0.8321   0.8462   0.8794   0.9122   0.9279   0.9358   1.0295   1.1265
     1.1364   1.1548   1.1861   1.2264   1.2375   1.2464   1.3017   1.3054
     1.3252   1.3453   1.3566   1.3639   1.3986   1.3990   1.4137   1.4183
     1.4275   1.4626   1.4957   1.5165   1.5338   1.5436   1.5619   1.5866
     1.6148   1.6295   1.6826   1.6919   1.6986   1.8160   1.8304   1.8497
     1.8713   1.8890   1.9183   1.9553   1.9609   1.9821   2.0018   2.0195
     2.0328   2.1031   2.1277   2.1296   2.1778   2.1826   2.2262   2.2925
     2.3123   2.3561   2.4335   2.6788   3.1797   3.1974   3.2185   3.2529
     3.7562   3.7776   3.8522   3.9303   4.0572   4.0723   5.4557   5.6754
     6.0561   6.6103   6.6382   6.6982   6.7306   6.8372   7.0277   7.0700
     7.2123   7.2744   7.3199   7.7119   7.8162   7.9133   8.0111   8.2339
     8.2870   8.3489   8.4499   8.4989   8.5281   8.5962   8.7469   8.7548
     8.8142   8.8405   8.9000   8.9468   8.9868   9.0629   9.1553   9.3651
     9.3682   9.4180

          k = 0.0000 0.7854 0.0000 ( 69548 PWs)   bands (ev):

   -39.7978 -37.9594 -37.2176 -35.5919 -22.6227 -22.5585 -22.5279 -22.4760
   -22.4506 -22.3848 -22.3499 -22.2244 -20.0716 -19.8857 -19.7137 -18.5384
   -18.4151 -18.3058 -18.3042 -18.2061 -18.1904 -16.9722 -16.7897 -16.7640
   -15.1407 -14.8169 -14.8036 -14.8034 -14.6775 -14.6675 -14.5477 -14.5221
   -14.4634 -14.4625 -14.4030 -14.3155 -14.3030 -14.2924 -14.2338 -14.1095
   -14.0640 -14.0441 -14.0418 -13.9470 -13.8982 -13.8880 -13.8616 -13.8548
   -13.8304 -13.8242 -13.8202 -13.7520 -13.7357 -13.6635  -8.5841  -8.4856
    -8.4559  -8.3246  -8.2701  -8.2180  -8.2040  -8.0498  -7.9681  -7.9502
    -7.8996  -7.8794  -7.8574  -7.7842  -7.7637  -7.7490  -7.7264  -7.6942
    -7.5951  -7.5581  -7.5379  -7.4147  -7.4076  -7.2096  -4.0550  -3.9105
    -3.4727  -3.3423  -3.2430  -3.1366  -3.0505  -2.9274  -2.8982  -2.8702
    -2.7501  -2.7289  -2.6844  -2.6793  -2.5504  -2.5033  -2.4031  -2.3511
    -2.3281  -2.2313  -2.0980  -2.0807  -2.0335  -2.0313  -2.0145  -2.0009
    -1.8230  -1.8004  -1.7622  -1.7236  -1.6616  -1.5486  -1.5227  -1.4380
    -1.3611  -1.3006  -1.1634  -1.1462  -1.0850  -1.0645  -1.0204  -0.9893
    -0.9833  -0.9390  -0.9076  -0.8608  -0.8577  -0.8190  -0.8159  -0.8124
    -0.7999  -0.7677  -0.7556  -0.7337  -0.7177  -0.6760  -0.6716  -0.6385
    -0.6304  -0.6176  -0.5830  -0.5730  -0.5375  -0.5162  -0.4921  -0.4690
    -0.4446  -0.4282  -0.2317  -0.1028  -0.0917  -0.0424   0.0322   0.0629
     0.1320   0.1761   0.3210   0.3578   0.3737   0.3846   0.4035   0.4458
     0.5107   0.5547   0.6430   0.7938   0.8687   0.9198   0.9778   0.9872
     1.0160   1.0520   1.1109   1.1158   1.1293   1.1469   1.1751   1.2090
     1.2405   1.2758   1.3409   1.3755   1.3831   1.3893   1.4388   1.4419
     1.4579   1.4746   1.5160   1.5387   1.5619   1.5675   1.5690   1.5992
     1.6374   1.6400   1.7191   1.7499   1.7674   1.7800   1.7966   1.8088
     1.8258   1.8320   1.8510   1.8800   1.8855   1.9358   1.9364   1.9557
     1.9684   2.0229   2.0861   2.1094   2.1106   2.1164   2.1484   2.1521
     2.1913   2.3007   2.3218   2.3575   2.3651   2.3802   2.4186   2.4611
     2.5820   2.5876   2.5954   2.7344   3.0267   3.0414   3.1312   3.1630
     4.0443   4.1218   4.3993   4.5767   4.6442   4.7393   5.4019   5.8028
     6.1022   6.1994   6.2383   6.8626   7.1976   7.2295   7.3898   7.4362
     7.5417   7.5661   7.6148   7.9138   7.9727   8.2309   8.5331   8.5708
     8.6102   8.6880   8.8422   8.8589   8.8892   8.9222   8.9884   8.9885
     9.0594   9.1693   9.1912   9.2806   9.3353   9.3465   9.4097   9.4229
     9.5005   9.5264

          k = 0.0000-1.0472 0.0000 ( 69594 PWs)   bands (ev):

   -39.7957 -37.9567 -37.2162 -35.5902 -22.5963 -22.5333 -22.5077 -22.4493
   -22.4308 -22.3648 -22.3248 -22.2045 -20.1165 -19.8816 -19.7002 -18.6190
   -18.4416 -18.3031 -18.2970 -18.1810 -18.1588 -17.0226 -16.7854 -16.7283
   -15.0301 -14.8696 -14.8107 -14.7596 -14.7121 -14.6058 -14.5552 -14.5236
   -14.4428 -14.3853 -14.3708 -14.2785 -14.1837 -14.1422 -14.1172 -14.1171
   -14.0915 -14.0592 -14.0068 -13.9955 -13.9775 -13.8797 -13.8794 -13.8311
   -13.8273 -13.8233 -13.8126 -13.8062 -13.7809 -13.6308  -8.7373  -8.6386
    -8.6101  -8.4433  -8.4225  -8.3386  -8.3224  -8.0619  -8.0465  -7.9734
    -7.8934  -7.8850  -7.8656  -7.8191  -7.7660  -7.7603  -7.7559  -7.6826
    -7.6068  -7.5646  -7.4853  -7.3675  -7.3542  -7.1614  -4.2441  -4.1127
    -3.6592  -3.5389  -3.3790  -3.2938  -3.2457  -3.1372  -3.0807  -3.0198
    -2.9818  -2.9511  -2.9146  -2.9104  -2.5622  -2.5321  -2.5065  -2.3821
    -2.3555  -2.3502  -2.1204  -2.1035  -2.0456  -2.0193  -2.0118  -1.9894
    -1.9244  -1.8339  -1.8191  -1.7665  -1.6427  -1.5729  -1.4644  -1.4581
    -1.4382  -1.3566  -1.2100  -1.1866  -1.1569  -1.1289  -1.0889  -1.0822
    -1.0427  -0.9635  -0.9560  -0.9445  -0.9398  -0.9373  -0.8747  -0.8716
    -0.8611  -0.8553  -0.8230  -0.8168  -0.7845  -0.7679  -0.7235  -0.7154
    -0.6886  -0.6885  -0.6833  -0.6765  -0.5935  -0.5812  -0.5768  -0.5147
    -0.4022  -0.3608  -0.2579  -0.0775  -0.0667  -0.0520  -0.0366  -0.0179
     0.0484   0.1257   0.3284   0.3756   0.3878   0.3904   0.3920   0.4430
     0.5438   0.5900   0.7042   0.8378   0.8685   0.9738   1.0093   1.0389
     1.0436   1.0637   1.1169   1.1831   1.2498   1.2531   1.2642   1.2934
     1.3273   1.3355   1.3658   1.3763   1.4010   1.4769   1.5001   1.5137
     1.5252   1.5468   1.5495   1.5878   1.6019   1.6141   1.6245   1.6948
     1.7302   1.7374   1.7547   1.7662   1.8100   1.8604   1.8816   1.9176
     1.9497   1.9550   1.9576   1.9915   1.9987   2.0306   2.0460   2.0729
     2.0792   2.1063   2.1690   2.1741   2.2940   2.3006   2.3084   2.3094
     2.3256   2.3348   2.3475   2.3523   2.5114   2.5416   2.5610   2.5651
     2.6180   2.7454   2.7503   2.7929   2.8084   2.8969   2.9622   2.9924
     4.0599   4.1703   4.5869   4.7836   4.8537   4.9588   5.3440   5.7108
     5.9599   5.9667   6.6615   6.7510   7.0025   7.1380   7.5300   7.6773
     7.7096   7.8243   7.9388   8.0433   8.0454   8.3640   8.5120   8.6036
     8.6463   8.8463   8.8753   8.9475   9.0086   9.0088   9.0165   9.1241
     9.1388   9.2531   9.2596   9.3386   9.3507   9.3762   9.4417   9.4482
     9.5342   9.5411

          k = 0.1250 0.0000 0.0000 ( 69651 PWs)   bands (ev):

   -39.8103 -37.9751 -37.2257 -35.6018 -22.7657 -22.6963 -22.6466 -22.6205
   -22.5663 -22.5032 -22.4875 -22.3403 -19.9093 -19.8372 -19.7469 -18.4497
   -18.3432 -18.3229 -18.2707 -18.2282 -17.9783 -16.9529 -16.8269 -16.6314
   -15.4978 -15.3348 -15.0723 -14.9194 -14.8488 -14.8407 -14.8206 -14.7712
   -14.6589 -14.5982 -14.5190 -14.4760 -14.4163 -14.4147 -14.3726 -14.3370
   -14.2273 -14.0474 -13.9520 -13.9427 -13.9403 -13.9353 -13.9343 -13.8861
   -13.8780 -13.8401 -13.5901 -13.5522 -13.5513 -13.4602  -8.0382  -8.0102
    -7.9341  -7.9035  -7.8059  -7.7924  -7.7442  -7.7217  -7.6914  -7.6754
    -7.6732  -7.6510  -7.5917  -7.5663  -7.5420  -7.5189  -7.4681  -7.4585
    -7.4528  -7.3704  -7.3568  -7.3201  -7.2940  -7.1510  -3.0756  -2.9022
    -2.7273  -2.6457  -2.3195  -2.2268  -2.1231  -2.0738  -2.0595  -2.0441
    -2.0322  -1.9928  -1.9888  -1.8556  -1.8471  -1.8440  -1.7845  -1.7614
    -1.6229  -1.6211  -1.4609  -1.4504  -1.4478  -1.3878  -1.3339  -1.3229
    -1.2998  -1.2430  -1.1778  -1.1671  -1.1248  -1.0680  -1.0003  -0.9294
    -0.8971  -0.8756  -0.8734  -0.8726  -0.8723  -0.8523  -0.8220  -0.7989
    -0.7954  -0.6989  -0.6724  -0.6517  -0.6282  -0.6049  -0.5979  -0.5827
    -0.4948  -0.4707  -0.3794  -0.2638  -0.2578  -0.2423  -0.2033  -0.1969
    -0.1427  -0.1385  -0.1168  -0.1085  -0.1083  -0.0769  -0.0695  -0.0436
    -0.0089   0.0839   0.0909   0.0972   0.1002   0.1238   0.1470   0.1617
     0.2352   0.2472   0.2745   0.2766   0.2918   0.3155   0.3210   0.3511
     0.3576   0.3620   0.4132   0.4220   0.4252   0.4531   0.4619   0.4699
     0.5083   0.5311   0.5859   0.6092   0.6251   0.6619   0.6646   0.6857
     0.7069   0.7394   0.7937   0.8442   0.8459   1.0180   1.0339   1.0543
     1.0624   1.1028   1.1124   1.1439   1.1870   1.2330   1.2518   1.2674
     1.2839   1.2930   1.3309   1.3472   1.3654   1.3913   1.4902   1.5076
     1.5357   1.5410   1.5627   1.5628   1.6162   1.6241   1.6854   1.7166
     1.7352   1.8133   1.8219   1.8381   1.8647   1.8655   1.8809   1.9103
     1.9318   1.9763   2.0048   2.1141   2.1486   2.1694   2.1892   2.2621
     2.2807   2.3323   2.3466   2.3673   2.4097   2.4180   2.4969   2.5231
     2.6269   2.6915   2.6928   2.7894   2.9667   2.9780   4.7027   5.3765
     5.4487   5.8643   6.2342   6.2459   6.4848   6.7401   6.7718   6.8142
     6.8514   7.0104   7.0336   7.0572   7.2739   7.4726   7.6542   7.8182
     7.8497   7.8797   8.1289   8.2151   8.2186   8.2487   8.2524   8.3820
     8.3916   8.4923   8.6070   8.6734   8.7151   8.7632   8.8844   8.9403
     9.0227   9.0232

          k = 0.1250 0.2618 0.0000 ( 69587 PWs)   bands (ev):

   -39.8081 -37.9724 -37.2243 -35.6001 -22.7413 -22.6728 -22.6273 -22.5959
   -22.5474 -22.4839 -22.4642 -22.3213 -19.9051 -19.8608 -19.7602 -18.4111
   -18.3360 -18.3202 -18.2888 -18.2293 -18.0892 -16.9233 -16.8220 -16.6973
   -15.4444 -15.2297 -15.0310 -14.8649 -14.8001 -14.7921 -14.7799 -14.7301
   -14.6129 -14.5608 -14.5107 -14.4127 -14.4034 -14.3999 -14.3840 -14.3013
   -14.1853 -14.0444 -14.0016 -13.9450 -13.9388 -13.9293 -13.9183 -13.8778
   -13.8771 -13.8534 -13.6065 -13.5917 -13.5842 -13.5192  -8.0464  -8.0033
    -7.9242  -7.9181  -7.8320  -7.7878  -7.7603  -7.7543  -7.7408  -7.7197
    -7.7025  -7.6714  -7.6616  -7.6470  -7.6246  -7.6042  -7.5518  -7.5323
    -7.5303  -7.5046  -7.4760  -7.4446  -7.3321  -7.3090  -3.1806  -3.0000
    -2.7869  -2.6875  -2.5465  -2.2532  -2.2177  -2.1636  -2.1310  -2.1180
    -2.0838  -2.0725  -2.0260  -2.0092  -1.9950  -1.9325  -1.8437  -1.8343
    -1.7700  -1.7320  -1.6792  -1.6639  -1.6379  -1.5748  -1.5674  -1.5478
    -1.3901  -1.3267  -1.3164  -1.3121  -1.2909  -1.2906  -1.2658  -1.2594
    -1.2446  -1.1675  -1.0913  -0.9561  -0.9347  -0.8903  -0.8424  -0.7589
    -0.7430  -0.7237  -0.7125  -0.6520  -0.6444  -0.6289  -0.5570  -0.5428
    -0.5063  -0.4428  -0.3738  -0.3292  -0.2957  -0.2914  -0.2658  -0.2514
    -0.2331  -0.2304  -0.1986  -0.1846  -0.1214  -0.0543  -0.0321  -0.0290
    -0.0243   0.0496   0.0866   0.1005   0.1067   0.1411   0.1778   0.1853
     0.2129   0.2541   0.2597   0.2744   0.2974   0.3055   0.3285   0.3691
     0.3951   0.3965   0.4135   0.4490   0.4651   0.4854   0.4951   0.5000
     0.5192   0.5241   0.5395   0.5479   0.5971   0.6064   0.7322   0.7431
     0.7435   0.8732   0.9295   0.9444   0.9569   0.9644   1.0518   1.1402
     1.1906   1.1970   1.2228   1.2301   1.2595   1.3009   1.3186   1.3320
     1.3502   1.3733   1.3757   1.3885   1.4059   1.4409   1.4766   1.5055
     1.5080   1.5108   1.5663   1.6286   1.6539   1.6663   1.7093   1.7220
     1.7619   1.7989   1.8080   1.8299   1.8379   1.8795   1.8971   1.9202
     1.9380   1.9609   1.9887   2.0469   2.0742   2.1979   2.2065   2.2481
     2.3034   2.3940   2.4700   2.5960   2.9023   2.9272   2.9587   2.9693
     2.9954   3.0681   3.0823   3.1669   3.2462   3.3211   4.9407   5.7465
     5.7891   6.0395   6.1036   6.4271   6.4981   6.6613   6.9969   7.0455
     7.0874   7.1097   7.1722   7.3163   7.4418   7.6104   7.7388   7.8397
     7.9466   7.9763   7.9932   8.0607   8.2076   8.3417   8.4022   8.4383
     8.5651   8.6480   8.7820   8.8417   8.8872   8.9175   8.9641   9.0297
     9.1467   9.2123

          k = 0.1250 0.5236 0.0000 ( 69560 PWs)   bands (ev):

   -39.8030 -37.9659 -37.2210 -35.5960 -22.6813 -22.6152 -22.5798 -22.5352
   -22.5009 -22.4366 -22.4067 -22.2746 -19.9620 -19.8950 -19.7439 -18.3507
   -18.3293 -18.3185 -18.3137 -18.3116 -18.2121 -16.8516 -16.8386 -16.8101
   -15.3057 -14.9921 -14.9288 -14.7757 -14.7214 -14.6838 -14.6416 -14.5667
   -14.5613 -14.4941 -14.4666 -14.4280 -14.4071 -14.3920 -14.2275 -14.2064
   -14.1498 -14.0701 -14.0460 -13.9581 -13.9288 -13.9112 -13.8793 -13.8778
   -13.8650 -13.7746 -13.7265 -13.6760 -13.6583 -13.6228  -8.2228  -8.1448
    -8.0916  -8.0092  -7.9842  -7.9523  -7.9202  -7.9004  -7.8874  -7.8564
    -7.8557  -7.8455  -7.7746  -7.7594  -7.7337  -7.7278  -7.6981  -7.6415
    -7.6130  -7.6067  -7.5576  -7.4786  -7.4781  -7.2818  -3.5645  -3.3906
    -3.0315  -2.9286  -2.8983  -2.7386  -2.5607  -2.4661  -2.4628  -2.4560
    -2.3848  -2.3521  -2.1994  -2.1763  -2.1706  -2.1408  -2.1329  -2.1004
    -2.0793  -2.0494  -2.0015  -1.9920  -1.9802  -1.9785  -1.9728  -1.9637
    -1.8332  -1.7214  -1.6168  -1.5708  -1.5521  -1.4939  -1.4071  -1.3662
    -1.2558  -1.2145  -1.1821  -1.1282  -1.0631  -0.8935  -0.8881  -0.8849
    -0.8634  -0.7842  -0.7746  -0.7591  -0.7119  -0.7038  -0.6730  -0.6232
    -0.6125  -0.5950  -0.5752  -0.5453  -0.5227  -0.4996  -0.4859  -0.4815
    -0.4449  -0.4169  -0.4140  -0.4064  -0.4001  -0.3485  -0.3122  -0.2811
    -0.2412  -0.2322  -0.1639  -0.1449  -0.0231   0.0114   0.1550   0.1860
     0.2369   0.2611   0.2666   0.2999   0.3465   0.3578   0.4001   0.4122
     0.4388   0.4481   0.5392   0.5520   0.5686   0.6995   0.7367   0.7835
     0.8281   0.8389   0.8736   0.9335   0.9357   0.9513   1.0621   1.0869
     1.1214   1.1451   1.1956   1.2086   1.2133   1.2563   1.2640   1.2831
     1.2977   1.3178   1.3456   1.3696   1.3954   1.4300   1.4309   1.4513
     1.4651   1.4787   1.4985   1.5174   1.5461   1.5726   1.5788   1.5879
     1.6089   1.6310   1.6863   1.6931   1.7128   1.7734   1.7905   1.8267
     1.8608   1.8849   1.9220   1.9371   1.9477   1.9639   2.0046   2.0134
     2.0785   2.0926   2.1449   2.1687   2.1782   2.2180   2.2977   2.3133
     2.3511   2.4390   2.5752   2.7216   3.1809   3.1993   3.2197   3.2548
     3.7399   3.7792   3.8363   3.8988   4.0295   4.0486   5.4655   5.6667
     6.0932   6.6258   6.6538   6.7052   6.7385   6.8386   7.0245   7.0891
     7.2303   7.2351   7.3404   7.7088   7.8475   7.9614   8.0474   8.2440
     8.2954   8.3558   8.4473   8.4955   8.5194   8.5881   8.6655   8.7581
     8.8213   8.8421   8.9010   8.9622   8.9710   9.0811   9.1613   9.2628
     9.3748   9.4312

          k = 0.1250 0.7854 0.0000 ( 69550 PWs)   bands (ev):

   -39.7978 -37.9594 -37.2176 -35.5919 -22.6195 -22.5559 -22.5313 -22.4727
   -22.4534 -22.3883 -22.3477 -22.2268 -20.0716 -19.8850 -19.7137 -18.5384
   -18.4151 -18.3073 -18.3012 -18.2056 -18.1903 -16.9722 -16.7990 -16.7662
   -15.1344 -14.8302 -14.7952 -14.7878 -14.6697 -14.6504 -14.5483 -14.5208
   -14.4718 -14.4579 -14.4024 -14.3154 -14.3040 -14.2872 -14.2337 -14.1176
   -14.0794 -14.0685 -14.0402 -13.9390 -13.8982 -13.8827 -13.8604 -13.8552
   -13.8312 -13.8236 -13.8188 -13.7506 -13.7401 -13.6676  -8.5743  -8.4738
    -8.4466  -8.2825  -8.2647  -8.1710  -8.1611  -8.0470  -7.9675  -7.9213
    -7.9045  -7.9003  -7.8791  -7.8191  -7.7893  -7.7522  -7.7453  -7.6970
    -7.6230  -7.5756  -7.5529  -7.4294  -7.4231  -7.2259  -4.0184  -3.8737
    -3.4379  -3.3110  -3.2587  -3.1509  -3.0488  -2.9297  -2.9031  -2.8785
    -2.7476  -2.7274  -2.6869  -2.6814  -2.5415  -2.4896  -2.3795  -2.3359
    -2.3163  -2.2031  -2.0995  -2.0808  -2.0438  -2.0301  -2.0130  -1.9976
    -1.8686  -1.7857  -1.7517  -1.7002  -1.6609  -1.5653  -1.5014  -1.4507
    -1.4278  -1.2988  -1.2488  -1.1394  -1.1114  -1.0973  -1.0625  -1.0226
    -0.9775  -0.9427  -0.9383  -0.8898  -0.8702  -0.8592  -0.8448  -0.8051
    -0.7745  -0.7584  -0.7516  -0.7403  -0.7087  -0.7036  -0.6580  -0.6460
    -0.6211  -0.6162  -0.5971  -0.5929  -0.5683  -0.5195  -0.4950  -0.4926
    -0.4418  -0.4007  -0.1563  -0.1134  -0.0994  -0.0160   0.0675   0.0811
     0.1881   0.2344   0.2925   0.3078   0.3451   0.4097   0.4187   0.4302
     0.4927   0.5431   0.6880   0.7699   0.8739   0.8945   0.9345   0.9939
     1.0618   1.0721   1.0867   1.1126   1.1352   1.1544   1.2028   1.2216
     1.2269   1.2876   1.3237   1.3465   1.3642   1.3836   1.4021   1.4354
     1.4477   1.4833   1.5126   1.5273   1.5533   1.5894   1.6079   1.6107
     1.6341   1.6529   1.6808   1.7382   1.7523   1.7728   1.7844   1.8278
     1.8399   1.8520   1.8759   1.8910   1.9169   1.9405   1.9545   1.9655
     1.9708   1.9943   2.0983   2.1034   2.1108   2.1456   2.1843   2.1929
     2.2522   2.2637   2.3385   2.3673   2.3735   2.4372   2.4890   2.5092
     2.5737   2.5803   2.6451   2.7069   3.0288   3.0447   3.1364   3.1685
     4.0453   4.1267   4.3410   4.5128   4.5867   4.6789   5.4063   5.8507
     6.0943   6.2547   6.2908   6.8914   7.1482   7.2443   7.3515   7.4072
     7.5086   7.5734   7.6504   7.9111   7.9654   8.2086   8.4604   8.5131
     8.6039   8.7038   8.8573   8.8594   8.8778   8.9417   8.9660   9.0189
     9.1064   9.1880   9.2017   9.2905   9.3557   9.3629   9.4342   9.4533
     9.4986   9.5499

          k = 0.1250-1.0472 0.0000 ( 69634 PWs)   bands (ev):

   -39.7957 -37.9567 -37.2162 -35.5902 -22.5934 -22.5309 -22.5108 -22.4462
   -22.4333 -22.3680 -22.3228 -22.2066 -20.1165 -19.8808 -19.7003 -18.6190
   -18.4416 -18.3047 -18.2940 -18.1809 -18.1583 -17.0226 -16.7945 -16.7303
   -15.0264 -14.8647 -14.7994 -14.7625 -14.7010 -14.5821 -14.5594 -14.5227
   -14.4300 -14.4056 -14.3864 -14.2723 -14.1842 -14.1418 -14.1164 -14.1102
   -14.0924 -14.0702 -14.0242 -13.9900 -13.9713 -13.8924 -13.8824 -13.8307
   -13.8302 -13.8229 -13.8135 -13.8071 -13.7761 -13.6371  -8.7071  -8.6093
    -8.5800  -8.4128  -8.3932  -8.3080  -8.2916  -8.0637  -8.0175  -7.9697
    -7.9200  -7.8962  -7.8630  -7.8511  -7.7954  -7.7630  -7.7578  -7.6854
    -7.6393  -7.5695  -7.5291  -7.4047  -7.3986  -7.2002  -4.2060  -4.0748
    -3.6247  -3.5078  -3.3954  -3.3096  -3.2462  -3.1394  -3.0853  -3.0298
    -2.9803  -2.9515  -2.9173  -2.9128  -2.5501  -2.5152  -2.4855  -2.3636
    -2.3352  -2.3302  -2.1227  -2.1044  -2.0536  -2.0201  -2.0107  -1.9875
    -1.8947  -1.8224  -1.8049  -1.7391  -1.6493  -1.5789  -1.5510  -1.4805
    -1.4496  -1.3407  -1.3182  -1.2438  -1.1629  -1.1283  -1.1055  -1.0755
    -1.0445  -1.0355  -1.0280  -0.9665  -0.9361  -0.9207  -0.8931  -0.8774
    -0.8715  -0.8603  -0.8079  -0.8034  -0.7736  -0.7531  -0.7196  -0.7127
    -0.7053  -0.6929  -0.6863  -0.6783  -0.6567  -0.5858  -0.5850  -0.4998
    -0.4041  -0.3373  -0.1762  -0.0804  -0.0719  -0.0288   0.0010   0.0253
     0.1384   0.1710   0.2932   0.3114   0.3704   0.4101   0.4155   0.4193
     0.5278   0.5793   0.7540   0.8358   0.8785   0.9527   1.0043   1.0226
     1.0382   1.0707   1.1387   1.1980   1.2054   1.2234   1.2645   1.2939
     1.3281   1.3382   1.3475   1.3806   1.4052   1.4469   1.4620   1.5046
     1.5187   1.5479   1.5538   1.5902   1.6060   1.6299   1.6453   1.6924
     1.7205   1.7339   1.7487   1.7953   1.8439   1.8545   1.9248   1.9252
     1.9545   1.9590   1.9738   1.9779   2.0153   2.0464   2.0675   2.0881
     2.1323   2.1610   2.1650   2.2772   2.2941   2.2980   2.3101   2.3144
     2.3151   2.3438   2.3508   2.4264   2.4841   2.5156   2.5677   2.5719
     2.6139   2.7381   2.7434   2.7978   2.8141   2.8648   2.9732   3.0007
     4.0597   4.1846   4.5150   4.7049   4.7802   4.8789   5.3495   5.7566
     6.0280   6.0347   6.5917   6.7816   7.0016   7.1877   7.5339   7.6457
     7.7367   7.7450   7.8463   7.9702   8.0616   8.3382   8.3637   8.6003
     8.6057   8.8615   8.8979   8.9463   9.0014   9.0858   9.1271   9.1479
     9.2180   9.2864   9.3250   9.3601   9.3777   9.4086   9.4668   9.4763
     9.5363   9.5926

          k = 0.2500 0.0000 0.0000 ( 69591 PWs)   bands (ev):

   -39.8103 -37.9751 -37.2257 -35.6018 -22.7530 -22.6864 -22.6600 -22.6072
   -22.5768 -22.5172 -22.4790 -22.3496 -19.9073 -19.8372 -19.7469 -18.4480
   -18.3353 -18.3271 -18.2705 -18.2282 -17.9783 -16.9600 -16.8553 -16.6314
   -15.4687 -15.2610 -15.1209 -14.8826 -14.8245 -14.8132 -14.8023 -14.7336
   -14.6701 -14.5921 -14.5802 -14.5232 -14.4460 -14.4329 -14.4155 -14.3573
   -14.1831 -14.0331 -13.9564 -13.9464 -13.9439 -13.9371 -13.9361 -13.8586
   -13.8438 -13.8242 -13.6014 -13.5835 -13.5737 -13.4709  -8.0415  -8.0150
    -7.9449  -7.9111  -7.8009  -7.7728  -7.7592  -7.7310  -7.7038  -7.6496
    -7.6403  -7.6255  -7.6108  -7.5446  -7.5222  -7.5176  -7.4841  -7.4791
    -7.4293  -7.3930  -7.3472  -7.3367  -7.2991  -7.1744  -2.9978  -2.8014
    -2.6333  -2.5455  -2.3373  -2.3077  -2.1408  -2.0957  -2.0658  -2.0592
    -2.0451  -2.0061  -1.9797  -1.9063  -1.8964  -1.8446  -1.8143  -1.7780
    -1.6568  -1.6412  -1.4868  -1.4404  -1.4235  -1.4133  -1.3948  -1.3765
    -1.3367  -1.1733  -1.1711  -1.1459  -1.0489  -1.0084  -0.9489  -0.8963
    -0.8934  -0.8735  -0.8709  -0.8688  -0.8676  -0.8634  -0.8337  -0.7645
    -0.7316  -0.6870  -0.6613  -0.6545  -0.6023  -0.5690  -0.5590  -0.5307
    -0.5184  -0.4522  -0.3881  -0.3397  -0.3052  -0.2523  -0.2507  -0.2200
    -0.2022  -0.1780  -0.1675  -0.1472  -0.1353  -0.1334  -0.1117  -0.1086
    -0.0609   0.0675   0.0859   0.0874   0.0937   0.1129   0.1278   0.1588
     0.1918   0.2771   0.3103   0.3195   0.3234   0.3448   0.3462   0.3654
     0.3729   0.3867   0.4015   0.4309   0.4406   0.4688   0.4904   0.4977
     0.5087   0.5821   0.5862   0.6149   0.6157   0.6586   0.6726   0.6767
     0.7045   0.7205   0.7883   0.8249   0.8462   0.9779   1.0248   1.0519
     1.0682   1.0860   1.0982   1.1354   1.1402   1.1620   1.1976   1.2562
     1.2835   1.2997   1.3241   1.3759   1.3915   1.3949   1.4645   1.4901
     1.5262   1.5343   1.5418   1.5523   1.6457   1.6589   1.6644   1.6855
     1.7486   1.8171   1.8210   1.8294   1.8368   1.8852   1.9072   1.9175
     1.9203   2.0219   2.0737   2.1138   2.1650   2.1937   2.2164   2.2166
     2.2669   2.3190   2.3312   2.3583   2.3647   2.4220   2.5028   2.5543
     2.6350   2.7161   2.7369   2.7772   2.9511   2.9628   4.8349   5.5148
     5.5654   5.9769   6.0282   6.3311   6.5244   6.6258   6.6495   6.7467
     6.8688   6.9621   7.0415   7.1972   7.3189   7.5269   7.5826   7.8491
     8.0573   8.0797   8.1448   8.1822   8.2396   8.2552   8.3431   8.3945
     8.4103   8.5011   8.5715   8.6541   8.7563   8.8586   8.9034   8.9400
     8.9515   9.0127

          k = 0.2500 0.2618 0.0000 ( 69600 PWs)   bands (ev):

   -39.8081 -37.9724 -37.2243 -35.6001 -22.7293 -22.6634 -22.6400 -22.5832
   -22.5573 -22.4972 -22.4561 -22.3301 -19.9032 -19.8609 -19.7602 -18.4094
   -18.3282 -18.3243 -18.2886 -18.2292 -18.0892 -16.9301 -16.8490 -16.6971
   -15.4167 -15.1576 -15.0795 -14.8329 -14.7744 -14.7725 -14.7533 -14.7061
   -14.6233 -14.5505 -14.5339 -14.4906 -14.4352 -14.4152 -14.3930 -14.3509
   -14.1418 -14.0336 -14.0066 -13.9401 -13.9396 -13.9339 -13.9217 -13.8839
   -13.8314 -13.8257 -13.6352 -13.6038 -13.6010 -13.5210  -8.0491  -8.0097
    -7.9389  -7.9339  -7.8855  -7.8099  -7.8050  -7.7831  -7.7797  -7.7577
    -7.7355  -7.7225  -7.6705  -7.6546  -7.5878  -7.5462  -7.5448  -7.5214
    -7.4853  -7.4573  -7.4397  -7.4179  -7.2715  -7.2477  -3.0957  -2.8958
    -2.6864  -2.5889  -2.5726  -2.2887  -2.2526  -2.1956  -2.1640  -2.1101
    -2.1087  -2.0490  -2.0450  -2.0096  -1.9895  -1.9439  -1.8923  -1.8230
    -1.7848  -1.7669  -1.7350  -1.7280  -1.6470  -1.5921  -1.5394  -1.4904
    -1.4455  -1.3560  -1.3187  -1.3101  -1.2939  -1.2938  -1.2911  -1.2110
    -1.1846  -1.0901  -1.0764  -0.9565  -0.9056  -0.8935  -0.8604  -0.7891
    -0.7707  -0.7540  -0.7300  -0.6502  -0.6331  -0.5954  -0.5876  -0.5565
    -0.5352  -0.5036  -0.4818  -0.4112  -0.3561  -0.3451  -0.2737  -0.2652
    -0.2413  -0.2277  -0.1970  -0.1839  -0.1208  -0.0630  -0.0372  -0.0082
    -0.0068   0.0548   0.0835   0.0875   0.1153   0.1180   0.1251   0.1286
     0.1704   0.2501   0.2538   0.2565   0.2795   0.2815   0.3324   0.4022
     0.4286   0.4295   0.4407   0.4647   0.4804   0.4877   0.4952   0.5130
     0.5254   0.5473   0.5635   0.5888   0.6473   0.6777   0.7034   0.7148
     0.7378   0.8592   0.8773   0.9573   0.9936   1.0040   1.0373   1.1447
     1.1768   1.2289   1.2461   1.2545   1.2617   1.2855   1.2929   1.3116
     1.3302   1.3361   1.3648   1.3685   1.3770   1.4286   1.4448   1.4595
     1.5382   1.5502   1.5845   1.5952   1.6216   1.6232   1.7100   1.7372
     1.7679   1.7708   1.8065   1.8178   1.8439   1.8517   1.8841   1.8977
     1.9340   1.9450   1.9575   2.0344   2.1249   2.1446   2.3029   2.3998
     2.4071   2.4627   2.6646   2.6821   2.8863   2.9029   2.9656   2.9775
     3.0008   3.0582   3.0987   3.1566   3.2395   3.2917   5.0276   5.8540
     5.8809   5.9561   6.1211   6.5167   6.5630   6.7088   6.7634   6.8003
     6.9934   7.2602   7.2688   7.4465   7.4884   7.6020   7.7266   7.9025
     7.9606   8.0883   8.1817   8.1998   8.2172   8.3609   8.4200   8.5085
     8.5411   8.6517   8.7152   8.7651   8.9217   8.9652   8.9951   9.0211
     9.0583   9.1030

          k = 0.2500 0.5236 0.0000 ( 69530 PWs)   bands (ev):

   -39.8030 -37.9659 -37.2210 -35.5960 -22.6708 -22.6070 -22.5909 -22.5241
   -22.5096 -22.4483 -22.3998 -22.2821 -19.9620 -19.8931 -19.7440 -18.3506
   -18.3292 -18.3176 -18.3110 -18.3102 -18.2119 -16.8564 -16.8408 -16.8334
   -15.2820 -14.9734 -14.9261 -14.7508 -14.7056 -14.6681 -14.6361 -14.5615
   -14.5517 -14.4974 -14.4530 -14.4260 -14.4046 -14.3922 -14.3220 -14.2537
   -14.1595 -14.0586 -14.0416 -13.9466 -13.9193 -13.9068 -13.8820 -13.8808
   -13.8394 -13.7689 -13.7294 -13.6886 -13.6666 -13.6222  -8.2583  -8.1654
    -8.1291  -8.0224  -8.0051  -7.9678  -7.9439  -7.9053  -7.8959  -7.8742
    -7.8681  -7.8243  -7.7713  -7.7558  -7.7310  -7.7277  -7.6824  -7.6698
    -7.6119  -7.5599  -7.5328  -7.4402  -7.4315  -7.2438  -3.4712  -3.2900
    -2.9661  -2.9292  -2.8017  -2.7720  -2.5675  -2.4666  -2.4612  -2.4575
    -2.3900  -2.3352  -2.1892  -2.1805  -2.1693  -2.1523  -2.1310  -2.1264
    -2.0992  -2.0052  -1.9992  -1.9960  -1.9792  -1.9767  -1.9627  -1.9566
    -1.8173  -1.7454  -1.7264  -1.5908  -1.4975  -1.4760  -1.4117  -1.3491
    -1.3256  -1.2553  -1.2078  -1.1585  -1.0943  -1.0284  -0.9559  -0.9414
    -0.8829  -0.8633  -0.8151  -0.7922  -0.7589  -0.7095  -0.7041  -0.6671
    -0.6424  -0.6237  -0.5853  -0.5728  -0.5346  -0.5105  -0.4827  -0.4696
    -0.4656  -0.4397  -0.3988  -0.3947  -0.3854  -0.3796  -0.3039  -0.2942
    -0.2512  -0.2043  -0.1524  -0.1441  -0.0157   0.0168   0.0999   0.1706
     0.2010   0.2309   0.2783   0.3193   0.3333   0.3605   0.3807   0.4651
     0.4741   0.5166   0.5265   0.6075   0.6217   0.6810   0.7158   0.7953
     0.8189   0.8620   0.8770   0.9559   0.9750   0.9920   1.0118   1.0946
     1.1182   1.1321   1.1620   1.1798   1.1972   1.2216   1.2254   1.2491
     1.2534   1.2771   1.3522   1.3549   1.3686   1.4100   1.4576   1.4827
     1.5171   1.5391   1.5552   1.5772   1.5848   1.5957   1.5985   1.6247
     1.6309   1.6411   1.6802   1.7041   1.7137   1.7268   1.7651   1.7790
     1.8127   1.8452   1.8931   1.9048   1.9523   1.9568   1.9855   1.9987
     2.0233   2.1342   2.1525   2.1570   2.2489   2.2736   2.2980   2.4088
     2.6135   2.6639   2.8805   2.8990   3.1835   3.2037   3.2262   3.2652
     3.6633   3.7811   3.7910   3.8211   3.9417   3.9703   5.4913   5.6484
     6.1840   6.6665   6.6944   6.7178   6.7564   6.8383   7.0108   7.1473
     7.1740   7.2907   7.3396   7.7168   7.9230   8.0959   8.1286   8.2643
     8.2780   8.3621   8.4720   8.4755   8.5235   8.5445   8.5757   8.7370
     8.7642   8.8498   8.8803   8.9757   9.0309   9.1066   9.1528   9.1902
     9.3986   9.4146

          k = 0.2500 0.7854 0.0000 ( 69586 PWs)   bands (ev):

   -39.7978 -37.9594 -37.2176 -35.5919 -22.6106 -22.5490 -22.5405 -22.4632
   -22.4606 -22.3982 -22.3420 -22.2329 -20.0715 -19.8831 -19.7139 -18.5383
   -18.4151 -18.3111 -18.2938 -18.2043 -18.1902 -16.9721 -16.8215 -16.7714
   -15.1177 -14.8539 -14.7845 -14.7484 -14.6475 -14.5994 -14.5606 -14.5178
   -14.4955 -14.4433 -14.3943 -14.3156 -14.3066 -14.2720 -14.2330 -14.1487
   -14.1396 -14.1016 -14.0250 -13.9358 -13.8979 -13.8683 -13.8569 -13.8561
   -13.8337 -13.8221 -13.8160 -13.7608 -13.7382 -13.6782  -8.5344  -8.4317
    -8.4073  -8.2261  -8.1733  -8.0655  -8.0499  -8.0370  -8.0315  -7.9517
    -7.9409  -7.9067  -7.9040  -7.8822  -7.8182  -7.7528  -7.7431  -7.7233
    -7.7036  -7.6090  -7.5889  -7.4808  -7.4792  -7.2797  -3.9162  -3.7712
    -3.3438  -3.3093  -3.2275  -3.1971  -3.0452  -2.9359  -2.9205  -2.9041
    -2.7405  -2.7228  -2.6940  -2.6873  -2.5126  -2.4453  -2.3101  -2.2881
    -2.2776  -2.1246  -2.1051  -2.0929  -2.0829  -2.0257  -2.0106  -1.9830
    -1.9659  -1.7592  -1.7256  -1.6889  -1.6345  -1.6242  -1.5467  -1.5128
    -1.4123  -1.3932  -1.3262  -1.2636  -1.2387  -1.1465  -1.1218  -1.0927
    -1.0272  -0.9962  -0.9759  -0.9486  -0.9308  -0.8721  -0.8664  -0.8344
    -0.8152  -0.7879  -0.7339  -0.7018  -0.6804  -0.6576  -0.6497  -0.6397
    -0.6165  -0.6126  -0.5886  -0.5843  -0.5518  -0.5136  -0.5041  -0.4945
    -0.4526  -0.3710  -0.1471  -0.1331  -0.0639  -0.0007   0.0537   0.1168
     0.1637   0.3080   0.3092   0.3461   0.3712   0.4463   0.4575   0.4889
     0.5053   0.5178   0.7116   0.8071   0.8218   0.8273   0.9433   1.0065
     1.0325   1.0766   1.0986   1.1401   1.1467   1.1789   1.1993   1.2166
     1.2705   1.2871   1.3058   1.3247   1.3481   1.3635   1.3852   1.4286
     1.4417   1.4818   1.4840   1.5110   1.5460   1.6122   1.6267   1.6329
     1.6405   1.6435   1.6907   1.7178   1.7281   1.7490   1.7762   1.8133
     1.8302   1.8517   1.8821   1.9011   1.9187   1.9386   1.9478   1.9594
     1.9978   2.0055   2.0676   2.0805   2.0911   2.1171   2.1590   2.2105
     2.2525   2.3920   2.3981   2.4056   2.5474   2.5499   2.5558   2.5826
     2.6114   2.6428   2.8238   2.8600   3.0350   3.0538   3.1729   3.2064
     4.0363   4.1349   4.1796   4.3244   4.4165   4.4990   5.4221   5.9841
     6.0643   6.4113   6.4478   6.9677   7.0728   7.2228   7.2635   7.3432
     7.3971   7.4954   7.7572   7.8710   7.9689   8.1852   8.3288   8.4710
     8.6083   8.7072   8.8243   8.8354   8.8680   8.9426   8.9504   9.0633
     9.1541   9.1948   9.2796   9.3004   9.3847   9.4290   9.4696   9.5380
     9.5644   9.5880

          k = 0.2500-1.0472 0.0000 ( 69548 PWs)   bands (ev):

   -39.7957 -37.9567 -37.2162 -35.5902 -22.5852 -22.5245 -22.5192 -22.4400
   -22.4374 -22.3771 -22.3176 -22.2121 -20.1164 -19.8790 -19.7004 -18.6189
   -18.4416 -18.3084 -18.2867 -18.1808 -18.1572 -17.0226 -16.8161 -16.7351
   -15.0173 -14.8513 -14.7708 -14.7669 -14.6687 -14.5700 -14.5311 -14.5175
   -14.4414 -14.4292 -14.3954 -14.2648 -14.1858 -14.1409 -14.1142 -14.1003
   -14.0948 -14.0908 -14.0733 -13.9745 -13.9537 -13.9253 -13.8912 -13.8414
   -13.8291 -13.8217 -13.8160 -13.8097 -13.7622 -13.6546  -8.6203  -8.5259
    -8.4936  -8.3241  -8.3097  -8.2198  -8.2018  -8.0549  -8.0181  -7.9604
    -7.9540  -7.9408  -7.9046  -7.8938  -7.8523  -7.7642  -7.7532  -7.7303
    -7.6941  -7.6493  -7.5886  -7.5198  -7.4997  -7.3042  -4.1000  -3.9698
    -3.5316  -3.4493  -3.4251  -3.3595  -3.2458  -3.1452  -3.1022  -3.0616
    -2.9742  -2.9512  -2.9250  -2.9193  -2.5103  -2.4621  -2.4249  -2.3074
    -2.2867  -2.2547  -2.1299  -2.1059  -2.0788  -2.0205  -2.0070  -1.9756
    -1.8770  -1.8068  -1.7793  -1.7531  -1.6939  -1.6696  -1.5598  -1.5389
    -1.4943  -1.4273  -1.3915  -1.3234  -1.3113  -1.1979  -1.1612  -1.1484
    -1.1122  -1.0710  -1.0656  -1.0277  -1.0048  -0.9487  -0.9240  -0.8942
    -0.8760  -0.8544  -0.8162  -0.7363  -0.7146  -0.7131  -0.7029  -0.6991
    -0.6913  -0.6889  -0.6808  -0.6664  -0.5968  -0.5957  -0.5906  -0.5023
    -0.4191  -0.3356  -0.1234  -0.1111  -0.0419  -0.0043   0.0169   0.0699
     0.1541   0.3158   0.3305   0.3408   0.3536   0.4473   0.4567   0.4801
     0.5031   0.5527   0.7625   0.8857   0.8889   0.9004   0.9916   1.0819
     1.1125   1.1451   1.1454   1.1497   1.1862   1.2044   1.2278   1.2884
     1.3194   1.3207   1.3463   1.3609   1.3640   1.3762   1.4399   1.5072
     1.5224   1.5348   1.5530   1.5839   1.6492   1.6508   1.6679   1.6785
     1.6956   1.7236   1.7477   1.7507   1.7871   1.8520   1.8954   1.9331
     1.9342   1.9521   1.9528   1.9588   1.9730   2.0262   2.0535   2.0557
     2.1477   2.2140   2.2675   2.2947   2.3018   2.3068   2.3257   2.3598
     2.3901   2.4094   2.5299   2.5466   2.5869   2.5910   2.6062   2.6510
     2.7176   2.7238   2.7246   2.7787   2.8131   2.8314   3.0497   3.0649
     4.0587   4.2105   4.3117   4.4776   4.5689   4.6509   5.3662   5.8887
     6.2110   6.2208   6.4721   6.8640   6.9999   7.2588   7.3874   7.5376
     7.5977   7.6670   7.8022   7.8415   8.0647   8.1145   8.3625   8.5424
     8.5995   8.8420   8.8689   8.9168   9.1131   9.1454   9.2824   9.2999
     9.3754   9.4159   9.4254   9.4370   9.4729   9.4986   9.5186   9.5501
     9.6306   9.6729

          k = 0.3750 0.0000 0.0000 ( 69652 PWs)   bands (ev):

   -39.8103 -37.9751 -37.2257 -35.6018 -22.7349 -22.6789 -22.6741 -22.5897
   -22.5874 -22.5378 -22.4690 -22.3604 -19.9054 -19.8373 -19.7469 -18.4462
   -18.3312 -18.3273 -18.2703 -18.2282 -17.9783 -16.9671 -16.8829 -16.6314
   -15.4312 -15.1756 -15.1661 -14.8593 -14.7947 -14.7787 -14.7661 -14.7180
   -14.6788 -14.6600 -14.5935 -14.5327 -14.4884 -14.4704 -14.4542 -14.3608
   -14.1563 -14.0182 -13.9597 -13.9534 -13.9451 -13.9408 -13.9384 -13.8618
   -13.7973 -13.7655 -13.6557 -13.6048 -13.5921 -13.4807  -8.0449  -8.0192
    -7.9550  -7.9168  -7.8067  -7.7705  -7.7381  -7.7327  -7.7155  -7.6395
    -7.6146  -7.6017  -7.5941  -7.5366  -7.5166  -7.5122  -7.5083  -7.4809
    -7.4274  -7.3964  -7.3866  -7.3078  -7.3065  -7.2070  -2.8905  -2.6463
    -2.4966  -2.4685  -2.3950  -2.2941  -2.2716  -2.1400  -2.1247  -2.0703
    -2.0255  -1.9935  -1.9700  -1.9558  -1.9413  -1.9387  -1.7938  -1.7695
    -1.6972  -1.6604  -1.6528  -1.4460  -1.4295  -1.3959  -1.3680  -1.3654
    -1.3426  -1.1971  -1.1104  -1.0773  -0.9786  -0.9372  -0.9028  -0.8794
    -0.8751  -0.8708  -0.8687  -0.8669  -0.8652  -0.8163  -0.7768  -0.7649
    -0.7361  -0.7277  -0.6745  -0.6096  -0.5803  -0.5412  -0.5263  -0.5038
    -0.4822  -0.4340  -0.4238  -0.4010  -0.3675  -0.3506  -0.2854  -0.2829
    -0.2492  -0.2208  -0.2187  -0.1892  -0.1585  -0.1328  -0.1157  -0.1132
    -0.0603   0.0343   0.0618   0.0681   0.0763   0.0821   0.0889   0.1238
     0.1353   0.2328   0.2988   0.3256   0.3300   0.3399   0.3437   0.3617
     0.3792   0.4134   0.4485   0.4509   0.4819   0.5243   0.5352   0.5597
     0.5751   0.5774   0.6069   0.6134   0.6534   0.6562   0.6726   0.6919
     0.7278   0.7907   0.8044   0.8182   0.8847   0.9282   0.9693   0.9860
     1.0143   1.0200   1.1037   1.1357   1.1388   1.1473   1.1889   1.2818
     1.2957   1.2990   1.3167   1.3991   1.4159   1.4313   1.4481   1.4612
     1.4805   1.5011   1.5217   1.5589   1.5678   1.5967   1.6416   1.6452
     1.6738   1.8022   1.8037   1.8224   1.8343   1.9397   1.9438   1.9669
     2.0224   2.0519   2.0630   2.0783   2.1568   2.1613   2.2275   2.2687
     2.2795   2.2926   2.3168   2.3362   2.4154   2.4296   2.5060   2.5891
     2.6447   2.7425   2.7663   2.8002   2.9044   2.9377   5.0003   5.7196
     5.7290   5.8272   6.1159   6.2792   6.2997   6.4743   6.5912   6.7534
     6.9320   7.2059   7.2245   7.3042   7.3634   7.4465   7.7003   7.8550
     7.9235   7.9977   8.1501   8.1512   8.2152   8.2581   8.2709   8.4236
     8.4727   8.5374   8.5826   8.6092   8.7285   8.8564   8.9957   9.0043
     9.0212   9.1502

          k = 0.3750 0.2618 0.0000 ( 69622 PWs)   bands (ev):

   -39.8081 -37.9724 -37.2243 -35.6001 -22.7121 -22.6579 -22.6518 -22.5695
   -22.5643 -22.5169 -22.4466 -22.3402 -19.9013 -19.8609 -19.7602 -18.4077
   -18.3284 -18.3202 -18.2885 -18.2292 -18.0892 -16.9368 -16.8754 -16.6970
   -15.3811 -15.1322 -15.0634 -14.8098 -14.7486 -14.7393 -14.7241 -14.6871
   -14.6393 -14.5978 -14.5683 -14.5024 -14.4641 -14.4309 -14.4305 -14.3699
   -14.1178 -14.0251 -14.0118 -13.9411 -13.9388 -13.9357 -13.9260 -13.8872
   -13.7872 -13.7777 -13.6787 -13.6313 -13.6114 -13.5216  -8.0510  -8.0196
    -7.9643  -7.9530  -7.9122  -7.8400  -7.8283  -7.8141  -7.7976  -7.7774
    -7.7591  -7.7433  -7.6972  -7.6675  -7.5626  -7.5455  -7.5356  -7.5045
    -7.4409  -7.4051  -7.4025  -7.3775  -7.2291  -7.2034  -2.9753  -2.7370
    -2.6517  -2.5390  -2.4334  -2.3828  -2.2966  -2.2348  -2.2156  -2.1612
    -2.0922  -2.0706  -2.0116  -1.9895  -1.9856  -1.9568  -1.9504  -1.9081
    -1.8161  -1.7742  -1.7646  -1.7297  -1.6961  -1.6264  -1.6085  -1.5315
    -1.3471  -1.3248  -1.3120  -1.3030  -1.2987  -1.2984  -1.2639  -1.1584
    -1.0802  -1.0394  -1.0049  -0.9591  -0.9569  -0.8990  -0.8641  -0.8228
    -0.8019  -0.7740  -0.7480  -0.7358  -0.7295  -0.6252  -0.5945  -0.5687
    -0.5290  -0.5117  -0.5008  -0.4781  -0.4397  -0.3911  -0.3286  -0.2705
    -0.2604  -0.2165  -0.1708  -0.1581  -0.1180  -0.0818  -0.0377  -0.0127
     0.0175   0.0387   0.0628   0.0655   0.0725   0.0938   0.0997   0.1160
     0.1556   0.2309   0.2415   0.2524   0.2737   0.2975   0.3137   0.3935
     0.4501   0.4710   0.4729   0.4764   0.4935   0.4982   0.5019   0.5188
     0.5304   0.5747   0.5885   0.6243   0.6292   0.6796   0.7286   0.7520
     0.8252   0.8383   0.9164   0.9579   1.0141   1.0407   1.0742   1.1084
     1.1190   1.1599   1.2173   1.2288   1.2765   1.2911   1.2994   1.3317
     1.3450   1.3565   1.3635   1.3810   1.3896   1.4123   1.4181   1.4481
     1.4973   1.5521   1.5847   1.5935   1.6152   1.6213   1.6828   1.6838
     1.7201   1.7320   1.7541   1.7764   1.8353   1.8537   1.8710   1.8956
     1.9214   1.9281   1.9521   2.0788   2.1034   2.1947   2.3832   2.4303
     2.5574   2.6052   2.8174   2.8329   2.8493   2.8652   2.9753   2.9911
     3.0199   3.0380   3.1119   3.1381   3.2090   3.2375   5.1411   5.7965
     6.0203   6.0495   6.1895   6.4839   6.5016   6.6266   6.6663   6.7528
     7.0000   7.3758   7.3807   7.5102   7.5239   7.6717   7.8792   7.9119
     8.0352   8.1409   8.1532   8.1945   8.2441   8.3275   8.4181   8.4395
     8.6169   8.6300   8.7045   8.7342   8.8087   8.9018   8.9813   9.0068
     9.0927   9.1247

          k = 0.3750 0.5236 0.0000 ( 69533 PWs)   bands (ev):

   -39.8030 -37.9659 -37.2210 -35.5960 -22.6560 -22.6062 -22.5969 -22.5200
   -22.5075 -22.4654 -22.3918 -22.2905 -19.9620 -19.8913 -19.7441 -18.3506
   -18.3291 -18.3216 -18.3088 -18.3033 -18.2118 -16.8621 -16.8585 -16.8399
   -15.2525 -15.0182 -14.8395 -14.7305 -14.6982 -14.6497 -14.6324 -14.5542
   -14.5393 -14.5054 -14.4388 -14.4235 -14.4101 -14.3960 -14.3929 -14.3045
   -14.1666 -14.0820 -14.0280 -13.9308 -13.9094 -13.9025 -13.8887 -13.8871
   -13.8073 -13.7601 -13.7345 -13.7060 -13.6757 -13.6216  -8.2564  -8.1570
    -8.1276  -8.1189  -8.0345  -7.9981  -7.9902  -7.9671  -7.9332  -7.8998
    -7.8682  -7.7913  -7.7500  -7.7466  -7.7151  -7.7134  -7.6575  -7.5897
    -7.5866  -7.5627  -7.4592  -7.4350  -7.4108  -7.2461  -3.3395  -3.1450
    -3.0397  -2.8525  -2.7827  -2.6752  -2.5921  -2.4903  -2.4599  -2.4433
    -2.3961  -2.3028  -2.2634  -2.1972  -2.1587  -2.1453  -2.1240  -2.1205
    -2.0696  -2.0361  -2.0208  -1.9938  -1.9837  -1.9712  -1.9343  -1.9130
    -1.8910  -1.8371  -1.6473  -1.5818  -1.5520  -1.4501  -1.4134  -1.3757
    -1.3265  -1.2692  -1.2199  -1.2006  -1.1415  -1.1170  -1.0962  -1.0150
    -0.9885  -0.8976  -0.8754  -0.8418  -0.7872  -0.7668  -0.7489  -0.7168
    -0.6257  -0.6131  -0.5659  -0.5648  -0.5447  -0.5221  -0.4903  -0.4752
    -0.4596  -0.4504  -0.3826  -0.3755  -0.3636  -0.3527  -0.3233  -0.2710
    -0.2694  -0.1824  -0.1540  -0.1451  -0.1042  -0.0399   0.0674   0.1723
     0.1961   0.2048   0.2794   0.3031   0.3462   0.4034   0.4266   0.4876
     0.5205   0.5475   0.6299   0.6355   0.6500   0.6971   0.7121   0.7496
     0.8074   0.8537   0.9343   0.9404   1.0009   1.0203   1.0420   1.0844
     1.0926   1.1221   1.1276   1.1781   1.1831   1.1849   1.2033   1.2059
     1.2223   1.2344   1.2846   1.3720   1.4114   1.4270   1.4471   1.4892
     1.5203   1.5406   1.5721   1.5868   1.6023   1.6297   1.6544   1.6616
     1.6679   1.6894   1.6978   1.7041   1.7386   1.7423   1.7552   1.7739
     1.7817   1.8022   1.8159   1.9040   1.9303   1.9525   1.9630   2.0103
     2.0305   2.1020   2.1038   2.1258   2.2069   2.3225   2.3379   2.4966
     2.9341   2.9908   3.1430   3.1465   3.1871   3.2078   3.2825   3.3415
     3.4988   3.6151   3.7593   3.7884   3.8217   3.8284   5.5223   5.6302
     6.2796   6.7147   6.7211   6.7511   6.7697   6.8305   6.9875   7.1239
     7.2345   7.3321   7.3392   7.7281   8.0359   8.1597   8.1947   8.2747
     8.3410   8.3479   8.3781   8.4510   8.4611   8.5358   8.6648   8.7182
     8.7613   8.8356   8.9112   8.9747   9.1153   9.1600   9.2022   9.2433
     9.2780   9.3127

          k = 0.3750 0.7854 0.0000 ( 69590 PWs)   bands (ev):

   -39.7978 -37.9594 -37.2176 -35.5919 -22.5984 -22.5531 -22.5406 -22.4693
   -22.4491 -22.4126 -22.3355 -22.2397 -20.0715 -19.8813 -19.7140 -18.5382
   -18.4151 -18.3148 -18.2863 -18.2030 -18.1900 -16.9721 -16.8436 -16.7765
   -15.0983 -14.8776 -14.7764 -14.6987 -14.6138 -14.5942 -14.5309 -14.5249
   -14.5147 -14.4244 -14.3752 -14.3163 -14.3134 -14.2491 -14.2428 -14.2134
   -14.1687 -14.1468 -14.0005 -13.9482 -13.8971 -13.8582 -13.8529 -13.8446
   -13.8381 -13.8200 -13.8141 -13.7835 -13.7275 -13.6917  -8.4531  -8.3534
    -8.3260  -8.1807  -8.1496  -8.0726  -8.0543  -8.0310  -8.0281  -7.9430
    -7.9358  -7.9133  -7.9008  -7.8841  -7.8387  -7.7857  -7.7327  -7.7141
    -7.7140  -7.6943  -7.5983  -7.5865  -7.5559  -7.3694  -3.7753  -3.6302
    -3.3982  -3.2802  -3.2188  -3.1217  -3.0495  -2.9569  -2.9465  -2.9406
    -2.7298  -2.7154  -2.7046  -2.6959  -2.4582  -2.3659  -2.2277  -2.2177
    -2.2058  -2.1860  -2.1461  -2.0901  -2.0309  -2.0146  -1.9909  -1.9777
    -1.9356  -1.8753  -1.8181  -1.7665  -1.6587  -1.5737  -1.5572  -1.5180
    -1.5106  -1.4787  -1.3950  -1.3710  -1.2883  -1.2351  -1.2155  -1.1764
    -1.1110  -1.0243  -1.0206  -0.9859  -0.9792  -0.8789  -0.8336  -0.8200
    -0.8108  -0.7881  -0.7686  -0.6914  -0.6518  -0.6315  -0.6155  -0.6058
    -0.5959  -0.5681  -0.5646  -0.5588  -0.5347  -0.5257  -0.5079  -0.4722
    -0.4642  -0.3692  -0.1973  -0.1807  -0.1583  -0.1076   0.1058   0.2077
     0.2437   0.2566   0.3611   0.3899   0.4404   0.4770   0.4871   0.5621
     0.6103   0.6309   0.6746   0.7291   0.8007   0.8724   0.9455   0.9599
     1.0379   1.0559   1.0795   1.1027   1.1257   1.1597   1.1890   1.2569
     1.2656   1.2808   1.2970   1.3267   1.3705   1.3825   1.4247   1.4562
     1.4653   1.5020   1.5134   1.5467   1.5567   1.5641   1.5890   1.6145
     1.6459   1.6618   1.6729   1.6797   1.7346   1.7432   1.7732   1.7971
     1.8088   1.8425   1.8598   1.8885   1.9029   1.9112   1.9355   1.9647
     1.9741   2.0071   2.0312   2.0381   2.0736   2.1178   2.1254   2.2271
     2.2532   2.3700   2.4264   2.4292   2.4748   2.5150   2.5240   2.5776
     2.9719   3.0235   3.0314   3.0420   3.0683   3.1599   3.3915   3.4280
     3.8442   3.9971   4.1042   4.1214   4.1690   4.2102   5.4449   6.0253
     6.1678   6.6433   6.6820   6.9683   7.0434   7.1137   7.1733   7.2109
     7.2583   7.4199   7.7653   7.8389   8.0101   8.1942   8.2723   8.4693
     8.6235   8.7427   8.7757   8.7994   8.8465   8.9179   8.9248   9.0117
     9.0702   9.1471   9.2899   9.4171   9.4427   9.5111   9.5449   9.6565
     9.6996   9.7036

          k = 0.3750-1.0472 0.0000 ( 69570 PWs)   bands (ev):

   -39.7957 -37.9567 -37.2162 -35.5902 -22.5741 -22.5306 -22.5169 -22.4479
   -22.4244 -22.3904 -22.3117 -22.2182 -20.1164 -19.8771 -19.7006 -18.6188
   -18.4416 -18.3120 -18.2793 -18.1806 -18.1560 -17.0227 -16.8375 -16.7399
   -15.0077 -14.8334 -14.7837 -14.7181 -14.6191 -14.5808 -14.5732 -14.4894
   -14.4535 -14.4325 -14.3524 -14.2631 -14.1895 -14.1469 -14.1413 -14.1322
   -14.1111 -14.0981 -14.0622 -13.9671 -13.9523 -13.9266 -13.9069 -13.8638
   -13.8265 -13.8196 -13.8194 -13.8131 -13.7398 -13.6802  -8.4889  -8.4032
    -8.3624  -8.1860  -8.1854  -8.1608  -8.0888  -8.0698  -8.0618  -8.0404
    -8.0369  -7.9447  -7.9201  -7.8979  -7.8621  -7.8320  -7.8159  -7.7595
    -7.7423  -7.7195  -7.6758  -7.6710  -7.5611  -7.4398  -3.9546  -3.8273
[...]
    -1.3131  -1.3076  -1.3052  -1.3025  -1.2985  -1.2924  -1.1679  -1.1062
    -1.0900  -1.0899  -0.9606  -0.9469  -0.9431  -0.9235  -0.8690  -0.8358
    -0.8290  -0.7982  -0.7947  -0.7536  -0.7170  -0.6626  -0.6610  -0.5724
    -0.5249  -0.5174  -0.4871  -0.4840  -0.4195  -0.4190  -0.3611  -0.3085
    -0.2601  -0.2128  -0.1656  -0.1275  -0.1212  -0.0823  -0.0700   0.0064
     0.0182   0.0312   0.0389   0.0537   0.0668   0.0783   0.0866   0.1149
     0.1717   0.2297   0.2346   0.2534   0.2698   0.3050   0.3079   0.3889
     0.4586   0.4686   0.4846   0.4903   0.4986   0.5042   0.5204   0.5352
     0.5539   0.5592   0.5737   0.6046   0.6140   0.7175   0.7639   0.7663
     0.8258   0.8828   0.9200   0.9785   1.0111   1.0483   1.0700   1.0903
     1.1456   1.1479   1.1612   1.1767   1.2596   1.2983   1.3102   1.3498
     1.3680   1.3689   1.3819   1.4011   1.4137   1.4221   1.4256   1.4460
     1.4966   1.5207   1.5469   1.5524   1.5783   1.6601   1.6707   1.6725
     1.6812   1.7147   1.7622   1.7735   1.7805   1.8574   1.8686   1.8809
     1.9254   1.9396   1.9622   2.0535   2.1416   2.2003   2.3951   2.4464
     2.6641   2.7004   2.7624   2.8181   2.9033   2.9339   2.9799   3.0082
     3.0205   3.0551   3.0701   3.1665   3.1788   3.1809   5.2041   5.7227
     6.2168   6.2249   6.2425   6.2482   6.2653   6.6480   6.7256   6.8109
     7.0060   7.2400   7.4407   7.5110   7.8067   7.8599   7.8965   7.9066
     8.0196   8.0673   8.0752   8.0944   8.2474   8.3450   8.3525   8.3994
     8.5611   8.6211   8.7122   8.8258   8.8584   8.9340   8.9536   9.0703
     9.0821   9.1028

          k =-0.5000 0.5236 0.0000 ( 69550 PWs)   bands (ev):

   -39.8030 -37.9659 -37.2210 -35.5960 -22.6458 -22.6165 -22.5919 -22.5253
   -22.4922 -22.4809 -22.3881 -22.2945 -19.9620 -19.8905 -19.7441 -18.3505
   -18.3291 -18.3232 -18.3082 -18.3001 -18.2118 -16.8687 -16.8637 -16.8402
   -15.2371 -15.0390 -14.7839 -14.7227 -14.7091 -14.6376 -14.6350 -14.5485
   -14.5318 -14.5136 -14.4595 -14.4228 -14.4206 -14.3953 -14.3859 -14.3316
   -14.1687 -14.0946 -14.0234 -13.9235 -13.9021 -13.9009 -13.8968 -13.8888
   -13.7910 -13.7539 -13.7387 -13.7166 -13.6799 -13.6214  -8.2224  -8.1933
    -8.1228  -8.0921  -8.0909  -8.0665  -8.0025  -7.9666  -7.9352  -7.8992
    -7.8498  -7.8467  -7.7560  -7.7458  -7.7136  -7.6442  -7.6234  -7.6125
    -7.5446  -7.4974  -7.4852  -7.4761  -7.3586  -7.2685  -3.2395  -3.1154
    -3.0203  -2.9430  -2.6685  -2.6530  -2.5889  -2.5284  -2.4596  -2.4297
    -2.3988  -2.3119  -2.2662  -2.2259  -2.1420  -2.1210  -2.1170  -2.0932
    -2.0916  -2.0802  -2.0317  -1.9933  -1.9907  -1.9659  -1.9485  -1.9353
    -1.8678  -1.8210  -1.7053  -1.5682  -1.5124  -1.4293  -1.3990  -1.3615
    -1.3404  -1.3241  -1.2802  -1.2166  -1.1642  -1.1219  -1.1042  -1.0816
    -0.9874  -0.9507  -0.9025  -0.8687  -0.8655  -0.7432  -0.7377  -0.7333
    -0.6243  -0.5904  -0.5714  -0.5679  -0.5403  -0.5321  -0.5026  -0.4784
    -0.4487  -0.4325  -0.3847  -0.3639  -0.3501  -0.3388  -0.3214  -0.3106
    -0.2147  -0.1947  -0.1735  -0.1505  -0.1286  -0.1110   0.1094   0.1605
     0.1873   0.2135   0.2507   0.3242   0.3287   0.4453   0.4516   0.4699
     0.5648   0.5895   0.6302   0.6305   0.6698   0.7061   0.7134   0.7240
     0.8274   0.8671   0.9201   0.9440   1.0147   1.0544   1.0653   1.0660
     1.0892   1.0972   1.1069   1.1554   1.1734   1.1776   1.1810   1.1832
     1.2138   1.2528   1.2710   1.3511   1.4125   1.4655   1.4769   1.4843
     1.5119   1.5459   1.5790   1.5899   1.5967   1.6037   1.6411   1.6686
     1.6824   1.6874   1.6961   1.7123   1.7246   1.7471   1.7537   1.7917
     1.8402   1.8553   1.8592   1.8753   1.9145   1.9296   1.9352   1.9719
     2.0541   2.0616   2.0740   2.0920   2.2315   2.3320   2.3522   2.5216
     3.1532   3.1840   3.1947   3.2075   3.2088   3.2854   3.3331   3.3858
     3.4905   3.5404   3.5727   3.6432   3.7903   3.8150   5.5383   5.6208
     6.3211   6.7264   6.7416   6.7692   6.7862   6.8151   6.9713   7.1029
     7.2941   7.3347   7.3388   7.7318   8.1370   8.1510   8.1744   8.2431
     8.3010   8.3860   8.3984   8.4195   8.4762   8.5321   8.6833   8.7101
     8.8222   8.9166   8.9683   9.0063   9.0240   9.1094   9.2362   9.2522
     9.2801   9.3719

          k =-0.5000 0.7854 0.0000 ( 69602 PWs)   bands (ev):

   -39.7978 -37.9594 -37.2176 -35.5919 -22.5905 -22.5611 -22.5365 -22.4735
   -22.4366 -22.4253 -22.3325 -22.2428 -20.0715 -19.8805 -19.7141 -18.5382
   -18.4151 -18.3163 -18.2832 -18.2025 -18.1900 -16.9720 -16.8527 -16.7787
   -15.0891 -14.8883 -14.7733 -14.6570 -14.6314 -14.5771 -14.5683 -14.5137
   -14.4777 -14.4090 -14.3641 -14.3344 -14.3164 -14.2735 -14.2323 -14.2009
   -14.1881 -14.1837 -13.9736 -13.9713 -13.8967 -13.8588 -13.8481 -13.8422
   -13.8275 -13.8191 -13.8133 -13.8018 -13.7195 -13.7005  -8.3491  -8.3105
    -8.2763  -8.2184  -8.1882  -8.1735  -8.0623  -8.0438  -7.9631  -7.9462
    -7.9316  -7.8634  -7.8526  -7.8520  -7.8182  -7.8063  -7.7613  -7.7437
    -7.7094  -7.7041  -7.6658  -7.6137  -7.5576  -7.4431  -3.6796  -3.5326
    -3.4718  -3.3520  -3.1297  -3.0803  -3.0427  -3.0060  -2.9681  -2.9460
    -2.7176  -2.7167  -2.7069  -2.7049  -2.3973  -2.3179  -2.2863  -2.2059
    -2.1746  -2.1348  -2.0981  -2.0900  -2.0663  -1.9947  -1.9669  -1.9637
    -1.9181  -1.9155  -1.8437  -1.8246  -1.7400  -1.6993  -1.5879  -1.5692
    -1.4615  -1.4013  -1.3892  -1.3711  -1.3560  -1.2779  -1.2637  -1.2114
    -1.1272  -1.0997  -1.0260  -0.9932  -0.9537  -0.8468  -0.8423  -0.8172
    -0.8151  -0.8004  -0.7437  -0.6910  -0.6469  -0.6407  -0.6297  -0.5942
    -0.5686  -0.5491  -0.5482  -0.5440  -0.5306  -0.5265  -0.5163  -0.4846
    -0.4143  -0.3494  -0.2305  -0.2181  -0.2060  -0.1936   0.1716   0.1936
     0.2888   0.3201   0.3265   0.4222   0.4237   0.5109   0.5536   0.5686
     0.6360   0.6867   0.6880   0.7300   0.8050   0.8199   0.8987   0.9439
     1.0218   1.0535   1.0945   1.1119   1.1454   1.1623   1.1976   1.2010
     1.2212   1.2536   1.3278   1.3869   1.3953   1.4167   1.4225   1.4230
     1.4862   1.5010   1.5128   1.5327   1.5376   1.5782   1.6145   1.6543
     1.6560   1.6578   1.6998   1.7022   1.7081   1.7284   1.7542   1.7741
     1.8084   1.8218   1.8385   1.8580   1.8931   1.9043   1.9282   1.9460
     1.9542   1.9938   2.0405   2.0477   2.0645   2.0960   2.1434   2.2571
     2.2600   2.3351   2.3805   2.4674   2.4776   2.4778   2.4899   2.5799
     3.0201   3.0455   3.0529   3.0717   3.4609   3.4793   3.5775   3.6224
     3.7677   3.7829   3.7943   3.8618   4.1108   4.1486   5.4565   6.0068
     6.2820   6.8616   6.8974   6.9334   6.9360   6.9602   7.0301   7.1807
     7.2350   7.4012   7.6979   7.8662   8.0384   8.2213   8.2454   8.4883
     8.6315   8.7325   8.7736   8.8149   8.8381   8.8827   8.9520   8.9630
     9.0162   9.0375   9.3173   9.3937   9.4915   9.6610   9.6663   9.7269
     9.7464   9.7762

          k =-0.5000-1.0472 0.0000 ( 69548 PWs)   bands (ev):

   -39.7957 -37.9567 -37.2162 -35.5902 -22.5672 -22.5377 -22.5132 -22.4517
   -22.4131 -22.4018 -22.3091 -22.2210 -20.1164 -19.8763 -19.7006 -18.6187
   -18.4416 -18.3135 -18.2762 -18.1806 -18.1555 -17.0227 -16.8463 -16.7419
   -15.0036 -14.8218 -14.7933 -14.6781 -14.6151 -14.5880 -14.5570 -14.5532
   -14.4526 -14.3780 -14.3328 -14.2635 -14.1955 -14.1851 -14.1588 -14.1371
   -14.1093 -14.1000 -14.0390 -13.9950 -13.9298 -13.9272 -13.8982 -13.8909
   -13.8235 -13.8227 -13.8169 -13.8163 -13.7170 -13.7041  -8.3525  -8.3018
    -8.3007  -8.2207  -8.1836  -8.1749  -8.0732  -8.0410  -8.0274  -8.0040
    -7.9774  -7.9603  -7.9249  -7.9226  -7.8947  -7.8862  -7.8819  -7.8793
    -7.7403  -7.7318  -7.7064  -7.7048  -7.5623  -7.5342  -3.8588  -3.7340
    -3.6167  -3.5125  -3.3254  -3.2682  -3.2513  -3.1791  -3.1538  -3.1474
    -2.9505  -2.9498  -2.9410  -2.9372  -2.3244  -2.2946  -2.2916  -2.2627
    -2.1902  -2.1820  -2.1057  -2.0965  -2.0857  -2.0677  -2.0327  -1.9846
    -1.9491  -1.8870  -1.8742  -1.8489  -1.8231  -1.7449  -1.6889  -1.6657
    -1.5541  -1.5166  -1.4533  -1.4094  -1.3999  -1.3092  -1.3010  -1.2491
    -1.1515  -1.1181  -1.0741  -1.0483  -0.9718  -0.9451  -0.9432  -0.9134
    -0.9001  -0.8706  -0.7387  -0.7138  -0.7106  -0.7040  -0.6548  -0.6273
    -0.6256  -0.6241  -0.6110  -0.6104  -0.5708  -0.5614  -0.5367  -0.4601
    -0.4482  -0.3637  -0.2527  -0.2296  -0.2265  -0.2215   0.1947   0.2039
     0.3444   0.3547   0.3583   0.4512   0.4573   0.5282   0.5806   0.6002
     0.6542   0.6635   0.7007   0.7853   0.8317   0.9315   0.9400   1.0051
     1.1340   1.1444   1.1836   1.2294   1.2447   1.2817   1.3023   1.3033
     1.3118   1.3521   1.3632   1.3881   1.4032   1.4159   1.4241   1.4418
     1.4621   1.4846   1.4962   1.5582   1.5605   1.5753   1.6392   1.6403
     1.6749   1.6940   1.6952   1.7052   1.7928   1.8192   1.8253   1.8937
     1.9066   1.9153   1.9363   1.9557   1.9690   2.0071   2.0109   2.0339
     2.1197   2.1308   2.1807   2.2010   2.2920   2.2949   2.2960   2.2991
     2.3123   2.4226   2.5942   2.6004   2.6469   2.6558   2.6571   2.6659
     2.8181   2.8332   2.8535   2.8648   3.4973   3.5094   3.5928   3.6769
     3.7634   3.7761   3.8566   3.9283   4.1564   4.2454   5.3985   6.2255
     6.2323   6.8308   6.8408   6.8767   6.8812   6.9255   6.9994   7.1051
     7.4653   7.5275   7.7225   7.8609   7.8902   8.2053   8.3659   8.5601
     8.6148   8.7883   8.8103   8.8195   9.1995   9.2272   9.3570   9.5006
     9.5024   9.5503   9.6166   9.6383   9.6490   9.6525   9.7247   9.8479
     9.9162   9.9318

     the Fermi energy is     2.8270 ev

!    total energy              =   -3711.58198486 Ry
     Harris-Foulkes estimate   =   -3711.58198486 Ry
     estimated scf accuracy    <          4.9E-09 Ry

     The total energy is the sum of the following terms:

     one-electron contribution =  -63464.09345438 Ry
     hartree contribution      =   32038.59383014 Ry
     xc contribution           =   -1263.73022861 Ry
     ewald contribution        =   28977.66131973 Ry
     smearing contrib. (-TS)   =      -0.01345173 Ry

     convergence has been achieved in  37 iterations

     negative rho (up, down):  9.175E-02 0.000E+00

     Forces acting on atoms (cartesian axes, Ry/au):

     atom    1 type  4   force =    -0.00000337    0.00000000   -0.00010046
     atom    2 type  4   force =     0.00000337    0.00000000   -0.00010046
     atom    3 type  3   force =    -0.00001779    0.00000000   -0.00008749
     atom    4 type  3   force =     0.00001779    0.00000000   -0.00008749
     atom    5 type  4   force =     0.00000016    0.00000000   -0.00006348
     atom    6 type  4   force =    -0.00000016    0.00000000   -0.00006348
     atom    7 type  1   force =     0.00000000    0.00000000   -0.00006424
     atom    8 type  1   force =     0.00000000    0.00000000   -0.00005892
     atom    9 type  3   force =     0.00001838    0.00000000   -0.00007865
     atom   10 type  3   force =    -0.00001838    0.00000000   -0.00007865
     atom   11 type  4   force =     0.00000000    0.00000000    0.00002285
     atom   12 type  4   force =    -0.00000946    0.00000000   -0.00004017
     atom   13 type  4   force =     0.00000946    0.00000000   -0.00004017
     atom   14 type  4   force =     0.00000000    0.00000000    0.00002219
     atom   15 type  2   force =     0.00000000    0.00000000   -0.00016516
     atom   16 type  5   force =     0.00000000    0.00000000   -0.00024968
     atom   17 type  4   force =     0.00004627    0.00000000    0.00023100
     atom   18 type  4   force =    -0.00004627    0.00000000    0.00023100
     atom   19 type  4   force =     0.00000000    0.00000000    0.00025861
     atom   20 type  4   force =     0.00000000    0.00000000    0.00037730
     atom   21 type  3   force =    -0.00004983    0.00000000   -0.00052992
     atom   22 type  3   force =     0.00004983    0.00000000   -0.00052992
     atom   23 type  1   force =     0.00000000    0.00000000   -0.00074620
     atom   24 type  1   force =     0.00000000    0.00000000   -0.00080788
     atom   25 type  4   force =    -0.00007553    0.00000000    0.00194521
     atom   26 type  4   force =     0.00007553    0.00000000    0.00194521
     atom   27 type  4   force =     0.00023078    0.00000000    0.00251333
     atom   28 type  4   force =    -0.00023078    0.00000000    0.00251333
     atom   29 type  3   force =     0.00058901    0.00000000   -0.00441561
     atom   30 type  3   force =    -0.00058901    0.00000000   -0.00441561
     atom   31 type  4   force =     0.00033919    0.00000000    0.00541936
     atom   32 type  4   force =    -0.00033919    0.00000000    0.00541936
     atom   33 type  1   force =     0.00000000    0.00000000   -0.01383936
     atom   34 type  1   force =     0.00000000    0.00000000   -0.00969502
     atom   35 type  3   force =    -0.00301308    0.00000000    0.00238269
     atom   36 type  3   force =     0.00301308    0.00000000    0.00238269
     atom   37 type  4   force =     0.00000000    0.00000000    0.03147150
     atom   38 type  4   force =     0.00000000    0.00000000    0.05413510
     atom   39 type  4   force =     0.01271964    0.00000000    0.04495990
     atom   40 type  4   force =    -0.01271964    0.00000000    0.04495990
     atom   41 type  5   force =     0.00000000    0.00000000    0.01491761
     atom   42 type  2   force =     0.00000000    0.00000000    0.01714360
     atom   43 type  4   force =     0.00000000    0.00000000   -0.04330485
     atom   44 type  4   force =    -0.00190128    0.00000000   -0.03292004
     atom   45 type  4   force =     0.00190128    0.00000000   -0.03292004
     atom   46 type  4   force =     0.00000000    0.00000000   -0.01668756
     atom   47 type  3   force =    -0.00007113    0.00000000   -0.01488633
     atom   48 type  3   force =     0.00007113    0.00000000   -0.01488633
     atom   49 type  1   force =     0.00000000    0.00000000   -0.01823709
     atom   50 type  1   force =     0.00000000    0.00000000   -0.02326810
     atom   51 type  4   force =     0.00047218    0.00000000    0.00005602
     atom   52 type  4   force =    -0.00047218    0.00000000    0.00005602
     atom   53 type  3   force =    -0.00011605    0.00000000   -0.00086890
     atom   54 type  3   force =     0.00011605    0.00000000   -0.00086890
     atom   55 type  4   force =    -0.00000385    0.00000000    0.00087116
     atom   56 type  4   force =     0.00000385    0.00000000    0.00087116

     Total force =     0.122022     Total SCF correction =     0.000391


     Computing stress (Cartesian axis) and pressure


     negative rho (up, down):  9.175E-02 0.000E+00
          total   stress  (Ry/bohr**3)                   (kbar)     P=       -8.70
  -0.00001444   0.00000000   0.00000000           -2.12        0.00        0.00
   0.00000000  -0.00000421   0.00000000            0.00       -0.62        0.00
   0.00000000   0.00000000  -0.00015874            0.00        0.00      -23.35

 
     init_run     :     25.19s CPU     26.44s WALL (       1 calls)
     electrons    :   1824.44s CPU   1926.60s WALL (       1 calls)
     forces       :     11.01s CPU     11.67s WALL (       1 calls)
     stress       :    120.62s CPU    122.46s WALL (       1 calls)

     Called by init_run:
     wfcinit      :     20.74s CPU     21.31s WALL (       1 calls)
     potinit      :      0.96s CPU      0.99s WALL (       1 calls)
     hinit0       :      1.58s CPU      1.63s WALL (       1 calls)

     Called by electrons:
     c_bands      :   1524.10s CPU   1581.76s WALL (      37 calls)
     sum_band     :    228.08s CPU    251.68s WALL (      37 calls)
     v_of_rho     :      3.99s CPU      4.08s WALL (      38 calls)
     newd         :     35.02s CPU     54.01s WALL (      38 calls)
     mix_rho      :     33.79s CPU     34.14s WALL (      37 calls)

     Called by c_bands:
     init_us_2    :      8.61s CPU      8.70s WALL (    1925 calls)
     cegterg      :   1455.80s CPU   1494.88s WALL (     925 calls)

     Called by sum_band:
     sum_band:bec :      1.08s CPU      1.09s WALL (     925 calls)
     addusdens    :     32.85s CPU     54.12s WALL (      37 calls)

     Called by *egterg:
     h_psi        :    698.36s CPU    713.10s WALL (    4092 calls)
     s_psi        :    100.04s CPU    100.60s WALL (    4092 calls)
     g_psi        :      1.49s CPU      1.51s WALL (    3142 calls)
     cdiaghg      :    318.82s CPU    320.10s WALL (    4067 calls)

     Called by h_psi:
     h_psi:calbec :    114.11s CPU    114.64s WALL (    4092 calls)
     vloc_psi     :    480.88s CPU    487.79s WALL (    4092 calls)
     add_vuspsi   :    100.63s CPU    101.16s WALL (    4092 calls)

     General routines
     calbec       :    216.67s CPU    217.53s WALL (    5142 calls)
     fft          :      3.68s CPU      3.73s WALL (     517 calls)
     ffts         :     18.02s CPU     18.21s WALL (   21121 calls)
     fftw         :    554.87s CPU    562.68s WALL ( 1309110 calls)
     interpolate  :      0.29s CPU      0.29s WALL (      38 calls)
 
     Parallel routines
     fft_scatt_xy :     60.69s CPU     61.55s WALL ( 1330748 calls)
     fft_scatt_yz :    372.77s CPU    378.00s WALL ( 1330748 calls)
 
     PWSCF        :  33m 2.25s CPU  34m48.26s WALL

 
   This run was terminated on:   0:30:53  28May2021            

=------------------------------------------------------------------------------=
   JOB DONE.
=------------------------------------------------------------------------------=
[1622176253.730195] [holy7c16602:269547:0]          mpool.c:43   UCX  WARN  object 0x3fb9680 was not returned to mpool ucp_requests
[1622176253.740208] [holy7c16510:82131:0]          mpool.c:43   UCX  WARN  object 0x38f0980 was not returned to mpool ucp_requests
[1622176253.740623] [holy7c16602:269548:0]          mpool.c:43   UCX  WARN  object 0x3cdc580 was not returned to mpool ucp_requests
[1622176253.745925] [holy7c08101:192842:0]          mpool.c:43   UCX  WARN  object 0x3bb07c0 was not returned to mpool ucp_requests
[1622176253.742222] [holy7c16601:22377:0]          mpool.c:43   UCX  WARN  object 0x3a54600 was not returned to mpool ucp_requests
[1622176253.746952] [holy7c04107:184518:0]          mpool.c:43   UCX  WARN  object 0x42ecd40 was not returned to mpool ucp_requests
[1622176253.746398] [holy7c06606:85605:0]          mpool.c:43   UCX  WARN  object 0x40a9680 was not returned to mpool ucp_requests
[1622176253.746423] [holy7c06606:85605:0]          mpool.c:43   UCX  WARN  object 0x40a9a00 was not returned to mpool ucp_requests
[1622176253.749436] [holy7c16512:258345:0]          mpool.c:43   UCX  WARN  object 0x4538880 was not returned to mpool ucp_requests
[1622176253.749454] [holy7c16512:258345:0]          mpool.c:43   UCX  WARN  object 0x4538a40 was not returned to mpool ucp_requests
[1622176253.744055] [holy7c16601:22380:0]          mpool.c:43   UCX  WARN  object 0x377cc00 was not returned to mpool ucp_requests
[1622176253.744077] [holy7c16601:22380:0]          mpool.c:43   UCX  WARN  object 0x377d300 was not returned to mpool ucp_requests
[1622176253.747068] [holy7c08208:266458:0]          mpool.c:43   UCX  WARN  object 0x2992280 was not returned to mpool ucp_requests
[1622176253.747096] [holy7c08208:266458:0]          mpool.c:43   UCX  WARN  object 0x2992440 was not returned to mpool ucp_requests
[1622176253.756799] [holy7c12208:68400:0]          mpool.c:43   UCX  WARN  object 0x37bb3c0 was not returned to mpool ucp_requests
[1622176253.768980] [holy7c04102:265618:0]          mpool.c:43   UCX  WARN  object 0x369cd00 was not returned to mpool ucp_requests
[1622176253.746005] [holy7c16601:22378:0]          mpool.c:43   UCX  WARN  object 0x4704980 was not returned to mpool ucp_requests
[1622176253.765033] [holy7c06207:185321:0]          mpool.c:43   UCX  WARN  object 0x478a280 was not returned to mpool ucp_requests
[1622176253.765056] [holy7c06207:185321:0]          mpool.c:43   UCX  WARN  object 0x478a440 was not returned to mpool ucp_requests
