
     Program PWSCF v.6.5 starts on 25May2021 at 16:37:41 

     This program is part of the open-source Quantum ESPRESSO suite
     for quantum simulation of materials; please cite
         "P. Giannozzi et al., J. Phys.:Condens. Matter 21 395502 (2009);
         "P. Giannozzi et al., J. Phys.:Condens. Matter 29 465901 (2017);
          URL http://www.quantum-espresso.org", 
     in publications or presentations arising from this work. More details at
     http://www.quantum-espresso.org/quote

     Parallel version (MPI), running on    32 processors

     MPI processes distributed on     5 nodes
     R & G space division:  proc/nbgrp/npool/nimage =      32
     Reading input from YCBCO50_212_BaO_cleave_3.0_sep.pwi
Warning: card &IONS ignored
Warning: card     ION_DYNAMICS = 'BFGS' ignored
Warning: card / ignored
Warning: card &CELL ignored
Warning: card     CELL_DYNAMICS = 'BFGS' ignored
Warning: card     PRESS_CONV_THR = 5 ignored
Warning: card / ignored

     Current dimensions of program PWSCF are:
     Max number of different atomic species (ntypx) = 10
     Max number of k-points (npk) =  40000
     Max angular momentum in pseudopotentials (lmaxx) =  3

     Subspace diagonalization in iterative solution of the eigenvalue problem:
     one sub-group per band group will be used
     scalapack distributed-memory algorithm (size of sub-group:  5*  5 procs)

     Message from routine setup:
     using ibrav=0 with symmetry is DISCOURAGED, use correct ibrav instead
 
     Parallelization info
     --------------------
     sticks:   dense  smooth     PW     G-vecs:    dense   smooth      PW
     Min         188      62     17                94912    18254    2723
     Max         189      63     18                94944    18301    2764
     Sum        6019    2003    565              3037741   584901   87953
 


     bravais-lattice index     =            0
     lattice parameter (alat)  =      14.8133  a.u.
     unit-cell volume          =    9311.2145 (a.u.)^3
     number of atoms/cell      =           56
     number of atomic types    =            5
     number of electrons       =       456.00
     number of Kohn-Sham states=          274
     kinetic-energy cutoff     =      60.0000  Ry
     charge density cutoff     =     720.0000  Ry
     convergence threshold     =      1.0E-08
     mixing beta               =       0.5000
     number of iterations used =           10  local-TF  mixing
     Exchange-correlation= SLA PW PBE PBE
                           (   1   4   3   4   0   0   0)

     celldm(1)=  14.813271  celldm(2)=   0.000000  celldm(3)=   0.000000
     celldm(4)=   0.000000  celldm(5)=   0.000000  celldm(6)=   0.000000

     crystal axes: (cart. coord. in units of alat)
               a(1) = (   1.000000   0.000000   0.000000 )  
               a(2) = (   0.000000   0.477453   0.000000 )  
               a(3) = (   0.000000   0.000000   5.999610 )  

     reciprocal axes: (cart. coord. in units 2 pi/alat)
               b(1) = (  1.000000  0.000000  0.000000 )  
               b(2) = (  0.000000  2.094448  0.000000 )  
               b(3) = (  0.000000  0.000000  0.166677 )  


     PseudoPot. # 1 for Ba read from file:
     ./pseudo/Ba.pbe-nsp-van.UPF
     MD5 check sum: 2b9c31dd849566dd297d80989662b7a0
     Pseudo is Ultrasoft + core correction, Zval = 10.0
     Generated by new atomic code, or converted to UPF format
     Using radial grid of  907 points,  6 beta functions with: 
                l(1) =   0
                l(2) =   0
                l(3) =   1
                l(4) =   1
                l(5) =   2
                l(6) =   2
     Q(r) pseudized with  6 coefficients,  rinner =    1.200   1.200   1.200
                                                       1.200   1.200

     PseudoPot. # 2 for Ca read from file:
     ./pseudo/Ca.pbe-nsp-van.UPF
     MD5 check sum: 6471098428ff4fa451746d08035ff179
     Pseudo is Ultrasoft + core correction, Zval = 10.0
     Generated by new atomic code, or converted to UPF format
     Using radial grid of  845 points,  6 beta functions with: 
                l(1) =   0
                l(2) =   0
                l(3) =   1
                l(4) =   1
                l(5) =   2
                l(6) =   2
     Q(r) pseudized with  6 coefficients,  rinner =    1.200   1.200   1.200
                                                       1.200   1.200

     PseudoPot. # 3 for Cu read from file:
     ./pseudo/Cu.pbe-n-van_ak.UPF
     MD5 check sum: 34e3282627ffb533726feb647e090d62
     Pseudo is Ultrasoft + core correction, Zval = 11.0
     Generated by new atomic code, or converted to UPF format
     Using radial grid of  867 points,  6 beta functions with: 
                l(1) =   0
                l(2) =   0
                l(3) =   1
                l(4) =   1
                l(5) =   2
                l(6) =   2
     Q(r) pseudized with  8 coefficients,  rinner =    1.400   1.400   1.400
                                                       1.400   1.400

     PseudoPot. # 4 for O  read from file:
     ./pseudo/O.pbe-van_ak.UPF
     MD5 check sum: 783ce7fe4c79b6a4916957118fed0856
     Pseudo is Ultrasoft, Zval =  6.0
     Generated by new atomic code, or converted to UPF format
     Using radial grid of  737 points,  4 beta functions with: 
                l(1) =   0
                l(2) =   0
                l(3) =   1
                l(4) =   1
     Q(r) pseudized with  8 coefficients,  rinner =    0.800   0.800   0.800


     PseudoPot. # 5 for Y  read from file:
     ./pseudo/Y.pbe-nsp-van.UPF
     MD5 check sum: 4412fed3ab108fed87a1b7d6a69a4a38
     Pseudo is Ultrasoft + core correction, Zval = 11.0
     Generated by new atomic code, or converted to UPF format
     Using radial grid of  885 points,  6 beta functions with: 
                l(1) =   0
                l(2) =   0
                l(3) =   1
                l(4) =   1
                l(5) =   2
                l(6) =   2
     Q(r) pseudized with  6 coefficients,  rinner =    1.200   1.200   1.200
                                                       1.200   1.200

     atomic species   valence    mass     pseudopotential
        Ba            10.00   137.32700     Ba( 1.00)
        Ca            10.00    40.07800     Ca( 1.00)
        Cu            11.00    63.54600     Cu( 1.00)
        O              6.00    15.99900     O ( 1.00)
        Y             11.00    88.90584     Y ( 1.00)

      4 Sym. Ops. (no inversion) found ( 2 have fractional translation)



   Cartesian axes

     site n.     atom                  positions (alat units)
         1           O   tau(   1) = (  -0.0008343   0.2387265  -0.0222443  )
         2           O   tau(   2) = (   0.5008340   0.2387265  -0.0222443  )
         3           Cu  tau(   3) = (   0.5017257   0.0000000   0.0109608  )
         4           Cu  tau(   4) = (  -0.0017260   0.0000000   0.0109608  )
         5           O   tau(   5) = (  -0.0028933   0.0000000   0.2506504  )
         6           O   tau(   6) = (   0.5028929   0.0000000   0.2506504  )
         7           Ba  tau(   7) = (   0.7499995   0.2387265   0.2749435  )
         8           Ba  tau(   8) = (   0.2499998   0.2387265   0.2755214  )
         9           Cu  tau(   9) = (   0.4980963   0.0000000   0.5208446  )
        10           Cu  tau(  10) = (   0.0019033   0.0000000   0.5208446  )
        11           O   tau(  11) = (   0.2499998   0.0000000   0.5341884  )
        12           O   tau(  12) = (   0.5083351   0.2387265   0.5569851  )
        13           O   tau(  13) = (  -0.0083354   0.2387265   0.5569851  )
        14           O   tau(  14) = (   0.7499995   0.0000000   0.5573831  )
        15           Ca  tau(  15) = (   0.2499998   0.2387265   0.7436937  )
        16           Y   tau(  16) = (   0.7499995   0.2387265   0.7469544  )
        17           O   tau(  17) = (  -0.0063798   0.2387265   0.9248530  )
        18           O   tau(  18) = (   0.5063794   0.2387265   0.9248530  )
        19           O   tau(  19) = (   0.7499995   0.0000000   0.9338544  )
        20           O   tau(  20) = (   0.2499998   0.0000000   0.9461329  )
        21           Cu  tau(  21) = (   0.0015717   0.0000000   0.9686860  )
        22           Cu  tau(  22) = (   0.4984280   0.0000000   0.9686860  )
        23           Ba  tau(  23) = (   0.2499998   0.2387265   1.2085224  )
        24           Ba  tau(  24) = (   0.7499995   0.2387265   1.2233294  )
        25           O   tau(  25) = (   0.0063772   0.0000000   1.2547537  )
        26           O   tau(  26) = (   0.4936224   0.0000000   1.2547537  )
        27           O   tau(  27) = (   0.5384045   0.2387265   1.4952521  )
        28           O   tau(  28) = (  -0.0384049   0.2387265   1.4952521  )
        29           Cu  tau(  29) = (   0.5006120   0.0000000   1.4952546  )
        30           Cu  tau(  30) = (  -0.0006123   0.0000000   1.4952546  )
        31           O   tau(  31) = (   0.4936212   0.0000000   1.7357531  )
        32           O   tau(  32) = (   0.0063785   0.0000000   1.7357531  )
        33           Ba  tau(  33) = (   0.7499995   0.2387265   1.7671824  )
        34           Ba  tau(  34) = (   0.2499998   0.2387265   1.7819920  )
        35           Cu  tau(  35) = (   0.4984280   0.0000000   2.4045327  )
        36           Cu  tau(  36) = (   0.0015717   0.0000000   2.4045327  )
        37           O   tau(  37) = (   0.2499998   0.0000000   2.4270908  )
        38           O   tau(  38) = (   0.7499995   0.0000000   2.4393605  )
        39           O   tau(  39) = (   0.5063781   0.2387265   2.4483656  )
        40           O   tau(  40) = (  -0.0063785   0.2387265   2.4483656  )
        41           Y   tau(  41) = (   0.7499995   0.2387265   2.6262592  )
        42           Ca  tau(  42) = (   0.2499998   0.2387265   2.6295288  )
        43           O   tau(  43) = (   0.7499995   0.0000000   2.8158266  )
        44           O   tau(  44) = (  -0.0083354   0.2387265   2.8162285  )
        45           O   tau(  45) = (   0.5083351   0.2387265   2.8162285  )
        46           O   tau(  46) = (   0.2499998   0.0000000   2.8390265  )
        47           Cu  tau(  47) = (   0.0019059   0.0000000   2.8523601  )
        48           Cu  tau(  48) = (   0.4980938   0.0000000   2.8523601  )
        49           Ba  tau(  49) = (   0.2499998   0.2387265   3.0976998  )
        50           Ba  tau(  50) = (   0.7499995   0.2387265   3.0982420  )
        51           O   tau(  51) = (  -0.0028895   0.0000000   3.1225491  )
        52           O   tau(  52) = (   0.5028891   0.0000000   3.1225491  )
        53           Cu  tau(  53) = (   0.5017844   0.0000000   3.3622336  )
        54           Cu  tau(  54) = (  -0.0017847   0.0000000   3.3622336  )
        55           O   tau(  55) = (   0.5008990   0.2387265   3.3954401  )
        56           O   tau(  56) = (  -0.0008994   0.2387265   3.3954401  )

     number of k points=    25  Gaussian smearing, width (Ry)=  0.0100
                       cart. coord. in units 2pi/alat
        k(    1) = (   0.0000000   0.0000000   0.0000000), wk =   0.0312500
        k(    2) = (   0.0000000   0.2618060   0.0000000), wk =   0.0625000
        k(    3) = (   0.0000000   0.5236121   0.0000000), wk =   0.0625000
        k(    4) = (   0.0000000   0.7854181   0.0000000), wk =   0.0625000
        k(    5) = (   0.0000000  -1.0472241   0.0000000), wk =   0.0312500
        k(    6) = (   0.1250000   0.0000000   0.0000000), wk =   0.0625000
        k(    7) = (   0.1250000   0.2618060   0.0000000), wk =   0.1250000
        k(    8) = (   0.1250000   0.5236121   0.0000000), wk =   0.1250000
        k(    9) = (   0.1250000   0.7854181   0.0000000), wk =   0.1250000
        k(   10) = (   0.1250000  -1.0472241   0.0000000), wk =   0.0625000
        k(   11) = (   0.2500000   0.0000000   0.0000000), wk =   0.0625000
        k(   12) = (   0.2500000   0.2618060   0.0000000), wk =   0.1250000
        k(   13) = (   0.2500000   0.5236121   0.0000000), wk =   0.1250000
        k(   14) = (   0.2500000   0.7854181   0.0000000), wk =   0.1250000
        k(   15) = (   0.2500000  -1.0472241   0.0000000), wk =   0.0625000
        k(   16) = (   0.3750000   0.0000000   0.0000000), wk =   0.0625000
        k(   17) = (   0.3750000   0.2618060   0.0000000), wk =   0.1250000
        k(   18) = (   0.3750000   0.5236121   0.0000000), wk =   0.1250000
        k(   19) = (   0.3750000   0.7854181   0.0000000), wk =   0.1250000
        k(   20) = (   0.3750000  -1.0472241   0.0000000), wk =   0.0625000
        k(   21) = (  -0.5000000   0.0000000   0.0000000), wk =   0.0312500
        k(   22) = (  -0.5000000   0.2618060   0.0000000), wk =   0.0625000
        k(   23) = (  -0.5000000   0.5236121   0.0000000), wk =   0.0625000
        k(   24) = (  -0.5000000   0.7854181   0.0000000), wk =   0.0625000
        k(   25) = (  -0.5000000  -1.0472241   0.0000000), wk =   0.0312500

     Dense  grid:  3037741 G-vectors     FFT dimensions: ( 128,  64, 768)

     Smooth grid:   584901 G-vectors     FFT dimensions: (  80,  36, 450)

     Estimated max dynamical RAM per process >     878.80 MB

     Estimated total dynamical RAM >      27.46 GB

     Initial potential from superposition of free atoms

     starting charge  455.69457, renormalised to  456.00000

     negative rho (up, down):  9.316E-02 0.000E+00
     Starting wfcs are  396 randomized atomic wfcs

     total cpu time spent up to now is       32.3 secs

     Self-consistent Calculation

     iteration #  1     ecut=    60.00 Ry     beta= 0.50
     Davidson diagonalization with overlap
     ethr =  1.00E-02,  avg # of iterations =  2.0

     negative rho (up, down):  8.617E-02 0.000E+00

     total cpu time spent up to now is       89.8 secs

     total energy              =   -3708.27299968 Ry
     Harris-Foulkes estimate   =   -3716.60189148 Ry
     estimated scf accuracy    <      34.01572007 Ry

     iteration #  2     ecut=    60.00 Ry     beta= 0.50
     Davidson diagonalization with overlap
     ethr =  7.46E-03,  avg # of iterations =  2.0

     negative rho (up, down):  8.597E-02 0.000E+00

     total cpu time spent up to now is      146.2 secs

     total energy              =   -3711.07418514 Ry
     Harris-Foulkes estimate   =   -3712.48256810 Ry
     estimated scf accuracy    <       8.82104586 Ry

     iteration #  3     ecut=    60.00 Ry     beta= 0.50
     Davidson diagonalization with overlap
     ethr =  1.93E-03,  avg # of iterations =  1.6

     negative rho (up, down):  8.641E-02 0.000E+00

     total cpu time spent up to now is      200.2 secs

     total energy              =   -3711.69599048 Ry
     Harris-Foulkes estimate   =   -3712.01201856 Ry
     estimated scf accuracy    <       8.43464807 Ry

     iteration #  4     ecut=    60.00 Ry     beta= 0.50
     Davidson diagonalization with overlap
     ethr =  1.85E-03,  avg # of iterations =  1.0

     negative rho (up, down):  8.697E-02 0.000E+00

     total cpu time spent up to now is      255.7 secs

     total energy              =   -3711.75390710 Ry
     Harris-Foulkes estimate   =   -3711.84398152 Ry
     estimated scf accuracy    <       4.43165298 Ry

     iteration #  5     ecut=    60.00 Ry     beta= 0.50
     Davidson diagonalization with overlap
     ethr =  9.72E-04,  avg # of iterations =  1.0

     negative rho (up, down):  8.850E-02 0.000E+00

     total cpu time spent up to now is      309.9 secs

     total energy              =   -3711.63337977 Ry
     Harris-Foulkes estimate   =   -3711.82016858 Ry
     estimated scf accuracy    <       4.05725014 Ry

     iteration #  6     ecut=    60.00 Ry     beta= 0.50
     Davidson diagonalization with overlap
     ethr =  8.90E-04,  avg # of iterations =  1.0

     negative rho (up, down):  8.954E-02 0.000E+00

     total cpu time spent up to now is      361.4 secs

     total energy              =   -3711.64098024 Ry
     Harris-Foulkes estimate   =   -3711.69784319 Ry
     estimated scf accuracy    <       1.56064456 Ry

     iteration #  7     ecut=    60.00 Ry     beta= 0.50
     Davidson diagonalization with overlap
     ethr =  3.42E-04,  avg # of iterations =  6.8

     negative rho (up, down):  9.030E-02 0.000E+00

     total cpu time spent up to now is      433.4 secs

     total energy              =   -3711.63860342 Ry
     Harris-Foulkes estimate   =   -3711.66541880 Ry
     estimated scf accuracy    <       0.66383928 Ry

     iteration #  8     ecut=    60.00 Ry     beta= 0.50
     Davidson diagonalization with overlap
     ethr =  1.46E-04,  avg # of iterations =  6.8

     negative rho (up, down):  9.088E-02 0.000E+00

     total cpu time spent up to now is      505.8 secs

     total energy              =   -3711.63321424 Ry
     Harris-Foulkes estimate   =   -3711.65108140 Ry
     estimated scf accuracy    <       0.68898936 Ry

     iteration #  9     ecut=    60.00 Ry     beta= 0.50
     Davidson diagonalization with overlap
     ethr =  1.46E-04,  avg # of iterations =  2.7

     negative rho (up, down):  9.091E-02 0.000E+00

     total cpu time spent up to now is      564.9 secs

     total energy              =   -3711.61710683 Ry
     Harris-Foulkes estimate   =   -3711.64006836 Ry
     estimated scf accuracy    <       0.45369590 Ry

     iteration # 10     ecut=    60.00 Ry     beta= 0.50
     Davidson diagonalization with overlap
     ethr =  9.95E-05,  avg # of iterations =  8.8

     negative rho (up, down):  9.062E-02 0.000E+00

     total cpu time spent up to now is      641.2 secs

     total energy              =   -3711.61485319 Ry
     Harris-Foulkes estimate   =   -3711.62394446 Ry
     estimated scf accuracy    <       0.18736553 Ry

     iteration # 11     ecut=    60.00 Ry     beta= 0.50
     Davidson diagonalization with overlap
     c_bands:  1 eigenvalues not converged
     c_bands:  1 eigenvalues not converged
     ethr =  4.11E-05,  avg # of iterations =  9.4

     negative rho (up, down):  9.002E-02 0.000E+00

     total cpu time spent up to now is      722.3 secs

     total energy              =   -3711.61134682 Ry
     Harris-Foulkes estimate   =   -3711.61757338 Ry
     estimated scf accuracy    <       0.05577452 Ry

     iteration # 12     ecut=    60.00 Ry     beta= 0.50
     Davidson diagonalization with overlap
     c_bands:  1 eigenvalues not converged
     ethr =  1.22E-05,  avg # of iterations = 10.8

     negative rho (up, down):  8.961E-02 0.000E+00

     total cpu time spent up to now is      810.2 secs

     total energy              =   -3711.61129844 Ry
     Harris-Foulkes estimate   =   -3711.61336030 Ry
     estimated scf accuracy    <       0.03661169 Ry

     iteration # 13     ecut=    60.00 Ry     beta= 0.50
     Davidson diagonalization with overlap
     ethr =  8.03E-06,  avg # of iterations =  1.5

     negative rho (up, down):  8.942E-02 0.000E+00

     total cpu time spent up to now is      865.2 secs

     total energy              =   -3711.61016179 Ry
     Harris-Foulkes estimate   =   -3711.61178481 Ry
     estimated scf accuracy    <       0.03854007 Ry

     iteration # 14     ecut=    60.00 Ry     beta= 0.50
     Davidson diagonalization with overlap
     c_bands:  2 eigenvalues not converged
     ethr =  8.03E-06,  avg # of iterations =  4.3

     negative rho (up, down):  8.998E-02 0.000E+00

     total cpu time spent up to now is      929.2 secs

     total energy              =   -3711.60889612 Ry
     Harris-Foulkes estimate   =   -3711.61047569 Ry
     estimated scf accuracy    <       0.03812768 Ry

     iteration # 15     ecut=    60.00 Ry     beta= 0.50
     Davidson diagonalization with overlap
     ethr =  8.03E-06,  avg # of iterations =  4.7

     negative rho (up, down):  8.958E-02 0.000E+00

     total cpu time spent up to now is      991.1 secs

     total energy              =   -3711.60858953 Ry
     Harris-Foulkes estimate   =   -3711.60914914 Ry
     estimated scf accuracy    <       0.04878066 Ry

     iteration # 16     ecut=    60.00 Ry     beta= 0.50
     Davidson diagonalization with overlap
     ethr =  8.03E-06,  avg # of iterations =  3.8

     negative rho (up, down):  8.992E-02 0.000E+00

     total cpu time spent up to now is     1051.9 secs

     total energy              =   -3711.60697527 Ry
     Harris-Foulkes estimate   =   -3711.60880475 Ry
     estimated scf accuracy    <       0.02882734 Ry

     iteration # 17     ecut=    60.00 Ry     beta= 0.50
     Davidson diagonalization with overlap
     ethr =  6.32E-06,  avg # of iterations =  6.5

     negative rho (up, down):  9.032E-02 0.000E+00

     total cpu time spent up to now is     1121.5 secs

     total energy              =   -3711.60597151 Ry
     Harris-Foulkes estimate   =   -3711.60716483 Ry
     estimated scf accuracy    <       0.03539498 Ry

     iteration # 18     ecut=    60.00 Ry     beta= 0.50
     Davidson diagonalization with overlap
     ethr =  6.32E-06,  avg # of iterations =  6.4

     negative rho (up, down):  9.052E-02 0.000E+00

     total cpu time spent up to now is     1190.3 secs

     total energy              =   -3711.60544799 Ry
     Harris-Foulkes estimate   =   -3711.60612458 Ry
     estimated scf accuracy    <       0.02611505 Ry

     iteration # 19     ecut=    60.00 Ry     beta= 0.50
     Davidson diagonalization with overlap
     ethr =  5.73E-06,  avg # of iterations =  5.0

     negative rho (up, down):  9.042E-02 0.000E+00

     total cpu time spent up to now is     1254.8 secs

     total energy              =   -3711.60416036 Ry
     Harris-Foulkes estimate   =   -3711.60550717 Ry
     estimated scf accuracy    <       0.01812120 Ry

     iteration # 20     ecut=    60.00 Ry     beta= 0.50
     Davidson diagonalization with overlap
     ethr =  3.97E-06,  avg # of iterations =  9.7

     negative rho (up, down):  9.017E-02 0.000E+00

     total cpu time spent up to now is     1335.8 secs

     total energy              =   -3711.60339549 Ry
     Harris-Foulkes estimate   =   -3711.60429113 Ry
     estimated scf accuracy    <       0.00606940 Ry

     iteration # 21     ecut=    60.00 Ry     beta= 0.50
     Davidson diagonalization with overlap
     ethr =  1.33E-06,  avg # of iterations =  7.9

     negative rho (up, down):  9.005E-02 0.000E+00

     total cpu time spent up to now is     1409.8 secs

     total energy              =   -3711.60343859 Ry
     Harris-Foulkes estimate   =   -3711.60356095 Ry
     estimated scf accuracy    <       0.00267042 Ry

     iteration # 22     ecut=    60.00 Ry     beta= 0.50
     Davidson diagonalization with overlap
     ethr =  5.86E-07,  avg # of iterations =  5.0

     negative rho (up, down):  9.223E-02 0.000E+00

     total cpu time spent up to now is     1475.7 secs

     total energy              =   -3711.60355274 Ry
     Harris-Foulkes estimate   =   -3711.60353747 Ry
     estimated scf accuracy    <       0.00297589 Ry

     iteration # 23     ecut=    60.00 Ry     beta= 0.50
     Davidson diagonalization with overlap
     ethr =  5.86E-07,  avg # of iterations =  3.3

     negative rho (up, down):  9.229E-02 0.000E+00

     total cpu time spent up to now is     1535.6 secs

     total energy              =   -3711.60356699 Ry
     Harris-Foulkes estimate   =   -3711.60358402 Ry
     estimated scf accuracy    <       0.00143110 Ry

     iteration # 24     ecut=    60.00 Ry     beta= 0.50
     Davidson diagonalization with overlap
     ethr =  3.14E-07,  avg # of iterations =  1.1

     negative rho (up, down):  9.206E-02 0.000E+00

     total cpu time spent up to now is     1587.0 secs

     total energy              =   -3711.60352619 Ry
     Harris-Foulkes estimate   =   -3711.60357800 Ry
     estimated scf accuracy    <       0.00117672 Ry

     iteration # 25     ecut=    60.00 Ry     beta= 0.50
     Davidson diagonalization with overlap
     ethr =  2.58E-07,  avg # of iterations =  2.4

     negative rho (up, down):  9.172E-02 0.000E+00

     total cpu time spent up to now is     1642.9 secs

     total energy              =   -3711.60355074 Ry
     Harris-Foulkes estimate   =   -3711.60355380 Ry
     estimated scf accuracy    <       0.00011794 Ry

     iteration # 26     ecut=    60.00 Ry     beta= 0.50
     Davidson diagonalization with overlap
     ethr =  2.59E-08,  avg # of iterations =  1.4

     negative rho (up, down):  9.197E-02 0.000E+00

     total cpu time spent up to now is     1696.3 secs

     total energy              =   -3711.60355306 Ry
     Harris-Foulkes estimate   =   -3711.60355620 Ry
     estimated scf accuracy    <       0.00012633 Ry

     iteration # 27     ecut=    60.00 Ry     beta= 0.50
     Davidson diagonalization with overlap
     ethr =  2.59E-08,  avg # of iterations =  1.0

     negative rho (up, down):  9.142E-02 0.000E+00

     total cpu time spent up to now is     1748.5 secs

     total energy              =   -3711.60355391 Ry
     Harris-Foulkes estimate   =   -3711.60355453 Ry
     estimated scf accuracy    <       0.00003551 Ry

     iteration # 28     ecut=    60.00 Ry     beta= 0.50
     Davidson diagonalization with overlap
     ethr =  7.79E-09,  avg # of iterations =  1.0

     negative rho (up, down):  9.186E-02 0.000E+00

     total cpu time spent up to now is     1802.5 secs

     total energy              =   -3711.60355291 Ry
     Harris-Foulkes estimate   =   -3711.60355523 Ry
     estimated scf accuracy    <       0.00001979 Ry

     iteration # 29     ecut=    60.00 Ry     beta= 0.50
     Davidson diagonalization with overlap
     ethr =  4.34E-09,  avg # of iterations =  1.0

     negative rho (up, down):  9.205E-02 0.000E+00

     total cpu time spent up to now is     1856.2 secs

     total energy              =   -3711.60355281 Ry
     Harris-Foulkes estimate   =   -3711.60355353 Ry
     estimated scf accuracy    <       0.00000477 Ry

     iteration # 30     ecut=    60.00 Ry     beta= 0.50
     Davidson diagonalization with overlap
     ethr =  1.05E-09,  avg # of iterations =  2.6

     negative rho (up, down):  9.201E-02 0.000E+00

     total cpu time spent up to now is     1914.6 secs

     total energy              =   -3711.60355299 Ry
     Harris-Foulkes estimate   =   -3711.60355309 Ry
     estimated scf accuracy    <       0.00000100 Ry

     iteration # 31     ecut=    60.00 Ry     beta= 0.50
     Davidson diagonalization with overlap
     ethr =  2.19E-10,  avg # of iterations =  2.9

     negative rho (up, down):  9.200E-02 0.000E+00

     total cpu time spent up to now is     1972.5 secs

     total energy              =   -3711.60355306 Ry
     Harris-Foulkes estimate   =   -3711.60355308 Ry
     estimated scf accuracy    <       0.00000066 Ry

     iteration # 32     ecut=    60.00 Ry     beta= 0.50
     Davidson diagonalization with overlap
     ethr =  1.44E-10,  avg # of iterations =  1.0

     negative rho (up, down):  9.198E-02 0.000E+00

     total cpu time spent up to now is     2023.9 secs

     total energy              =   -3711.60355308 Ry
     Harris-Foulkes estimate   =   -3711.60355308 Ry
     estimated scf accuracy    <       0.00000019 Ry

     iteration # 33     ecut=    60.00 Ry     beta= 0.50
     Davidson diagonalization with overlap
     ethr =  4.15E-11,  avg # of iterations =  2.9

     negative rho (up, down):  9.197E-02 0.000E+00

     total cpu time spent up to now is     2084.5 secs

     total energy              =   -3711.60355310 Ry
     Harris-Foulkes estimate   =   -3711.60355309 Ry
     estimated scf accuracy    <       0.00000006 Ry

     iteration # 34     ecut=    60.00 Ry     beta= 0.50
     Davidson diagonalization with overlap
     ethr =  1.32E-11,  avg # of iterations =  3.0

     negative rho (up, down):  9.196E-02 0.000E+00

     total cpu time spent up to now is     2148.6 secs

     total energy              =   -3711.60355312 Ry
     Harris-Foulkes estimate   =   -3711.60355311 Ry
     estimated scf accuracy    <       0.00000003 Ry

     iteration # 35     ecut=    60.00 Ry     beta= 0.50
     Davidson diagonalization with overlap
     ethr =  5.61E-12,  avg # of iterations =  1.1

     negative rho (up, down):  9.198E-02 0.000E+00

     total cpu time spent up to now is     2199.5 secs

     End of self-consistent calculation

          k = 0.0000 0.0000 0.0000 ( 73127 PWs)   bands (ev):

   -38.2950 -37.9680 -35.9239 -35.5585 -24.6945 -24.2689 -23.0715 -23.0462
   -22.9432 -22.9405 -22.9185 -22.7933 -18.7700 -18.6655 -18.4148 -18.3612
   -18.2982 -17.9794 -17.2717 -17.1361 -16.9537 -16.8790 -16.7954 -16.5990
   -15.6795 -15.4598 -15.4284 -15.2861 -15.2339 -15.1891 -14.9314 -14.8247
   -14.7708 -14.7490 -14.7205 -14.7093 -14.6263 -14.5438 -14.4988 -14.3751
   -14.3660 -14.2640 -14.2572 -14.2545 -14.2490 -14.2368 -14.2099 -14.2006
   -14.1602 -14.1350 -14.1317 -13.9524 -13.7759 -13.5412 -10.0708  -9.5609
    -9.4398  -9.4129  -9.0646  -9.0355  -8.3101  -8.2793  -8.2240  -8.1971
    -8.1748  -8.1288  -8.1209  -8.0980  -7.9828  -7.9581  -7.9370  -7.8863
    -7.8634  -7.8154  -7.7547  -7.7448  -7.7201  -7.5941  -3.2421  -3.1955
    -3.0876  -2.6569  -2.4273  -2.4143  -2.3605  -2.3387  -2.3329  -2.3240
    -2.3055  -2.1774  -2.1482  -2.1037  -2.0716  -2.0009  -1.9569  -1.9267
    -1.8981  -1.8947  -1.8762  -1.8012  -1.7974  -1.7585  -1.6681  -1.5919
    -1.5336  -1.4508  -1.4053  -1.3817  -1.3669  -1.3651  -1.3538  -1.2641
    -1.1747  -1.1743  -1.1742  -1.1727  -1.1659  -1.1311  -1.1301  -1.0367
    -1.0261  -1.0091  -0.9600  -0.9478  -0.9437  -0.9415  -0.9056  -0.7687
    -0.7441  -0.7349  -0.6134  -0.5084  -0.5028  -0.4907  -0.4514  -0.4506
    -0.3893  -0.3853  -0.3823  -0.3793  -0.3657  -0.3225  -0.2820  -0.2541
    -0.2490  -0.2121  -0.1959  -0.1861  -0.1781  -0.1711  -0.1050  -0.0875
    -0.0799  -0.0770  -0.0744  -0.0660  -0.0333  -0.0123   0.0193   0.0205
     0.0580   0.0598   0.0800   0.1061   0.1064   0.1426   0.1610   0.1976
     0.1978   0.2691   0.3302   0.3384   0.3521   0.3529   0.3668   0.4078
     0.4422   0.5085   0.5370   0.5639   0.6132   0.7857   0.8021   0.8159
     0.8280   0.8303   0.8393   0.8540   0.8898   0.9086   0.9246   0.9677
     0.9761   0.9813   1.0196   1.0260   1.0297   1.0444   1.0949   1.1154
     1.1426   1.1728   1.1945   1.2022   1.2270   1.2509   1.3229   1.3492
     1.3859   1.4450   1.4978   1.5155   1.5208   1.5292   1.5602   1.5890
     1.6044   1.6175   1.7109   1.7193   1.7631   1.7888   1.8588   1.8748
     1.9333   1.9855   2.0394   2.0517   2.0997   2.1237   2.1822   2.2806
     2.3647   2.3792   2.3834   2.4637   2.6617   2.6811   4.1189   4.8778
     5.0268   5.0600   5.4694   5.7242   5.8845   5.9882   6.2323   6.4205
     6.4743   6.5545   7.0377   7.0824   7.0948   7.1708   7.1727   7.2411
     7.3612   7.5073   7.7299   7.8640   7.9018   7.9328   8.0886   8.0929
     8.1847   8.2135   8.2704   8.2926   8.2991   8.3421   8.4481   8.5198
     8.5595   8.7678

          k = 0.0000 0.2618 0.0000 ( 73115 PWs)   bands (ev):

   -38.2923 -37.9653 -35.9222 -35.5568 -24.6758 -24.2510 -23.0470 -23.0216
   -22.9241 -22.9169 -22.8994 -22.7746 -18.7314 -18.6583 -18.4091 -18.3760
   -18.3538 -18.0905 -17.2422 -17.1317 -17.0197 -16.8492 -16.7909 -16.6651
   -15.5732 -15.3890 -15.3346 -15.2402 -15.1779 -15.1324 -14.8917 -14.8223
   -14.7356 -14.7247 -14.7024 -14.6610 -14.5842 -14.4805 -14.4678 -14.3615
   -14.3593 -14.3175 -14.2703 -14.2676 -14.2412 -14.2324 -14.2269 -14.2120
   -14.1989 -14.1306 -14.1030 -14.0102 -13.8088 -13.5548 -10.0566  -9.5602
    -9.4846  -9.4606  -9.1888  -9.1273  -8.3032  -8.2732  -8.2331  -8.2121
    -8.1883  -8.1185  -8.0772  -8.0547  -8.0252  -8.0182  -7.9998  -7.9948
    -7.9520  -7.9279  -7.9184  -7.8567  -7.8508  -7.8082  -3.3445  -3.2761
    -3.1489  -2.7031  -2.5489  -2.5041  -2.4953  -2.4399  -2.4236  -2.3551
    -2.3516  -2.3143  -2.2976  -2.2808  -2.2704  -2.2342  -2.1471  -2.1358
    -2.0610  -1.9795  -1.9620  -1.9052  -1.8778  -1.7533  -1.7215  -1.7083
    -1.6804  -1.6215  -1.6191  -1.6177  -1.5887  -1.5875  -1.5828  -1.5322
    -1.4945  -1.4297  -1.4282  -1.3352  -1.1864  -1.0777  -1.0720  -1.0406
    -1.0105  -0.9867  -0.9634  -0.9148  -0.9031  -0.8458  -0.8178  -0.7965
    -0.7651  -0.7200  -0.6784  -0.6003  -0.5919  -0.5554  -0.5552  -0.5257
    -0.5101  -0.5077  -0.4837  -0.4068  -0.3971  -0.3475  -0.3403  -0.3233
    -0.2709  -0.2292  -0.2208  -0.1918  -0.1908  -0.1489  -0.1061  -0.1047
    -0.0564  -0.0443  -0.0301  -0.0178  -0.0151   0.0820   0.0850   0.0853
     0.0920   0.1115   0.1649   0.1883   0.1895   0.2212   0.2240   0.2318
     0.2352   0.2931   0.3001   0.3151   0.3910   0.4588   0.4635   0.4640
     0.4856   0.5695   0.6352   0.6636   0.6637   0.6852   0.7245   0.7667
     0.7809   0.7997   0.8555   0.9204   0.9505   0.9533   0.9538   0.9943
     0.9970   1.0346   1.0646   1.0835   1.0936   1.1052   1.1487   1.1629
     1.1670   1.2023   1.2576   1.2785   1.2817   1.3001   1.3004   1.3199
     1.3752   1.4165   1.4192   1.5144   1.5415   1.5776   1.5943   1.6117
     1.6246   1.6464   1.6505   1.6863   1.7822   1.8011   1.8273   1.8303
     2.0607   2.0671   2.1170   2.3062   2.5384   2.5995   2.6251   2.6504
     2.6813   2.6819   2.7677   2.8371   2.9723   3.1195   4.3297   5.1949
     5.4083   5.4212   5.5800   5.9636   5.9878   6.2205   6.3185   6.4694
     6.7495   6.7872   6.9119   6.9251   7.1509   7.3817   7.4256   7.4404
     7.5139   7.5593   7.6237   7.6353   7.8412   7.9834   8.0657   8.0885
     8.1668   8.2623   8.3957   8.4625   8.4902   8.4966   8.5530   8.6298
     8.7077   8.7501

          k = 0.0000 0.5236 0.0000 ( 73047 PWs)   bands (ev):

   -38.2858 -37.9588 -35.9181 -35.5527 -24.6300 -24.2072 -22.9864 -22.9610
   -22.8773 -22.8588 -22.8526 -22.7287 -18.6495 -18.6408 -18.6314 -18.3361
   -18.3339 -18.2729 -17.1729 -17.1588 -17.1213 -16.8165 -16.7800 -16.7665
   -15.3321 -15.1943 -15.1368 -15.1190 -15.0300 -14.9811 -14.8796 -14.7955
   -14.7761 -14.7041 -14.6537 -14.4816 -14.4792 -14.4435 -14.4365 -14.4058
   -14.4003 -14.3769 -14.3536 -14.3030 -14.2134 -14.2091 -14.2024 -14.1766
   -14.1760 -14.1387 -14.1242 -14.0218 -13.8326 -13.5791 -10.0175  -9.8538
    -9.6330  -9.4928  -9.3763  -9.1509  -8.4904  -8.4653  -8.3482  -8.3307
    -8.3081  -8.2663  -8.2364  -8.1973  -8.1856  -8.1696  -8.1630  -8.0896
    -8.0840  -8.0652  -7.9603  -7.9428  -7.9370  -7.7783  -3.7398  -3.6142
    -3.3927  -3.0570  -3.0129  -2.9801  -2.9355  -2.9198  -2.8359  -2.6604
    -2.6229  -2.5174  -2.4818  -2.4748  -2.4682  -2.4334  -2.4304  -2.3383
    -2.3332  -2.2905  -2.2874  -2.2809  -2.2801  -2.2426  -2.1847  -2.0426
    -1.9948  -1.9528  -1.8933  -1.8741  -1.8654  -1.8100  -1.7348  -1.6674
    -1.5231  -1.4474  -1.3757  -1.3147  -1.2187  -1.1990  -1.1933  -1.1674
    -1.1322  -1.0922  -1.0723  -1.0407  -1.0338  -0.9834  -0.9720  -0.8608
    -0.8587  -0.8375  -0.7941  -0.7793  -0.7657  -0.7336  -0.7306  -0.7294
    -0.7131  -0.7121  -0.6501  -0.6071  -0.5776  -0.5422  -0.5419  -0.5193
    -0.4834  -0.4719  -0.4677  -0.3884  -0.2946  -0.1525  -0.1489  -0.0670
    -0.0410   0.0015   0.0056   0.0063   0.0359   0.0375   0.1060   0.1346
     0.1731   0.1779   0.2110   0.3595   0.3634   0.3933   0.4150   0.4163
     0.5231   0.5362   0.5783   0.5973   0.6342   0.6504   0.6699   0.6988
     0.7524   0.8390   0.8428   0.8496   0.8619   0.9117   0.9782   1.0141
     1.0279   1.0441   1.0519   1.0604   1.0618   1.0739   1.0877   1.0930
     1.0971   1.1501   1.1646   1.1932   1.2175   1.2319   1.2711   1.2831
     1.3148   1.3391   1.3579   1.3841   1.3986   1.4136   1.4618   1.4886
     1.5439   1.5716   1.5871   1.5962   1.6049   1.6315   1.6460   1.6728
     1.6746   1.7300   1.8043   1.8518   1.8667   1.8790   1.8797   1.9355
     2.0497   2.1741   2.2103   2.3594   2.8782   2.8834   2.9144   2.9286
     3.2360   3.2874   3.6256   3.6658   3.7398   3.9654   4.7384   5.3468
     5.9977   6.1511   6.2921   6.3110   6.3156   6.4298   6.4447   6.5187
     6.7461   6.8872   6.9739   6.9855   7.5100   7.6079   7.6444   7.7131
     7.8089   8.0856   8.0892   8.2013   8.2265   8.2564   8.4323   8.4344
     8.4959   8.5237   8.5513   8.6107   8.6487   8.7113   8.7121   8.7746
     8.8578   8.9222

          k = 0.0000 0.7854 0.0000 ( 73014 PWs)   bands (ev):

   -38.2792 -37.9522 -35.9139 -35.5485 -24.5833 -24.1624 -22.9241 -22.8985
   -22.8293 -22.8048 -22.7991 -22.6816 -18.8581 -18.6234 -18.5417 -18.5258
   -18.3185 -18.1675 -17.2944 -17.1109 -17.0858 -16.9424 -16.7692 -16.6878
   -15.1110 -15.0323 -14.9866 -14.9640 -14.9347 -14.8513 -14.7955 -14.7927
   -14.7780 -14.7059 -14.6342 -14.5902 -14.5621 -14.5146 -14.4113 -14.3935
   -14.3761 -14.3731 -14.3658 -14.2732 -14.1891 -14.1614 -14.1577 -14.1499
   -14.1294 -14.1286 -14.0727 -13.9346 -13.8119 -13.5806 -10.2365  -9.9678
    -9.8828  -9.5002  -9.4227  -9.0925  -8.8854  -8.8603  -8.7204  -8.6258
    -8.6030  -8.4252  -8.2711  -8.2410  -8.2399  -8.2000  -8.1738  -8.1587
    -8.1342  -8.0625  -8.0164  -7.8392  -7.8157  -7.6669  -4.2243  -4.0840
    -3.7961  -3.5890  -3.4537  -3.4360  -3.3924  -3.3444  -3.1961  -3.0492
    -3.0486  -2.9833  -2.9830  -2.8570  -2.8054  -2.7815  -2.6449  -2.5534
    -2.3996  -2.3976  -2.3754  -2.3627  -2.3602  -2.3464  -2.3301  -2.3234
    -2.2501  -2.0930  -1.9648  -1.9490  -1.9230  -1.8597  -1.7642  -1.7512
    -1.6808  -1.4690  -1.4125  -1.3927  -1.3488  -1.3323  -1.3170  -1.3054
    -1.2782  -1.2776  -1.2053  -1.2008  -1.1813  -1.1601  -1.1002  -1.0705
    -1.0614  -0.9949  -0.9878  -0.9820  -0.9334  -0.9317  -0.9159  -0.9103
    -0.8000  -0.7911  -0.7910  -0.7627  -0.7591  -0.7275  -0.7093  -0.6252
    -0.5945  -0.5513  -0.5155  -0.4014  -0.3965  -0.3228  -0.1998  -0.1447
    -0.0111   0.0051   0.0229   0.0249   0.0517   0.0630   0.0984   0.1603
     0.1737   0.1908   0.3240   0.3360   0.4358   0.5807   0.5897   0.6063
     0.6690   0.6788   0.8042   0.8091   0.8402   0.8532   0.8710   0.9266
     0.9275   0.9412   0.9762   1.0003   1.0589   1.0601   1.1133   1.1303
     1.1339   1.1721   1.1950   1.2006   1.2090   1.2457   1.2843   1.3051
     1.3526   1.3754   1.4225   1.4248   1.4552   1.4853   1.5340   1.5464
     1.5482   1.5541   1.5613   1.5913   1.5975   1.6147   1.6241   1.6755
     1.6840   1.7091   1.7393   1.7792   1.8287   1.8536   1.8643   1.8709
     1.8831   1.9228   1.9345   2.0182   2.0486   2.0587   2.0646   2.1743
     2.2767   2.2831   2.2836   2.3637   2.7269   2.7289   2.8277   2.8423
     3.5347   3.6143   4.2709   4.3119   4.3317   4.5576   4.7902   5.4148
     5.8989   5.9114   6.1469   6.3036   6.5300   6.6078   6.6198   7.0652
     7.2377   7.2545   7.3913   7.6008   7.8546   7.9046   7.9250   8.0583
     8.2518   8.3805   8.4525   8.5206   8.5673   8.6189   8.6447   8.7060
     8.7734   8.7938   8.8330   8.9196   8.9464   8.9634   9.0149   9.0533
     9.1539   9.2270

          k = 0.0000-1.0472 0.0000 ( 73146 PWs)   bands (ev):

   -38.2765 -37.9495 -35.9122 -35.5468 -24.5637 -24.1436 -22.8977 -22.8720
   -22.8091 -22.7846 -22.7739 -22.6618 -18.9386 -18.6223 -18.6162 -18.4785
   -18.3112 -18.1200 -17.3448 -17.1067 -17.0501 -16.9926 -16.7647 -16.6516
   -15.1169 -15.0574 -14.9238 -14.8552 -14.8067 -14.7905 -14.7715 -14.7466
   -14.7330 -14.6848 -14.6767 -14.6137 -14.5956 -14.5846 -14.4557 -14.4490
   -14.3968 -14.3808 -14.3268 -14.2224 -14.1849 -14.1409 -14.1315 -14.1303
   -14.1117 -14.1117 -13.9877 -13.8968 -13.8302 -13.5648 -10.3905  -9.9926
    -9.9423  -9.5301  -9.4098  -9.0620  -9.0387  -9.0135  -8.8731  -8.7445
    -8.7216  -8.5293  -8.2797  -8.2473  -8.2463  -8.1940  -8.1862  -8.1669
    -8.1618  -8.0594  -8.0373  -7.7866  -7.7630  -7.6183  -4.4263  -4.2860
    -3.9828  -3.7967  -3.6597  -3.5931  -3.5535  -3.5339  -3.3414  -3.2837
    -3.2825  -3.2134  -3.2133  -3.0049  -2.8341  -2.8107  -2.6797  -2.6678
    -2.5069  -2.4198  -2.4133  -2.3781  -2.3693  -2.3692  -2.3468  -2.3174
    -2.3106  -2.1593  -2.0741  -2.0400  -1.9716  -1.8482  -1.7738  -1.6521
    -1.5517  -1.5268  -1.4986  -1.4790  -1.4444  -1.4307  -1.4112  -1.3909
    -1.3537  -1.3411  -1.2497  -1.2476  -1.2361  -1.2322  -1.1766  -1.1478
    -1.0948  -1.0755  -1.0701  -1.0279  -1.0214  -1.0190  -1.0188  -0.9681
    -0.8802  -0.8801  -0.8329  -0.7847  -0.7782  -0.7681  -0.7212  -0.6941
    -0.6198  -0.5346  -0.5130  -0.4388  -0.3653  -0.3623  -0.2741  -0.2173
    -0.0044   0.0275   0.0293   0.0318   0.0453   0.0561   0.0857   0.0927
     0.1140   0.1993   0.3235   0.3808   0.4536   0.6262   0.6660   0.6993
     0.7199   0.7652   0.8403   0.8563   0.8636   0.9395   0.9455   0.9582
     1.0289   1.0421   1.0527   1.0955   1.1114   1.1347   1.1642   1.1912
     1.2029   1.2089   1.2167   1.2211   1.2706   1.2733   1.2826   1.3133
     1.4267   1.4320   1.4978   1.4988   1.5445   1.5931   1.6148   1.6274
     1.6312   1.6440   1.7249   1.7504   1.7626   1.7647   1.7835   1.7866
     1.8239   1.8718   1.9045   1.9298   1.9652   1.9917   2.0001   2.0288
     2.0296   2.0328   2.0363   2.0568   2.0893   2.1129   2.1185   2.2620
     2.2634   2.4465   2.4467   2.4946   2.4955   2.5053   2.6584   2.6728
     3.5457   3.6797   4.4753   4.5271   4.5440   4.7335   4.7543   5.6583
     5.6597   5.6720   6.1187   6.3122   6.4217   6.5340   6.6443   7.2868
     7.3257   7.6384   7.6518   7.7882   7.9046   8.0170   8.1673   8.1912
     8.4115   8.4620   8.5474   8.6110   8.6398   8.7527   8.7709   8.7748
     8.8059   8.8882   8.9423   9.0091   9.0493   9.0854   9.1050   9.1561
     9.1923   9.2050

          k = 0.1250 0.0000 0.0000 ( 73173 PWs)   bands (ev):

   -38.2950 -37.9680 -35.9239 -35.5585 -24.6938 -24.2698 -23.0671 -23.0417
   -22.9480 -22.9370 -22.9233 -22.7971 -18.7693 -18.6623 -18.4141 -18.3580
   -18.2982 -17.9794 -17.2747 -17.1480 -16.9537 -16.8823 -16.8080 -16.5990
   -15.6520 -15.4507 -15.4027 -15.2902 -15.2194 -15.1750 -14.9238 -14.8368
   -14.7962 -14.7762 -14.7314 -14.7177 -14.5939 -14.5474 -14.4870 -14.3800
   -14.3593 -14.2690 -14.2580 -14.2532 -14.2481 -14.2389 -14.2153 -14.2126
   -14.1653 -14.1379 -14.1279 -13.9612 -13.7747 -13.5405 -10.0733  -9.5761
    -9.4195  -9.4103  -9.0660  -9.0386  -8.3124  -8.2816  -8.2275  -8.2016
    -8.1792  -8.1368  -8.1070  -8.0841  -7.9745  -7.9498  -7.9223  -7.8929
    -7.8699  -7.8077  -7.7570  -7.7542  -7.7296  -7.6026  -3.2073  -3.1603
    -3.0549  -2.6212  -2.4236  -2.4092  -2.3695  -2.3573  -2.3492  -2.3268
    -2.3018  -2.1747  -2.1677  -2.1014  -2.0847  -2.0436  -1.9531  -1.9393
    -1.9344  -1.8957  -1.8619  -1.8109  -1.7779  -1.7559  -1.6514  -1.6350
    -1.5179  -1.5097  -1.4107  -1.3950  -1.3577  -1.3281  -1.3095  -1.2209
    -1.1734  -1.1726  -1.1716  -1.1714  -1.1690  -1.1655  -1.1087  -1.0560
    -1.0116  -0.9933  -0.9826  -0.9377  -0.9278  -0.9216  -0.8876  -0.7448
    -0.7446  -0.6977  -0.5942  -0.5650  -0.5388  -0.4725  -0.4671  -0.4392
    -0.4286  -0.4218  -0.4080  -0.4011  -0.3457  -0.3299  -0.2992  -0.2865
    -0.2501  -0.2166  -0.2016  -0.1930  -0.1794  -0.1787  -0.1423  -0.1243
    -0.0929  -0.0861  -0.0265  -0.0160   0.0055   0.0138   0.0222   0.0222
     0.0580   0.0589   0.0817   0.1085   0.1168   0.1666   0.1811   0.1812
     0.2138   0.2722   0.3250   0.3317   0.3326   0.3380   0.3615   0.3971
     0.4417   0.5219   0.5503   0.5614   0.6669   0.7277   0.7301   0.8060
     0.8219   0.8279   0.8287   0.8626   0.8802   0.9204   0.9424   0.9443
     0.9469   0.9749   0.9934   1.0072   1.0104   1.0531   1.0629   1.0753
     1.1498   1.1875   1.2058   1.2241   1.2725   1.2814   1.3314   1.3706
     1.3926   1.4324   1.4931   1.5238   1.5301   1.5396   1.5726   1.5904
     1.6244   1.6266   1.6557   1.6784   1.7634   1.7871   1.8455   1.8626
     1.9694   1.9717   2.0301   2.0620   2.1087   2.1343   2.1816   2.2794
     2.3649   2.3899   2.3932   2.4746   2.6562   2.6807   4.1662   4.9308
     5.0767   5.1044   5.4485   5.6947   5.8800   6.0708   6.2646   6.4750
     6.5299   6.5807   6.7122   6.7178   7.0890   7.2047   7.3578   7.5144
     7.5366   7.5454   7.7299   7.8371   7.9224   7.9340   8.0672   8.0947
     8.1536   8.2146   8.2822   8.2912   8.2977   8.3974   8.4473   8.5140
     8.5650   8.6582

          k = 0.1250 0.2618 0.0000 ( 73095 PWs)   bands (ev):

   -38.2923 -37.9653 -35.9222 -35.5568 -24.6751 -24.2518 -23.0427 -23.0173
   -22.9287 -22.9136 -22.9040 -22.7782 -18.7307 -18.6551 -18.4091 -18.3753
   -18.3507 -18.0905 -17.2451 -17.1431 -17.0196 -16.8524 -16.8029 -16.6650
   -15.5466 -15.3812 -15.3103 -15.2438 -15.1653 -15.1206 -14.8849 -14.8279
   -14.7420 -14.7294 -14.7226 -14.7070 -14.5474 -14.4851 -14.4562 -14.3569
   -14.3560 -14.3190 -14.2778 -14.2764 -14.2422 -14.2313 -14.2289 -14.2130
   -14.2024 -14.1295 -14.1119 -14.0162 -13.8062 -13.5535 -10.0578  -9.5718
    -9.5130  -9.4525  -9.1707  -9.1112  -8.3051  -8.2752  -8.2361  -8.2183
    -8.1945  -8.1336  -8.1243  -8.1097  -8.0605  -8.0366  -7.9627  -7.9569
    -7.9382  -7.9125  -7.9054  -7.8816  -7.7884  -7.7648  -3.3086  -3.2395
    -3.1137  -2.6658  -2.5580  -2.5128  -2.5007  -2.4317  -2.4156  -2.3537
    -2.3514  -2.3202  -2.3020  -2.2850  -2.2696  -2.2392  -2.1531  -2.1520
    -2.0610  -2.0169  -1.9897  -1.9641  -1.8768  -1.7712  -1.7064  -1.7009
    -1.6721  -1.6169  -1.6160  -1.5937  -1.5906  -1.5835  -1.5584  -1.5137
    -1.5094  -1.4574  -1.4329  -1.3340  -1.1811  -1.0875  -1.0545  -1.0526
    -1.0053  -0.9772  -0.9538  -0.9095  -0.8874  -0.8774  -0.8194  -0.7929
    -0.7856  -0.7624  -0.6813  -0.6335  -0.5876  -0.5808  -0.5695  -0.5404
    -0.5127  -0.5095  -0.4777  -0.4614  -0.3608  -0.3326  -0.3324  -0.3234
    -0.3095  -0.2261  -0.2143  -0.1941  -0.1820  -0.1431  -0.1278  -0.1018
    -0.0804  -0.0428  -0.0282  -0.0152  -0.0069   0.0753   0.0760   0.0950
     0.0984   0.1198   0.1608   0.1850   0.1858   0.2274   0.2336   0.2480
     0.2683   0.2938   0.3092   0.3235   0.3713   0.4014   0.4441   0.4527
     0.4764   0.5701   0.6520   0.6540   0.6873   0.7113   0.7468   0.7723
     0.8005   0.8268   0.8446   0.8998   0.9235   0.9285   0.9578   0.9878
     1.0298   1.0364   1.0527   1.0826   1.0934   1.0999   1.1213   1.1563
     1.1593   1.2039   1.2077   1.2175   1.2480   1.3166   1.3334   1.3900
     1.3920   1.4158   1.4355   1.5082   1.5340   1.5705   1.5862   1.6099
     1.6146   1.6287   1.6475   1.6593   1.7005   1.7873   1.9292   1.9406
     2.0349   2.1276   2.1397   2.3954   2.5424   2.5955   2.6232   2.6490
     2.6836   2.6843   2.7656   2.8336   2.9639   3.1189   4.3665   5.2417
     5.4450   5.4558   5.5500   5.8724   6.0490   6.2666   6.3743   6.4964
     6.7454   6.7554   6.8047   6.8415   7.1905   7.3832   7.4197   7.5279
     7.5685   7.5849   7.6719   7.7095   7.8346   7.9832   8.0711   8.0981
     8.1459   8.2691   8.3749   8.4408   8.4615   8.4933   8.5970   8.6414
     8.6888   8.7347

          k = 0.1250 0.5236 0.0000 ( 73044 PWs)   bands (ev):

   -38.2858 -37.9588 -35.9181 -35.5527 -24.6294 -24.2079 -22.9827 -22.9572
   -22.8812 -22.8566 -22.8560 -22.7317 -18.6494 -18.6377 -18.6308 -18.3340
   -18.3329 -18.2723 -17.1745 -17.1597 -17.1313 -16.8170 -16.7904 -16.7689
   -15.3075 -15.1901 -15.1208 -15.1175 -15.0231 -14.9763 -14.8776 -14.7902
   -14.7740 -14.7041 -14.6522 -14.5505 -14.4688 -14.4392 -14.4273 -14.4052
   -14.3824 -14.3740 -14.3524 -14.3029 -14.2141 -14.2120 -14.2054 -14.1774
   -14.1765 -14.1438 -14.1231 -14.0425 -13.8276 -13.5769 -10.0173  -9.8693
    -9.6291  -9.4929  -9.3886  -9.1285  -8.5242  -8.4995  -8.3705  -8.2856
    -8.2601  -8.2539  -8.2262  -8.2066  -8.1994  -8.1763  -8.1577  -8.1336
    -8.0980  -8.0840  -8.0081  -7.9083  -7.8847  -7.7392  -3.7043  -3.5783
    -3.3559  -3.0622  -3.0147  -2.9878  -2.9218  -2.8976  -2.8394  -2.6553
    -2.6182  -2.5148  -2.4834  -2.4759  -2.4689  -2.4331  -2.4293  -2.3400
    -2.3330  -2.2912  -2.2882  -2.2792  -2.2791  -2.2389  -2.1520  -2.0347
    -2.0141  -1.9490  -1.9235  -1.8891  -1.8774  -1.8524  -1.7283  -1.6672
    -1.5061  -1.4543  -1.4456  -1.3213  -1.2248  -1.2091  -1.1909  -1.1731
    -1.1394  -1.1002  -1.0755  -1.0501  -1.0375  -0.9995  -0.9499  -0.9158
    -0.8672  -0.8544  -0.8335  -0.8032  -0.7875  -0.7774  -0.7416  -0.7210
    -0.7070  -0.7047  -0.6465  -0.6067  -0.5816  -0.5600  -0.5477  -0.5449
    -0.5024  -0.4630  -0.4590  -0.3380  -0.3019  -0.1727  -0.1368  -0.0677
    -0.0399  -0.0294   0.0000   0.0151   0.0277   0.0424   0.1259   0.1565
     0.1622   0.1957   0.2335   0.3195   0.3539   0.3892   0.3995   0.4582
     0.4729   0.5359   0.5700   0.5797   0.6486   0.6766   0.7098   0.7359
     0.7794   0.8256   0.8329   0.8761   0.8948   0.9163   0.9585   0.9753
     0.9929   1.0110   1.0326   1.0566   1.0722   1.0907   1.1047   1.1166
     1.1526   1.1590   1.1613   1.1861   1.2184   1.2442   1.2601   1.2671
     1.2729   1.3172   1.3517   1.3746   1.4211   1.4276   1.4292   1.4761
     1.5260   1.5515   1.5811   1.6047   1.6211   1.6379   1.6639   1.6786
     1.7057   1.7071   1.8175   1.8347   1.8693   1.8753   2.0105   2.0151
     2.0690   2.1630   2.3033   2.4961   2.8793   2.8846   2.9153   2.9313
     3.2368   3.2863   3.5934   3.6346   3.7113   3.9392   4.7720   5.3808
     5.9518   6.0797   6.3265   6.3312   6.3757   6.4372   6.4528   6.5278
     6.7657   6.9107   6.9983   7.0120   7.5030   7.6559   7.6898   7.7049
     7.8161   8.0413   8.1075   8.1967   8.2134   8.2322   8.3514   8.3978
     8.4690   8.5216   8.5424   8.5913   8.6520   8.6702   8.7543   8.7843
     8.8602   8.9114

          k = 0.1250 0.7854 0.0000 ( 73046 PWs)   bands (ev):

   -38.2792 -37.9522 -35.9139 -35.5485 -24.5829 -24.1630 -22.9209 -22.8953
   -22.8326 -22.8081 -22.7967 -22.6841 -18.8580 -18.6204 -18.5417 -18.5252
   -18.3155 -18.1670 -17.2944 -17.1203 -17.0879 -16.9424 -16.7789 -16.6902
   -15.0947 -15.0216 -14.9712 -14.9618 -14.9348 -14.8519 -14.7998 -14.7776
   -14.7724 -14.7065 -14.6257 -14.5870 -14.5626 -14.5114 -14.4143 -14.4021
   -14.3938 -14.3816 -14.3760 -14.2652 -14.1881 -14.1601 -14.1578 -14.1505
   -14.1302 -14.1296 -14.0785 -13.9521 -13.8090 -13.5816 -10.2216  -9.9678
    -9.8566  -9.5297  -9.4271  -9.1061  -8.8757  -8.8507  -8.7081  -8.5837
    -8.5607  -8.3885  -8.2701  -8.2405  -8.2389  -8.2057  -8.2010  -8.1805
    -8.1754  -8.0795  -8.0416  -7.8541  -7.8306  -7.6840  -4.1874  -4.0484
    -3.7618  -3.5862  -3.4559  -3.4499  -3.4048  -3.3115  -3.2054  -3.0467
    -3.0461  -2.9858  -2.9854  -2.8630  -2.7916  -2.7673  -2.6337  -2.5245
    -2.3992  -2.3964  -2.3638  -2.3544  -2.3454  -2.3447  -2.3290  -2.3208
    -2.2320  -2.0869  -1.9682  -1.9455  -1.9134  -1.8632  -1.8020  -1.7685
    -1.7371  -1.4756  -1.4222  -1.4070  -1.4038  -1.3410  -1.3352  -1.3063
    -1.2777  -1.2724  -1.2438  -1.2263  -1.1905  -1.1636  -1.1538  -1.1362
    -1.0627  -1.0097  -1.0025  -0.9834  -0.9345  -0.9257  -0.9175  -0.9011
    -0.8313  -0.8030  -0.7966  -0.7955  -0.7548  -0.7309  -0.7024  -0.6240
    -0.5871  -0.5131  -0.4991  -0.4124  -0.4073  -0.3227  -0.1344  -0.0824
    -0.0266  -0.0219  -0.0093   0.0410   0.0513   0.1212   0.1229   0.1488
     0.2073   0.2232   0.3230   0.3722   0.4256   0.4653   0.5401   0.5718
     0.6835   0.7085   0.8000   0.8144   0.8343   0.8923   0.8982   0.9144
     0.9199   0.9428   1.0068   1.0139   1.0584   1.0779   1.1037   1.1260
     1.1388   1.1492   1.1757   1.1771   1.2100   1.2458   1.2881   1.3030
     1.3569   1.3732   1.3913   1.4147   1.4471   1.4535   1.5346   1.5440
     1.5592   1.5615   1.5667   1.6062   1.6100   1.6431   1.6510   1.6676
     1.6850   1.6874   1.7556   1.7680   1.8223   1.8429   1.8470   1.9390
     1.9539   1.9682   1.9735   1.9956   2.0682   2.0712   2.0777   2.2669
     2.2753   2.2771   2.3298   2.4088   2.7288   2.7312   2.8326   2.8506
     3.5421   3.6151   4.2065   4.2492   4.2741   4.5013   4.8321   5.4308
     5.9540   5.9664   6.0987   6.2938   6.5535   6.6046   6.6717   7.0587
     7.2053   7.2215   7.3581   7.5912   7.8152   7.8939   7.9684   8.0089
     8.1467   8.3980   8.4098   8.4618   8.5947   8.6544   8.6831   8.7138
     8.7520   8.8647   8.8755   8.9203   8.9358   8.9893   9.0259   9.0879
     9.2083   9.2710

          k = 0.1250-1.0472 0.0000 ( 73102 PWs)   bands (ev):

   -38.2765 -37.9495 -35.9122 -35.5468 -24.5633 -24.1441 -22.8948 -22.8691
   -22.8122 -22.7877 -22.7717 -22.6641 -18.9386 -18.6223 -18.6132 -18.4780
   -18.3083 -18.1195 -17.3448 -17.1157 -17.0521 -16.9926 -16.7741 -16.6538
   -15.1057 -15.0459 -14.9008 -14.8504 -14.8060 -14.7827 -14.7670 -14.7375
   -14.7137 -14.7070 -14.6981 -14.6058 -14.5878 -14.5798 -14.4700 -14.4422
   -14.3936 -14.3921 -14.3444 -14.2248 -14.1986 -14.1343 -14.1307 -14.1298
   -14.1126 -14.1125 -13.9940 -13.9095 -13.8255 -13.5704 -10.3594  -9.9688
    -9.9420  -9.5612  -9.4099  -9.0940  -9.0084  -8.9832  -8.8440  -8.7140
    -8.6911  -8.5013  -8.2757  -8.2463  -8.2427  -8.2213  -8.1970  -8.1968
    -8.1699  -8.0916  -8.0379  -7.8304  -7.8069  -7.6588  -4.3883  -4.2498
    -3.9491  -3.7939  -3.6615  -3.6090  -3.5676  -3.5017  -3.3527  -3.2813
    -3.2804  -3.2161  -3.2159  -3.0124  -2.8173  -2.7934  -2.6535  -2.6534
    -2.4814  -2.4221  -2.4155  -2.3744  -2.3575  -2.3453  -2.3405  -2.3183
    -2.3111  -2.1539  -2.0451  -2.0043  -1.9694  -1.8396  -1.7861  -1.6854
    -1.6321  -1.5728  -1.5444  -1.4993  -1.4876  -1.4309  -1.4108  -1.4071
    -1.4008  -1.3335  -1.3205  -1.2634  -1.2507  -1.2302  -1.1571  -1.1362
    -1.1266  -1.1106  -1.0721  -1.0326  -1.0248  -1.0125  -1.0020  -0.9664
    -0.9575  -0.8911  -0.8858  -0.7940  -0.7747  -0.7427  -0.7237  -0.6691
    -0.5964  -0.5016  -0.4947  -0.4038  -0.3789  -0.3764  -0.1835  -0.1594
    -0.0243  -0.0079   0.0146   0.0688   0.0710   0.0916   0.1010   0.1135
     0.1609   0.1900   0.2863   0.4314   0.4423   0.4863   0.6301   0.7271
     0.7404   0.7481   0.8459   0.8479   0.9063   0.9091   0.9616   0.9659
     1.0087   1.0525   1.0638   1.0646   1.0734   1.1395   1.1604   1.1646
     1.2007   1.2155   1.2366   1.2523   1.2609   1.2736   1.2877   1.3144
     1.4173   1.4522   1.4767   1.4925   1.5335   1.6143   1.6146   1.6400
     1.6437   1.6534   1.7416   1.7586   1.7664   1.7840   1.8091   1.8199
     1.8589   1.8782   1.9154   1.9318   1.9491   1.9783   2.0004   2.0128
     2.0246   2.0259   2.0450   2.1073   2.1222   2.1274   2.2415   2.2687
     2.2700   2.4392   2.4394   2.4702   2.4991   2.4997   2.6690   2.6886
     3.5554   3.6885   4.3963   4.4484   4.4699   4.6841   4.7665   5.6439
     5.7278   5.7399   6.1450   6.3345   6.4458   6.5370   6.6389   7.2438
     7.2587   7.5458   7.5596   7.8130   7.8498   8.0144   8.0221   8.0645
     8.3823   8.4222   8.5613   8.6798   8.7894   8.7961   8.8099   8.8507
     8.8593   8.9447   8.9951   9.0318   9.0788   9.1293   9.1488   9.1862
     9.2146   9.2189

          k = 0.2500 0.0000 0.0000 ( 73081 PWs)   bands (ev):

   -38.2949 -37.9680 -35.9239 -35.5585 -24.6921 -24.2719 -23.0544 -23.0289
   -22.9614 -22.9368 -22.9278 -22.8070 -18.7676 -18.6545 -18.4122 -18.3502
   -18.2982 -17.9794 -17.2818 -17.1763 -16.9538 -16.8901 -16.8377 -16.5991
   -15.5783 -15.4257 -15.3348 -15.3029 -15.1838 -15.1384 -14.9271 -14.8899
   -14.8366 -14.8023 -14.7605 -14.7387 -14.5455 -14.5421 -14.4636 -14.3990
   -14.3434 -14.2688 -14.2640 -14.2546 -14.2501 -14.2487 -14.2429 -14.2180
   -14.1771 -14.1482 -14.1208 -13.9833 -13.7719 -13.5385 -10.0794  -9.6022
    -9.4038  -9.3806  -9.0697  -9.0463  -8.3172  -8.2866  -8.2356  -8.2097
    -8.1869  -8.1525  -8.0740  -8.0511  -7.9509  -7.9260  -7.9120  -7.8888
    -7.8885  -7.7860  -7.7804  -7.7644  -7.7559  -7.6265  -3.1067  -3.0590
    -2.9618  -2.5194  -2.4428  -2.4158  -2.4055  -2.3886  -2.3843  -2.3355
    -2.2925  -2.2160  -2.1677  -2.1594  -2.1390  -2.0949  -1.9789  -1.9538
    -1.9425  -1.8990  -1.8443  -1.8328  -1.7503  -1.7356  -1.7051  -1.6705
    -1.5803  -1.4736  -1.4545  -1.3650  -1.3140  -1.2882  -1.2053  -1.2049
    -1.1844  -1.1719  -1.1695  -1.1683  -1.1654  -1.1328  -1.1135  -1.0475
    -1.0374  -1.0203  -0.9436  -0.9155  -0.8688  -0.8639  -0.8628  -0.7479
    -0.6983  -0.6789  -0.6645  -0.5523  -0.5510  -0.5393  -0.5335  -0.4829
    -0.4693  -0.4580  -0.4481  -0.4293  -0.3982  -0.3038  -0.3009  -0.2813
    -0.2405  -0.2355  -0.2285  -0.2123  -0.2060  -0.1924  -0.1865  -0.1611
    -0.1185  -0.1101   0.0155   0.0234   0.0247   0.0456   0.0476   0.0574
     0.0739   0.0781   0.0912   0.1303   0.1470   0.1613   0.1846   0.2153
     0.2546   0.2563   0.2705   0.3109   0.3152   0.3401   0.3701   0.4380
     0.4491   0.4822   0.5897   0.6207   0.6552   0.6700   0.7266   0.7382
     0.7693   0.7771   0.7832   0.8212   0.8567   0.8858   0.9021   0.9231
     0.9336   0.9558   1.0099   1.0218   1.0293   1.0741   1.0920   1.0970
     1.1052   1.1777   1.2141   1.2156   1.2801   1.3256   1.3341   1.3425
     1.4118   1.4195   1.4725   1.5046   1.5282   1.5684   1.5709   1.5785
     1.6049   1.6436   1.6616   1.6741   1.7813   1.8094   1.8317   1.8908
     1.8942   1.9278   2.0081   2.0846   2.0860   2.1807   2.2763   2.2764
     2.3645   2.4159   2.4194   2.4937   2.6349   2.6729   4.2970   5.0794
     5.2135   5.2233   5.2921   5.7762   5.9678   6.1298   6.3262   6.3310
     6.3360   6.5775   6.6707   6.6952   7.1645   7.1894   7.2974   7.5789
     7.6269   7.7804   7.7997   7.8462   7.9368   8.0055   8.0452   8.1121
     8.1820   8.2173   8.2735   8.2753   8.3450   8.3698   8.4085   8.4675
     8.6101   8.6528

          k = 0.2500 0.2618 0.0000 ( 73072 PWs)   bands (ev):

   -38.2923 -37.9653 -35.9222 -35.5568 -24.6735 -24.2538 -23.0307 -23.0051
   -22.9414 -22.9168 -22.9048 -22.7875 -18.7290 -18.6473 -18.4091 -18.3735
   -18.3430 -18.0904 -17.2518 -17.1701 -17.0194 -16.8598 -16.8311 -16.6648
   -15.4745 -15.3598 -15.2547 -15.2465 -15.1344 -15.0901 -14.8746 -14.8553
   -14.8024 -14.7696 -14.7417 -14.7227 -14.5020 -14.4875 -14.4350 -14.3595
   -14.3452 -14.3214 -14.3005 -14.2866 -14.2451 -14.2345 -14.2305 -14.2151
   -14.2087 -14.1350 -14.1277 -14.0308 -13.8009 -13.5502 -10.0609  -9.6018
    -9.5515  -9.4514  -9.1322  -9.0765  -8.3115  -8.2821  -8.2452  -8.2372
    -8.2153  -8.1870  -8.1624  -8.1437  -8.1060  -8.0817  -7.9996  -7.9616
    -7.8891  -7.8650  -7.8462  -7.8224  -7.7258  -7.7039  -3.2048  -3.1342
    -3.0139  -2.5949  -2.5597  -2.5459  -2.5205  -2.4109  -2.3950  -2.3608
    -2.3498  -2.3297  -2.3146  -2.2922  -2.2715  -2.2512  -2.1979  -2.1664
    -2.1234  -2.0987  -2.0511  -2.0433  -1.8741  -1.7997  -1.7131  -1.6750
    -1.6468  -1.6374  -1.6106  -1.6094  -1.5930  -1.5927  -1.5218  -1.5134
    -1.4542  -1.4160  -1.4142  -1.3212  -1.1679  -1.1287  -1.0743  -0.9957
    -0.9918  -0.9592  -0.9556  -0.9256  -0.9243  -0.8904  -0.8675  -0.8307
    -0.7882  -0.7817  -0.7417  -0.7106  -0.6839  -0.6431  -0.5834  -0.5524
    -0.5027  -0.4943  -0.4617  -0.4413  -0.4040  -0.3599  -0.3409  -0.3123
    -0.2934  -0.2339  -0.2314  -0.1959  -0.1917  -0.1414  -0.1223  -0.1002
    -0.0777  -0.0531  -0.0418  -0.0243  -0.0117   0.0669   0.0874   0.1264
     0.1299   0.1341   0.1661   0.1800   0.1880   0.2180   0.2352   0.2426
     0.2767   0.3049   0.3383   0.3467   0.3507   0.3868   0.4031   0.4541
     0.4871   0.5519   0.6152   0.6852   0.7227   0.7243   0.7644   0.8172
     0.8267   0.8444   0.8745   0.8795   0.9085   0.9337   0.9546   0.9662
     0.9911   1.0078   1.0175   1.0566   1.0937   1.1108   1.1181   1.1253
     1.1496   1.1552   1.1796   1.2402   1.2495   1.2929   1.3338   1.3669
     1.4510   1.4619   1.4699   1.4857   1.5062   1.5357   1.5424   1.5637
     1.5734   1.5897   1.6439   1.6524   1.7224   1.8073   1.9247   2.0762
     2.1123   2.1946   2.2954   2.5517   2.5840   2.5914   2.6158   2.6440
     2.6892   2.6972   2.7554   2.8181   2.9319   3.1077   4.4718   5.3703
     5.3933   5.5553   5.5662   5.8585   6.1565   6.3148   6.4482   6.4632
     6.4723   6.5747   6.9644   6.9992   7.2609   7.2829   7.3870   7.5670
     7.5771   7.6596   7.7921   7.8780   7.8809   7.9562   8.0608   8.1582
     8.1799   8.2395   8.3214   8.3751   8.4527   8.4724   8.5779   8.5975
     8.6797   8.7659

          k = 0.2500 0.5236 0.0000 ( 73026 PWs)   bands (ev):

   -38.2858 -37.9588 -35.9181 -35.5527 -24.6281 -24.2095 -22.9722 -22.9465
   -22.8922 -22.8678 -22.8484 -22.7397 -18.6493 -18.6302 -18.6294 -18.3338
   -18.3255 -18.2708 -17.1790 -17.1621 -17.1546 -16.8204 -16.8132 -16.7747
   -15.2411 -15.1789 -15.1262 -15.0683 -15.0079 -14.9655 -14.8726 -14.7774
   -14.7673 -14.7045 -14.6537 -14.6437 -14.4754 -14.4385 -14.4195 -14.4031
   -14.3652 -14.3608 -14.3603 -14.2880 -14.2378 -14.2081 -14.2027 -14.1813
   -14.1782 -14.1548 -14.1219 -14.0921 -13.8187 -13.5720 -10.0166  -9.8889
    -9.6703  -9.4929  -9.3611  -9.0994  -8.5596  -8.5353  -8.3954  -8.3065
    -8.2823  -8.2695  -8.2401  -8.2141  -8.2051  -8.1813  -8.1263  -8.1253
    -8.1017  -8.0842  -7.9850  -7.8612  -7.8374  -7.7009  -3.6039  -3.4776
    -3.2545  -3.0893  -3.0150  -3.0144  -2.9272  -2.8527  -2.7951  -2.6383
    -2.6025  -2.5047  -2.4897  -2.4806  -2.4718  -2.4310  -2.4256  -2.3473
    -2.3312  -2.2986  -2.2941  -2.2759  -2.2742  -2.2221  -2.1276  -2.0681
    -2.0556  -2.0448  -1.9331  -1.9222  -1.8616  -1.8021  -1.7197  -1.6728
    -1.5973  -1.4864  -1.4675  -1.3396  -1.2697  -1.2124  -1.2062  -1.1894
    -1.1635  -1.1583  -1.1026  -1.0980  -1.0646  -1.0236  -1.0213  -1.0041
    -0.9866  -0.9035  -0.8560  -0.7979  -0.7868  -0.7766  -0.7627  -0.7226
    -0.6899  -0.6884  -0.6603  -0.6294  -0.6125  -0.5852  -0.5637  -0.5350
    -0.4725  -0.4539  -0.4370  -0.3092  -0.2915  -0.2526  -0.2030  -0.1126
    -0.0620  -0.0294   0.0228   0.0263   0.0647   0.0823   0.1295   0.1861
     0.2044   0.2119   0.2737   0.2766   0.2993   0.3377   0.3791   0.4990
     0.5288   0.5549   0.5733   0.5956   0.6769   0.7049   0.7728   0.7750
     0.8201   0.8299   0.8431   0.8867   0.8922   0.9067   0.9256   0.9321
     0.9422   0.9706   1.0332   1.0562   1.0771   1.0891   1.1065   1.1280
     1.1365   1.1789   1.1867   1.1959   1.2434   1.2635   1.2780   1.2797
     1.2855   1.3161   1.3394   1.3545   1.3758   1.4049   1.4215   1.4588
     1.4891   1.5168   1.5672   1.6074   1.6362   1.6655   1.6705   1.6921
     1.7243   1.7462   1.8076   1.8433   1.8524   1.8660   1.9319   2.0933
     2.3315   2.3882   2.5533   2.7809   2.8819   2.8877   2.9206   2.9534
     3.2388   3.2829   3.4923   3.5358   3.6205   3.8550   4.8661   5.4729
     5.7518   6.1174   6.3671   6.3726   6.4123   6.4550   6.4697   6.5758
     6.8226   6.9675   7.0645   7.0862   7.4785   7.6922   7.7920   7.8164
     7.8338   7.9458   8.0767   8.1565   8.1608   8.1961   8.2140   8.3077
     8.3989   8.5109   8.5495   8.5875   8.6345   8.6667   8.6971   8.8114
     8.8745   8.9406

          k = 0.2500 0.7854 0.0000 ( 73086 PWs)   bands (ev):

   -38.2792 -37.9522 -35.9140 -35.5485 -24.5818 -24.1643 -22.9120 -22.8862
   -22.8419 -22.8175 -22.7904 -22.6908 -18.8580 -18.6130 -18.5416 -18.5240
   -18.3082 -18.1657 -17.2944 -17.1426 -17.0931 -16.9423 -16.8022 -16.6959
   -15.0537 -14.9925 -14.9585 -14.9381 -14.9197 -14.8637 -14.8216 -14.7555
   -14.7310 -14.7010 -14.6017 -14.5806 -14.5650 -14.5022 -14.4741 -14.4311
   -14.4197 -14.3796 -14.3746 -14.2645 -14.1896 -14.1577 -14.1566 -14.1479
   -14.1325 -14.1319 -14.0930 -13.9965 -13.8024 -13.5847 -10.1742  -9.9673
    -9.8051  -9.5977  -9.4298  -9.1498  -8.8358  -8.8110  -8.6652  -8.4746
    -8.4512  -8.3329  -8.3084  -8.2929  -8.2537  -8.2347  -8.2246  -8.2078
    -8.1817  -8.1764  -8.0527  -7.9103  -7.8867  -7.7410  -4.0847  -3.9501
    -3.6700  -3.5805  -3.4935  -3.4603  -3.4440  -3.2351  -3.2256  -3.0395
    -3.0393  -2.9929  -2.9922  -2.8818  -2.7475  -2.7218  -2.5973  -2.4407
    -2.4081  -2.4027  -2.3734  -2.3408  -2.3241  -2.3194  -2.2890  -2.2710
    -2.1887  -2.0831  -2.0082  -1.9793  -1.9459  -1.9290  -1.8420  -1.8039
    -1.6991  -1.5752  -1.5750  -1.4830  -1.4359  -1.4323  -1.4124  -1.3583
    -1.3325  -1.2938  -1.2788  -1.2666  -1.2627  -1.2322  -1.1690  -1.1008
    -1.0809  -1.0537  -0.9710  -0.9568  -0.9486  -0.9427  -0.9074  -0.8952
    -0.8758  -0.8269  -0.8041  -0.7966  -0.7458  -0.6970  -0.6955  -0.6372
    -0.5367  -0.4894  -0.4602  -0.4458  -0.4371  -0.3312  -0.1608  -0.0950
    -0.0865   0.0403   0.0482   0.0638   0.1200   0.1253   0.1839   0.2215
     0.2591   0.2706   0.3092   0.4007   0.4312   0.4358   0.5066   0.5140
     0.7212   0.7220   0.7972   0.7974   0.8389   0.8522   0.8834   0.9786
     0.9976   1.0084   1.0181   1.0397   1.0573   1.0676   1.0889   1.1157
     1.1273   1.1580   1.1733   1.1811   1.2096   1.2341   1.2961   1.3042
     1.3318   1.3398   1.3575   1.3816   1.3940   1.4122   1.4972   1.5183
     1.5495   1.5524   1.5627   1.5997   1.6087   1.6458   1.6474   1.6651
     1.6853   1.7017   1.7105   1.7412   1.8149   1.8299   1.8319   1.9025
     1.9781   1.9794   2.0092   2.0930   2.0969   2.2409   2.2509   2.2528
     2.3196   2.3805   2.5375   2.6993   2.7345   2.7388   2.8665   2.9237
     3.5594   3.6165   4.0158   4.0631   4.1032   4.3325   4.9541   5.4721
     5.9590   6.1101   6.1222   6.2566   6.6166   6.6696   6.7512   7.0311
     7.0973   7.1100   7.2833   7.5480   7.7481   7.7952   7.9291   8.0207
     8.0675   8.3749   8.4087   8.4472   8.5803   8.6599   8.6912   8.7377
     8.7596   8.8747   8.9333   9.0051   9.0140   9.0555   9.0759   9.1918
     9.2435   9.2746

          k = 0.2500-1.0472 0.0000 ( 73056 PWs)   bands (ev):

   -38.2765 -37.9495 -35.9122 -35.5468 -24.5623 -24.1452 -22.8866 -22.8608
   -22.8206 -22.7963 -22.7660 -22.6701 -18.9385 -18.6222 -18.6059 -18.4768
   -18.3010 -18.1182 -17.3449 -17.1373 -17.0569 -16.9926 -16.7966 -16.6591
   -15.0735 -15.0124 -14.8474 -14.8433 -14.7992 -14.7685 -14.7619 -14.7515
   -14.7363 -14.7059 -14.6640 -14.5978 -14.5706 -14.5695 -14.5084 -14.4240
   -14.4235 -14.3943 -14.3874 -14.2562 -14.1970 -14.1306 -14.1283 -14.1282
   -14.1151 -14.1146 -14.0093 -13.9433 -13.8132 -13.5849 -10.2722  -9.9415
    -9.9029  -9.6483  -9.4099  -9.1799  -8.9216  -8.8965  -8.7610  -8.6253
    -8.6023  -8.4201  -8.3194  -8.2950  -8.2648  -8.2436  -8.2327  -8.2057
    -8.1820  -8.1787  -8.0398  -7.9506  -7.9271  -7.7693  -4.2830  -4.1502
    -3.8600  -3.7864  -3.6650  -3.6576  -3.6105  -3.4176  -3.3882  -3.2743
    -3.2736  -3.2239  -3.2233  -3.0360  -2.7642  -2.7387  -2.6079  -2.5764
    -2.4296  -2.4217  -2.4073  -2.3854  -2.3416  -2.3180  -2.3140  -2.2853
    -2.2701  -2.1414  -1.9798  -1.9610  -1.9335  -1.8711  -1.8324  -1.8191
    -1.7565  -1.7394  -1.7019  -1.6379  -1.5617  -1.4998  -1.4540  -1.4390
    -1.3650  -1.3437  -1.3380  -1.3012  -1.2978  -1.2870  -1.2610  -1.1774
    -1.1017  -1.0826  -1.0468  -1.0361  -1.0289  -1.0224  -0.9926  -0.9788
    -0.9177  -0.9122  -0.8930  -0.7998  -0.7604  -0.7300  -0.7163  -0.6646
    -0.5373  -0.4998  -0.4573  -0.4224  -0.4183  -0.3470  -0.1663  -0.0851
    -0.0653   0.0183   0.0606   0.0651   0.1491   0.1497   0.1705   0.2297
     0.2359   0.2484   0.2876   0.2959   0.4158   0.5395   0.5694   0.6578
     0.8056   0.8101   0.8291   0.8496   0.8710   0.9609   0.9628   1.0107
     1.0191   1.0334   1.0473   1.0665   1.0987   1.1158   1.1484   1.1522
     1.1921   1.2054   1.2214   1.2295   1.2534   1.2931   1.3127   1.3161
     1.3967   1.4139   1.4570   1.4600   1.5024   1.5356   1.5794   1.5895
     1.5926   1.6566   1.7083   1.7134   1.7432   1.7779   1.7847   1.8171
     1.8462   1.8598   1.9300   1.9337   1.9928   2.0002   2.0025   2.0177
     2.0228   2.0987   2.1294   2.2319   2.2720   2.2880   2.2887   2.3791
     2.4113   2.4186   2.4197   2.5105   2.5129   2.5543   2.7449   2.8216
     3.5835   3.7056   4.1672   4.2209   4.2573   4.4771   4.8647   5.5926
     5.9202   5.9318   6.2158   6.3553   6.5159   6.5407   6.6576   7.0755
     7.1938   7.2970   7.3115   7.7156   7.7240   7.7474   7.9773   8.0399
     8.3151   8.4494   8.6141   8.8228   8.8737   8.8852   8.8956   8.9852
     9.0518   9.0561   9.0590   9.1230   9.1745   9.1884   9.2274   9.2571
     9.3674   9.3821

          k = 0.3750 0.0000 0.0000 ( 73116 PWs)   bands (ev):

   -38.2949 -37.9680 -35.9239 -35.5585 -24.6903 -24.2741 -23.0363 -23.0104
   -22.9803 -22.9561 -22.9167 -22.8188 -18.7658 -18.6464 -18.4104 -18.3422
   -18.2982 -17.9794 -17.2888 -17.2039 -16.9538 -16.8978 -16.8665 -16.5991
   -15.4835 -15.3914 -15.3245 -15.2513 -15.1644 -15.0990 -14.9867 -14.9074
   -14.8472 -14.8414 -14.8002 -14.7637 -14.5212 -14.4924 -14.4386 -14.4340
   -14.3327 -14.3024 -14.2654 -14.2590 -14.2566 -14.2493 -14.2465 -14.2210
   -14.1873 -14.1649 -14.1142 -14.0071 -13.7695 -13.5363 -10.0854  -9.6215
    -9.3971  -9.3478  -9.0744  -9.0543  -8.3213  -8.2909  -8.2435  -8.2161
    -8.1926  -8.1649  -8.0339  -8.0113  -7.9407  -7.9172  -7.9160  -7.8907
    -7.8524  -7.8179  -7.7938  -7.7775  -7.7544  -7.6604  -2.9515  -2.9042
    -2.8253  -2.5751  -2.5408  -2.4867  -2.3744  -2.3730  -2.3473  -2.3437
    -2.2825  -2.2640  -2.2510  -2.2293  -2.1601  -2.0867  -1.9783  -1.9734
    -1.9299  -1.9264  -1.9052  -1.8536  -1.7575  -1.7470  -1.7447  -1.6909
    -1.5251  -1.4868  -1.4079  -1.3216  -1.2740  -1.2500  -1.2274  -1.2253
    -1.1689  -1.1675  -1.1653  -1.1640  -1.1448  -1.0798  -1.0784  -1.0544
    -1.0398  -0.9981  -0.9310  -0.9117  -0.8639  -0.7823  -0.7752  -0.7632
    -0.7305  -0.7286  -0.6704  -0.6431  -0.5976  -0.5845  -0.5496  -0.5441
    -0.5048  -0.4887  -0.4646  -0.3942  -0.3765  -0.3381  -0.3144  -0.2818
    -0.2512  -0.2455  -0.2331  -0.2280  -0.2212  -0.2192  -0.1805  -0.1744
    -0.1367  -0.1333  -0.0183   0.0125   0.0297   0.0313   0.0436   0.0451
     0.0949   0.1301   0.1443   0.1477   0.1609   0.1858   0.2223   0.2388
     0.2729   0.2825   0.2873   0.2901   0.3402   0.3510   0.3809   0.4246
     0.5033   0.5098   0.5569   0.6028   0.6121   0.6665   0.6743   0.6751
     0.6908   0.7137   0.7765   0.8134   0.8375   0.8479   0.8513   0.9173
     0.9619   0.9752   1.0113   1.0220   1.0678   1.1063   1.1331   1.1491
     1.1602   1.1670   1.1962   1.1965   1.2390   1.2897   1.2914   1.3218
     1.3599   1.3965   1.4236   1.4479   1.5192   1.5349   1.5976   1.6209
     1.6212   1.6692   1.7196   1.7356   1.7608   1.7636   1.7959   1.8034
     1.8792   1.9698   2.0476   2.0505   2.1171   2.1933   2.2733   2.3508
     2.4105   2.4566   2.4594   2.5044   2.5916   2.6455   4.4802   5.0322
     5.3215   5.4207   5.4332   5.8479   5.9795   5.9850   6.0042   6.1880
     6.4683   6.6280   6.9028   6.9518   6.9823   7.2320   7.3424   7.4201
     7.6221   7.6528   7.6824   7.9193   7.9396   8.0361   8.1418   8.1871
     8.2200   8.2449   8.2629   8.2811   8.3396   8.4022   8.4765   8.5154
     8.7052   8.7519

          k = 0.3750 0.2618 0.0000 ( 73114 PWs)   bands (ev):

   -38.2923 -37.9653 -35.9222 -35.5568 -24.6719 -24.2558 -23.0135 -22.9875
   -22.9592 -22.9351 -22.8944 -22.7986 -18.7273 -18.6394 -18.4091 -18.3717
   -18.3351 -18.0904 -17.2586 -17.1964 -17.0193 -16.8673 -16.8585 -16.6647
   -15.3805 -15.3304 -15.2731 -15.1685 -15.1139 -15.0575 -14.9240 -14.8862
   -14.8103 -14.8094 -14.7663 -14.7414 -14.4690 -14.4595 -14.4190 -14.3876
   -14.3442 -14.3298 -14.3227 -14.2733 -14.2479 -14.2389 -14.2332 -14.2176
   -14.2124 -14.1631 -14.1272 -14.0457 -13.7967 -13.5469 -10.0642  -9.6319
    -9.5776  -9.4530  -9.0990  -9.0460  -8.3213  -8.2928  -8.2661  -8.2496
    -8.2411  -8.2137  -8.1882  -8.1674  -8.1295  -8.1049  -8.0164  -7.9952
    -7.8370  -7.8128  -7.8058  -7.7820  -7.6829  -7.6597  -3.0464  -2.9750
    -2.8683  -2.6915  -2.6329  -2.5759  -2.4113  -2.3965  -2.3754  -2.3626
    -2.3456  -2.3339  -2.3307  -2.2986  -2.2802  -2.2633  -2.2476  -2.2254
    -2.2188  -2.1736  -2.0839  -2.0601  -1.8714  -1.8626  -1.8216  -1.6606
    -1.6463  -1.6106  -1.6068  -1.6053  -1.5970  -1.5955  -1.5187  -1.4843
    -1.3777  -1.3125  -1.3069  -1.2699  -1.1878  -1.1584  -1.0855  -1.0772
    -1.0013  -0.9782  -0.9723  -0.9416  -0.9348  -0.9193  -0.8869  -0.8629
    -0.8302  -0.8259  -0.8043  -0.7660  -0.7089  -0.6697  -0.6063  -0.5689
    -0.5660  -0.4756  -0.4450  -0.4429  -0.3858  -0.3818  -0.3403  -0.3192
    -0.2808  -0.2674  -0.2562  -0.2165  -0.1675  -0.1449  -0.1042  -0.1019
    -0.0647  -0.0548  -0.0403  -0.0125  -0.0086   0.0435   0.0546   0.1273
     0.1419   0.1729   0.1736   0.1774   0.1960   0.2005   0.2484   0.2575
     0.2819   0.3228   0.3270   0.3594   0.3755   0.4166   0.4239   0.4547
     0.5148   0.5349   0.5589   0.7033   0.7308   0.7577   0.7991   0.8039
     0.8195   0.8341   0.8461   0.8863   0.8942   0.9188   0.9353   0.9729
     0.9996   1.0333   1.0465   1.0475   1.0601   1.0890   1.1052   1.1128
     1.1363   1.1614   1.1661   1.2526   1.2870   1.3057   1.3186   1.3449
     1.3741   1.4120   1.4356   1.4425   1.5250   1.5392   1.5494   1.5565
     1.5833   1.5855   1.6496   1.6627   1.7527   1.7936   1.8234   2.0753
     2.2921   2.3515   2.4923   2.5409   2.5860   2.5924   2.6313   2.6964
     2.7001   2.7334   2.7844   2.8052   2.8641   3.0682   4.6258   5.1686
     5.5827   5.7212   5.7279   5.8995   6.1753   6.1846   6.1899   6.3567
     6.5566   6.6919   7.0592   7.2203   7.2423   7.3179   7.3785   7.5265
     7.5880   7.7055   7.7955   7.8508   7.8607   7.9847   8.0606   8.0821
     8.2241   8.2857   8.3102   8.3787   8.4169   8.4384   8.5255   8.6175
     8.7170   8.8416

          k = 0.3750 0.5236 0.0000 ( 73039 PWs)   bands (ev):

   -38.2858 -37.9588 -35.9181 -35.5527 -24.6268 -24.2112 -22.9574 -22.9313
   -22.9076 -22.8835 -22.8395 -22.7491 -18.6492 -18.6280 -18.6225 -18.3336
   -18.3179 -18.2693 -17.1843 -17.1796 -17.1615 -16.8415 -16.8181 -16.7801
   -15.1654 -15.1530 -15.1341 -15.0121 -15.0010 -14.9582 -14.8667 -14.7771
   -14.7546 -14.7180 -14.7054 -14.6686 -14.4813 -14.4377 -14.4153 -14.3910
   -14.3883 -14.3479 -14.3438 -14.2674 -14.2630 -14.2034 -14.1984 -14.1866
   -14.1861 -14.1662 -14.1450 -14.1217 -13.8124 -13.5676 -10.0152  -9.8838
    -9.7517  -9.4926  -9.2947  -9.0950  -8.5577  -8.5335  -8.4202  -8.3962
    -8.3884  -8.2688  -8.2551  -8.2391  -8.2016  -8.1949  -8.1759  -8.0845
    -8.0148  -7.9909  -7.8759  -7.8640  -7.8401  -7.7048  -3.4589  -3.3347
    -3.1647  -3.1152  -3.0747  -3.0085  -2.9336  -2.8847  -2.6627  -2.6055
    -2.5726  -2.5062  -2.4983  -2.4816  -2.4769  -2.4242  -2.4158  -2.3689
    -2.3360  -2.3254  -2.3231  -2.2705  -2.2664  -2.2163  -2.2118  -2.1982
    -2.1554  -1.9444  -1.8799  -1.8447  -1.8380  -1.7736  -1.7396  -1.6804
    -1.6203  -1.5470  -1.4824  -1.4258  -1.3709  -1.3332  -1.2918  -1.2346
    -1.2052  -1.2011  -1.1591  -1.1084  -1.0822  -1.0626  -1.0440  -1.0128
    -0.9759  -0.9252  -0.8752  -0.8739  -0.8028  -0.7858  -0.7841  -0.7185
    -0.6682  -0.6681  -0.6598  -0.6284  -0.6083  -0.5945  -0.5885  -0.5108
    -0.4563  -0.4251  -0.3853  -0.3754  -0.3061  -0.2816  -0.2722  -0.1333
    -0.0795  -0.0787   0.0078   0.0267   0.0727   0.0980   0.1349   0.1928
     0.2316   0.2567   0.3033   0.3240   0.3453   0.3548   0.3985   0.4707
     0.5329   0.5727   0.6267   0.6782   0.7129   0.7318   0.7626   0.7708
     0.8050   0.8367   0.8625   0.8726   0.8820   0.8856   0.9038   0.9186
     0.9313   0.9554   0.9664   1.0723   1.0879   1.0984   1.1128   1.1326
     1.1378   1.1756   1.1857   1.2151   1.2273   1.2336   1.2898   1.3032
     1.3073   1.3524   1.3617   1.3645   1.3804   1.3877   1.4264   1.4485
     1.4594   1.4841   1.5773   1.5935   1.6496   1.6606   1.7096   1.7120
     1.7473   1.7687   1.7858   1.8064   1.8072   1.8524   1.9087   2.0338
     2.6842   2.7234   2.8334   2.8852   2.8890   2.9211   2.9665   3.1691
     3.2406   3.2726   3.3203   3.3609   3.4588   3.7017   4.9987   5.5179
     5.6139   6.1335   6.4151   6.4233   6.4355   6.4695   6.4826   6.6111
     6.9031   7.0137   7.1426   7.1928   7.4496   7.6848   7.7991   7.8596
     7.9732   7.9935   8.0009   8.0362   8.0516   8.1530   8.1577   8.2081
     8.4064   8.4962   8.5389   8.6058   8.6464   8.6816   8.7328   8.8718
     8.8834   8.9251

          k = 0.3750 0.7854 0.0000 ( 73096 PWs)   bands (ev):

   -38.2792 -37.9522 -35.9140 -35.5485 -24.5807 -24.1656 -22.8998 -22.8736
   -22.8544 -22.8305 -22.7832 -22.6984 -18.8579 -18.6055 -18.5415 -18.5227
   -18.3008 -18.1643 -17.2943 -17.1647 -17.0982 -16.9423 -16.8252 -16.7015
   -15.0031 -14.9525 -14.9510 -14.9403 -14.8973 -14.8581 -14.8483 -14.7333
   -14.6839 -14.6736 -14.5899 -14.5824 -14.5653 -14.5284 -14.4890 -14.4727
   -14.4636 -14.3709 -14.3537 -14.2844 -14.1911 -14.1545 -14.1516 -14.1458
   -14.1369 -14.1330 -14.1061 -14.0483 -13.7957 -13.5888 -10.0953  -9.9651
    -9.8348  -9.6006  -9.4258  -9.2174  -8.7544  -8.7298  -8.5864  -8.4820
    -8.4577  -8.3295  -8.3128  -8.3057  -8.2446  -8.2382  -8.2151  -8.2143
    -8.1889  -8.1556  -8.0538  -8.0153  -7.9916  -7.8380  -3.9431  -3.8170
    -3.6063  -3.5658  -3.5317  -3.5137  -3.4579  -3.2888  -3.1225  -3.0289
    -3.0288  -3.0036  -3.0021  -2.9149  -2.6682  -2.6406  -2.5308  -2.4470
    -2.4306  -2.3926  -2.3313  -2.3143  -2.3031  -2.3006  -2.1831  -2.1730
    -2.1698  -2.1484  -2.1373  -2.0758  -2.0078  -1.8957  -1.8160  -1.8015
    -1.7857  -1.6965  -1.6921  -1.6398  -1.6143  -1.5326  -1.4182  -1.4172
    -1.3975  -1.3012  -1.3004  -1.2790  -1.2650  -1.2390  -1.2252  -1.1177
    -1.1015  -1.0174  -0.9673  -0.9650  -0.9193  -0.8910  -0.8824  -0.8672
    -0.8459  -0.8323  -0.8000  -0.7955  -0.7397  -0.7082  -0.6892  -0.6572
    -0.5366  -0.4974  -0.4974  -0.4441  -0.4048  -0.3758  -0.1937  -0.1280
    -0.1150   0.0198   0.0532   0.0806   0.1012   0.1847   0.2078   0.2865
     0.2962   0.3488   0.3975   0.4098   0.4274   0.4613   0.6023   0.6382
     0.6703   0.7693   0.7736   0.8199   0.8227   0.8315   0.8834   0.9419
     0.9536   0.9677   1.0130   1.0703   1.0867   1.1125   1.1280   1.1495
     1.1856   1.1983   1.2066   1.2150   1.2304   1.2444   1.2483   1.2922
     1.2992   1.3077   1.3082   1.3242   1.3416   1.4219   1.4624   1.4906
     1.4927   1.5080   1.5581   1.5775   1.6058   1.6068   1.6248   1.6662
     1.6713   1.6810   1.7117   1.7521   1.7821   1.7841   1.8112   1.8261
     1.9693   1.9827   2.0280   2.1302   2.1328   2.1516   2.2160   2.2179
     2.6715   2.6819   2.7390   2.7462   2.8487   2.9488   3.0778   3.2651
     3.5704   3.6150   3.7141   3.7621   3.8298   4.0555   5.1377   5.5123
     5.7637   6.1996   6.3405   6.3561   6.6956   6.7627   6.8295   6.9114
     6.9154   6.9852   7.2393   7.4481   7.5769   7.7121   7.9282   8.0328
     8.1216   8.4055   8.4488   8.4870   8.5395   8.6407   8.6842   8.6948
     8.7230   8.8039   8.9524   9.0209   9.0810   9.1844   9.2313   9.2570
     9.2759   9.3018

          k = 0.3750-1.0472 0.0000 ( 73070 PWs)   bands (ev):

   -38.2765 -37.9495 -35.9123 -35.5468 -24.5613 -24.1464 -22.8755 -22.8492
   -22.8320 -22.8081 -22.7594 -22.6770 -18.9384 -18.6221 -18.5985 -18.4757
   -18.2936 -18.1170 -17.3449 -17.1586 -17.0617 -16.9927 -16.8189 -16.6644
   -15.0255 -14.9601 -14.8796 -14.8206 -14.8161 -14.7696 -14.7599 -14.7401
   -14.7100 -14.6623 -14.6061 -14.5976 -14.5625 -14.5588 -14.5546 -14.4664
   -14.4639 -14.3969 -14.3833 -14.3013 -14.1822 -14.1364 -14.1256 -14.1251
   -14.1185 -14.1179 -14.0225 -13.9843 -13.7990 -13.6011 -10.1494  -9.9409
    -9.8175  -9.7710  -9.4089  -9.2863  -8.7902  -8.7651  -8.6379  -8.4872
    -8.4640  -8.4621  -8.4377  -8.3126  -8.2983  -8.2497  -8.2395  -8.2210
    -8.2179  -8.1946  -8.1174  -8.0938  -8.0418  -7.9205  -4.1398  -4.0172
    -3.7977  -3.7523  -3.7260  -3.6829  -3.6548  -3.4486  -3.3164  -3.2630
    -3.2626  -3.2355  -3.2335  -3.0751  -2.6730  -2.6460  -2.5307  -2.4586
    -2.4483  -2.4356  -2.3970  -2.3293  -2.3013  -2.2999  -2.2938  -2.1971
    -2.1553  -2.1302  -2.1187  -2.0301  -2.0298  -1.9931  -1.9533  -1.9325
    -1.8834  -1.7537  -1.7316  -1.7127  -1.6235  -1.5933  -1.5070  -1.4972
    -1.4682  -1.4189  -1.3523  -1.3353  -1.3346  -1.3080  -1.2936  -1.1245
    -1.0925  -1.0584  -1.0386  -1.0202  -0.9698  -0.9548  -0.9506  -0.9302
    -0.9288  -0.9033  -0.8413  -0.7948  -0.7518  -0.7374  -0.7072  -0.6939
    -0.5820  -0.5003  -0.4931  -0.4665  -0.4110  -0.3624  -0.1736  -0.1229
    -0.0567   0.0356   0.0695   0.1333   0.1472   0.2186   0.2242   0.2310
[...]
    -2.2549  -2.1397  -2.1275  -2.0982  -1.9552  -1.8702  -1.8298  -1.6580
    -1.6328  -1.6054  -1.6038  -1.6024  -1.5964  -1.5774  -1.5456  -1.4739
    -1.2953  -1.2589  -1.2430  -1.2107  -1.2032  -1.1311  -1.1257  -1.0970
    -1.0706  -1.0423  -1.0315  -0.9807  -0.9600  -0.9502  -0.9167  -0.8202
    -0.8048  -0.8021  -0.7592  -0.7532  -0.7450  -0.7259  -0.6744  -0.5930
    -0.5601  -0.4632  -0.4489  -0.4312  -0.3862  -0.3805  -0.3259  -0.3128
    -0.3101  -0.2728  -0.2347  -0.2088  -0.2035  -0.1545  -0.0974  -0.0920
    -0.0706  -0.0618  -0.0138  -0.0019  -0.0007   0.0168   0.0199   0.1273
     0.1473   0.1812   0.1860   0.1898   0.2148   0.2315   0.2626   0.2653
     0.2679   0.2777   0.3121   0.3928   0.3947   0.4243   0.4369   0.4734
     0.5037   0.5337   0.5597   0.7036   0.7450   0.7476   0.7511   0.8184
     0.8320   0.8368   0.8552   0.8615   0.8637   0.8965   0.9278   1.0017
     1.0122   1.0217   1.0469   1.0661   1.0680   1.1034   1.1110   1.1174
     1.1507   1.1585   1.2091   1.2307   1.2399   1.2736   1.3415   1.3525
     1.3676   1.3748   1.3907   1.4005   1.5373   1.5503   1.5741   1.5801
     1.5873   1.5996   1.6649   1.6760   1.6851   1.7603   1.8258   2.0663
     2.3927   2.4451   2.4965   2.5626   2.6019   2.6094   2.6227   2.7136
     2.7159   2.7189   2.7557   2.7930   2.9134   3.0148   4.7399   5.0300
     5.7710   5.8561   5.9256   5.9309   5.9429   5.9477   6.0754   6.4707
     6.6018   6.8110   6.9181   7.1864   7.4355   7.4440   7.5071   7.5378
     7.5568   7.5908   7.7322   7.7779   7.7983   7.9023   8.0593   8.0836
     8.1568   8.2937   8.3940   8.4051   8.4514   8.5238   8.5685   8.6898
     8.7350   8.7891

          k =-0.5000 0.5236 0.0000 ( 73038 PWs)   bands (ev):

   -38.2858 -37.9588 -35.9181 -35.5527 -24.6262 -24.2119 -22.9473 -22.9204
   -22.9179 -22.8947 -22.8352 -22.7536 -18.6491 -18.6274 -18.6193 -18.3336
   -18.3147 -18.2687 -17.1897 -17.1860 -17.1619 -16.8515 -16.8188 -16.7822
   -15.1508 -15.1479 -15.0944 -15.0127 -14.9807 -14.9619 -14.8624 -14.8026
   -14.7435 -14.7254 -14.7083 -14.6835 -14.4827 -14.4373 -14.4155 -14.4029
   -14.3592 -14.3586 -14.3431 -14.2636 -14.2586 -14.2028 -14.2016 -14.1952
   -14.1890 -14.1715 -14.1643 -14.1217 -13.8102 -13.5659 -10.0144  -9.8612
    -9.8057  -9.4924  -9.2583  -9.1024  -8.5237  -8.4993  -8.4946  -8.4710
    -8.3553  -8.3204  -8.2682  -8.2385  -8.2017  -8.1999  -8.1753  -8.0846
    -7.9248  -7.9138  -7.9011  -7.8896  -7.8119  -7.7310  -3.3342  -3.2559
    -3.2049  -3.1672  -3.0403  -2.9845  -2.9399  -2.9287  -2.5729  -2.5681
    -2.5441  -2.5379  -2.5282  -2.4986  -2.4281  -2.4250  -2.4028  -2.3910
    -2.3861  -2.3784  -2.3190  -2.2737  -2.2653  -2.2588  -2.2423  -2.2352
    -2.0774  -1.9784  -1.9272  -1.8486  -1.7194  -1.7098  -1.6664  -1.6376
    -1.6062  -1.5873  -1.5476  -1.5440  -1.5084  -1.4703  -1.2410  -1.2261
    -1.2013  -1.1923  -1.1589  -1.1464  -1.0913  -1.0792  -1.0460  -1.0222
    -1.0151  -0.8983  -0.8956  -0.8694  -0.8365  -0.7988  -0.7802  -0.7208
    -0.6556  -0.6508  -0.6426  -0.6396  -0.6346  -0.5970  -0.5437  -0.5188
    -0.4748  -0.4319  -0.3847  -0.3315  -0.3297  -0.3216  -0.2192  -0.1890
    -0.1237  -0.1141  -0.0026   0.0209   0.0716   0.1081   0.1586   0.2557
     0.2607   0.2808   0.2865   0.2957   0.3982   0.4000   0.4072   0.4306
     0.5376   0.6019   0.6233   0.7286   0.7336   0.7401   0.7745   0.7892
     0.7905   0.8136   0.8398   0.8590   0.8693   0.8735   0.8758   0.8760
     0.9378   0.9650   0.9962   1.0409   1.0879   1.1058   1.1109   1.1546
     1.1635   1.1723   1.1740   1.2273   1.2346   1.2435   1.2505   1.3042
     1.3087   1.3301   1.3585   1.3682   1.3748   1.3813   1.4054   1.5123
     1.5200   1.5393   1.5434   1.5776   1.5953   1.6726   1.7213   1.7426
     1.7550   1.7595   1.7662   1.7671   1.7840   1.8539   1.9256   2.0017
     2.8522   2.8610   2.8822   2.8897   3.0269   3.0770   3.0785   3.1412
     3.1578   3.2532   3.2565   3.2873   3.4294   3.5053   5.0894   5.4086
     5.6703   6.1089   6.4424   6.4544   6.4678   6.4772   6.4829   6.6041
     6.9581   7.0129   7.1768   7.2670   7.4283   7.6937   7.7678   7.8249
     7.9040   7.9722   8.0384   8.0968   8.1078   8.1196   8.1235   8.1342
     8.4816   8.5205   8.5365   8.5997   8.6724   8.7029   8.7873   8.7930
     8.8309   8.8998

          k =-0.5000 0.7854 0.0000 ( 73054 PWs)   bands (ev):

   -38.2792 -37.9522 -35.9140 -35.5485 -24.5803 -24.1661 -22.8919 -22.8650
   -22.8624 -22.8392 -22.7797 -22.7019 -18.8578 -18.6024 -18.5415 -18.5222
   -18.2976 -18.1638 -17.2943 -17.1738 -17.1004 -16.9422 -16.8347 -16.7039
   -14.9627 -14.9479 -14.9441 -14.9322 -14.9065 -14.9011 -14.8037 -14.7147
   -14.6739 -14.6393 -14.6385 -14.5934 -14.5252 -14.5232 -14.5064 -14.5039
   -14.4818 -14.3684 -14.3271 -14.3103 -14.1908 -14.1522 -14.1481 -14.1462
   -14.1403 -14.1330 -14.1072 -14.0764 -13.7928 -13.5908 -10.0306  -9.9531
    -9.9135  -9.5688  -9.4186  -9.2605  -8.6504  -8.6251  -8.6118  -8.5884
    -8.5066  -8.4146  -8.2479  -8.2379  -8.2311  -8.2185  -8.2078  -8.1539
    -8.1533  -8.1302  -8.1292  -8.0761  -8.0365  -7.9241  -3.8446  -3.7255
    -3.6692  -3.5776  -3.5559  -3.5023  -3.4218  -3.3430  -3.0663  -3.0174
    -3.0167  -3.0157  -3.0119  -2.9429  -2.5884  -2.5637  -2.5083  -2.4780
    -2.4647  -2.4233  -2.3062  -2.2891  -2.2785  -2.2676  -2.2447  -2.2436
    -2.1574  -2.0558  -2.0414  -2.0351  -2.0152  -1.9725  -1.9344  -1.9126
    -1.8263  -1.8194  -1.6881  -1.6164  -1.5824  -1.5672  -1.4666  -1.4199
    -1.4192  -1.4043  -1.3097  -1.2731  -1.2708  -1.2349  -1.2204  -1.1324
    -1.0573  -0.9746  -0.9605  -0.9484  -0.9435  -0.8990  -0.8747  -0.8597
    -0.8468  -0.8437  -0.7924  -0.7514  -0.7396  -0.6977  -0.6817  -0.6710
    -0.5362  -0.5354  -0.5322  -0.5044  -0.3083  -0.2941  -0.2836  -0.2375
    -0.0117  -0.0042   0.0030   0.0364   0.1450   0.1890   0.2786   0.2793
     0.2936   0.3322   0.3746   0.4841   0.5350   0.5461   0.5563   0.6327
     0.7216   0.7468   0.8014   0.8502   0.8601   0.8641   0.8943   0.8943
     0.8974   0.9162   0.9549   1.0796   1.1133   1.1178   1.1581   1.1642
     1.1905   1.1918   1.2002   1.2229   1.2401   1.2542   1.2552   1.2762
     1.3050   1.3053   1.3145   1.3561   1.3855   1.4040   1.4062   1.4284
     1.4493   1.5335   1.5591   1.5631   1.5899   1.5965   1.6380   1.6552
     1.6684   1.6734   1.6881   1.7375   1.7437   1.7670   1.8023   1.8131
     1.9608   1.9830   2.0532   2.0961   2.1685   2.1708   2.1786   2.1807
     2.7197   2.7257   2.7444   2.7511   3.2662   3.3124   3.3399   3.3948
     3.4550   3.4583   3.6021   3.6308   3.6864   3.6873   5.2799   5.4971
     5.6509   6.1722   6.5875   6.6036   6.6150   6.6438   6.7815   6.8566
     6.9022   6.9389   7.2492   7.3795   7.4631   7.6984   7.9242   8.0995
     8.1056   8.4422   8.5068   8.5136   8.5630   8.5982   8.6076   8.6491
     8.7429   8.8036   8.8612   9.0225   9.0429   9.2727   9.3128   9.3187
     9.3670   9.3899

          k =-0.5000-1.0472 0.0000 ( 73020 PWs)   bands (ev):

   -38.2765 -37.9495 -35.9123 -35.5468 -24.5609 -24.1469 -22.8686 -22.8417
   -22.8390 -22.8158 -22.7563 -22.6802 -18.9383 -18.6221 -18.5954 -18.4752
   -18.2905 -18.1165 -17.3449 -17.1674 -17.0637 -16.9927 -16.8280 -16.6665
   -14.9878 -14.9176 -14.9004 -14.8867 -14.8141 -14.7656 -14.7588 -14.6872
   -14.6834 -14.6405 -14.6026 -14.5877 -14.5717 -14.5593 -14.5569 -14.5083
   -14.4921 -14.3821 -14.3741 -14.3313 -14.1722 -14.1432 -14.1226 -14.1220
   -14.1218 -14.1212 -14.0230 -14.0082 -13.7924 -13.6086 -10.0624  -9.9407
    -9.8580  -9.7705  -9.4067  -9.3437  -8.6538  -8.6276  -8.6032  -8.5799
    -8.5298  -8.4238  -8.3287  -8.3053  -8.3040  -8.2828  -8.2460  -8.2269
    -8.2227  -8.1982  -8.1974  -8.1926  -8.0417  -8.0345  -4.0456  -3.9311
    -3.8369  -3.7582  -3.7427  -3.7113  -3.6124  -3.5022  -3.2677  -3.2505
    -3.2495  -3.2488  -3.2373  -3.1057  -2.5939  -2.5717  -2.4849  -2.4737
    -2.4570  -2.4046  -2.3667  -2.2959  -2.2590  -2.2344  -2.2315  -2.2130
    -2.1884  -2.1822  -2.1738  -2.1294  -2.1216  -2.0983  -1.9400  -1.9288
    -1.9085  -1.8889  -1.7198  -1.6643  -1.6531  -1.6251  -1.5623  -1.5100
    -1.4865  -1.4719  -1.3647  -1.3389  -1.3353  -1.3178  -1.2623  -1.1474
    -1.0625  -1.0434  -1.0335  -0.9599  -0.9552  -0.9525  -0.9414  -0.9284
    -0.9180  -0.9141  -0.7947  -0.7743  -0.7480  -0.7419  -0.7195  -0.6721
    -0.5805  -0.5742  -0.5546  -0.5276  -0.2957  -0.2838  -0.2756  -0.2385
     0.0088   0.0571   0.0638   0.0684   0.2541   0.2672   0.2889   0.3021
     0.3425   0.3570   0.3583   0.5321   0.5501   0.5882   0.5930   0.6027
     0.6581   0.7097   0.8373   0.8984   0.9202   0.9593   0.9597   0.9768
     1.0101   1.0251   1.0453   1.1044   1.1603   1.1608   1.1611   1.1870
     1.2322   1.2418   1.2478   1.2616   1.2650   1.3007   1.3141   1.3306
     1.3400   1.3572   1.3860   1.4013   1.4171   1.4222   1.4320   1.4404
     1.5595   1.6241   1.6495   1.6610   1.6756   1.6910   1.6930   1.7149
     1.7328   1.8103   1.8765   1.9537   1.9586   1.9890   1.9999   2.0005
     2.0025   2.0962   2.1677   2.2106   2.3479   2.3487   2.3569   2.3585
     2.5172   2.5235   2.5318   2.5386   3.2789   3.3538   3.3660   3.4631
     3.4634   3.5356   3.6634   3.6969   3.7335   3.7447   5.1379   5.3858
     6.2621   6.3574   6.5139   6.5306   6.5427   6.5672   6.6063   6.7647
     6.8454   6.8672   7.1176   7.3860   7.3988   7.5166   8.0694   8.1650
     8.1709   8.4910   8.6870   8.9552   8.9699   9.0695   9.1480   9.1529
     9.1598   9.1969   9.2257   9.2370   9.2600   9.3189   9.4653   9.4945
     9.5439   9.5530

     the Fermi energy is     2.5287 ev

!    total energy              =   -3711.60355309 Ry
     Harris-Foulkes estimate   =   -3711.60355312 Ry
     estimated scf accuracy    <          9.4E-09 Ry

     The total energy is the sum of the following terms:

     one-electron contribution =  -54502.87620200 Ry
     hartree contribution      =   27553.31396104 Ry
     xc contribution           =   -1263.75461048 Ry
     ewald contribution        =   24501.72789619 Ry
     smearing contrib. (-TS)   =      -0.01459783 Ry

     convergence has been achieved in  35 iterations

     negative rho (up, down):  9.198E-02 0.000E+00

     Forces acting on atoms (cartesian axes, Ry/au):

     atom    1 type  4   force =    -0.00000564    0.00000000   -0.00011779
     atom    2 type  4   force =     0.00000564    0.00000000   -0.00011779
     atom    3 type  3   force =    -0.00000780    0.00000000   -0.00014799
     atom    4 type  3   force =     0.00000780    0.00000000   -0.00014799
     atom    5 type  4   force =     0.00000563    0.00000000   -0.00002855
     atom    6 type  4   force =    -0.00000563    0.00000000   -0.00002855
     atom    7 type  1   force =     0.00000000    0.00000000   -0.00020079
     atom    8 type  1   force =     0.00000000    0.00000000   -0.00019116
     atom    9 type  3   force =     0.00002576    0.00000000    0.00001121
     atom   10 type  3   force =    -0.00002576    0.00000000    0.00001121
     atom   11 type  4   force =     0.00000000    0.00000000    0.00029993
     atom   12 type  4   force =     0.00000271    0.00000000    0.00030174
     atom   13 type  4   force =    -0.00000271    0.00000000    0.00030174
     atom   14 type  4   force =     0.00000000    0.00000000    0.00045502
     atom   15 type  2   force =     0.00000000    0.00000000   -0.00113910
     atom   16 type  5   force =     0.00000000    0.00000000   -0.00171698
     atom   17 type  4   force =     0.00019020    0.00000000    0.00205962
     atom   18 type  4   force =    -0.00019020    0.00000000    0.00205962
     atom   19 type  4   force =     0.00000000    0.00000000    0.00231541
     atom   20 type  4   force =     0.00000000    0.00000000    0.00286544
     atom   21 type  3   force =    -0.00010240    0.00000000   -0.00232552
     atom   22 type  3   force =     0.00010240    0.00000000   -0.00232552
     atom   23 type  1   force =     0.00000000    0.00000000   -0.00680440
     atom   24 type  1   force =     0.00000000    0.00000000   -0.00778325
     atom   25 type  4   force =    -0.00100934    0.00000000    0.00661542
     atom   26 type  4   force =     0.00100934    0.00000000    0.00661542
     atom   27 type  4   force =    -0.00063392    0.00000000    0.01723637
     atom   28 type  4   force =     0.00063392    0.00000000    0.01723637
     atom   29 type  3   force =     0.00388203    0.00000000   -0.01814415
     atom   30 type  3   force =    -0.00388203    0.00000000   -0.01814415
     atom   31 type  4   force =    -0.01071441    0.00000000    0.03718244
     atom   32 type  4   force =     0.01071441    0.00000000    0.03718244
     atom   33 type  1   force =     0.00000000    0.00000000   -0.03704580
     atom   34 type  1   force =     0.00000000    0.00000000   -0.02449143
     atom   35 type  3   force =    -0.00961912    0.00000000   -0.00447281
     atom   36 type  3   force =     0.00961912    0.00000000   -0.00447281
     atom   37 type  4   force =     0.00000000    0.00000000    0.01291212
     atom   38 type  4   force =     0.00000000    0.00000000    0.01675865
     atom   39 type  4   force =     0.00217991    0.00000000    0.00878982
     atom   40 type  4   force =    -0.00217991    0.00000000    0.00878982
     atom   41 type  5   force =     0.00000000    0.00000000   -0.03858895
     atom   42 type  2   force =     0.00000000    0.00000000   -0.02964529
     atom   43 type  4   force =     0.00000000    0.00000000    0.00605457
     atom   44 type  4   force =     0.00049198    0.00000000    0.00300482
     atom   45 type  4   force =    -0.00049198    0.00000000    0.00300482
     atom   46 type  4   force =     0.00000000    0.00000000    0.00439543
     atom   47 type  3   force =     0.00056491    0.00000000    0.00114953
     atom   48 type  3   force =    -0.00056491    0.00000000    0.00114953
     atom   49 type  1   force =     0.00000000    0.00000000   -0.00093076
     atom   50 type  1   force =     0.00000000    0.00000000   -0.00110096
     atom   51 type  4   force =     0.00008007    0.00000000    0.00076015
     atom   52 type  4   force =    -0.00008007    0.00000000    0.00076015
     atom   53 type  3   force =    -0.00004301    0.00000000   -0.00031875
     atom   54 type  3   force =     0.00004301    0.00000000   -0.00031875
     atom   55 type  4   force =    -0.00000303    0.00000000    0.00023560
     atom   56 type  4   force =     0.00000303    0.00000000    0.00023560

     Total force =     0.098847     Total SCF correction =     0.000380


     Computing stress (Cartesian axis) and pressure


     negative rho (up, down):  9.198E-02 0.000E+00
          total   stress  (Ry/bohr**3)                   (kbar)     P=       -7.06
  -0.00008170   0.00000000   0.00000000          -12.02        0.00        0.00
   0.00000000  -0.00003674   0.00000000            0.00       -5.40        0.00
   0.00000000   0.00000000  -0.00002546            0.00        0.00       -3.75

 
     init_run     :     30.58s CPU     31.22s WALL (       1 calls)
     electrons    :   2089.79s CPU   2167.40s WALL (       1 calls)
     forces       :     12.08s CPU     12.75s WALL (       1 calls)
     stress       :    128.16s CPU    130.03s WALL (       1 calls)

     Called by init_run:
     wfcinit      :     25.73s CPU     26.01s WALL (       1 calls)
     potinit      :      1.02s CPU      1.07s WALL (       1 calls)
     hinit0       :      1.61s CPU      1.63s WALL (       1 calls)

     Called by electrons:
     c_bands      :   1712.53s CPU   1750.54s WALL (      35 calls)
     sum_band     :    284.71s CPU    306.05s WALL (      35 calls)
     v_of_rho     :      5.35s CPU      5.42s WALL (      36 calls)
     newd         :     44.64s CPU     62.75s WALL (      36 calls)
     mix_rho      :     43.10s CPU     43.39s WALL (      35 calls)

     Called by c_bands:
     init_us_2    :      8.86s CPU      8.90s WALL (    1825 calls)
     cegterg      :   1635.64s CPU   1672.90s WALL (     875 calls)

     Called by sum_band:
     sum_band:bec :      0.98s CPU      0.98s WALL (     875 calls)
     addusdens    :     33.58s CPU     52.85s WALL (      35 calls)

     Called by *egterg:
     h_psi        :    830.95s CPU    844.59s WALL (    4234 calls)
     s_psi        :    103.49s CPU    104.02s WALL (    4234 calls)
     g_psi        :      1.49s CPU      1.51s WALL (    3334 calls)
     cdiaghg      :    310.70s CPU    311.77s WALL (    4209 calls)

     Called by h_psi:
     h_psi:calbec :    135.58s CPU    136.05s WALL (    4234 calls)
     vloc_psi     :    588.51s CPU    595.26s WALL (    4234 calls)
     add_vuspsi   :    103.87s CPU    104.32s WALL (    4234 calls)

     General routines
     calbec       :    236.15s CPU    236.94s WALL (    5234 calls)
     fft          :      5.51s CPU      5.55s WALL (     491 calls)
     ffts         :     24.30s CPU     24.52s WALL (   19129 calls)
     fftw         :    689.61s CPU    697.34s WALL ( 1242218 calls)
     interpolate  :      0.47s CPU      0.51s WALL (      36 calls)
 
     Parallel routines
     fft_scatt_xy :     63.77s CPU     64.55s WALL ( 1261838 calls)
     fft_scatt_yz :    494.79s CPU    500.16s WALL ( 1261838 calls)
 
     PWSCF        :  37m41.70s CPU  39m 2.54s WALL

 
   This run was terminated on:  17:16:43  25May2021            

=------------------------------------------------------------------------------=
   JOB DONE.
=------------------------------------------------------------------------------=
[1621977403.961483] [holy7c08607:192129:0]          mpool.c:43   UCX  WARN  object 0x3c18f00 was not returned to mpool ucp_requests
[1621977403.964171] [holy7c08609:109852:0]          mpool.c:43   UCX  WARN  object 0x45cc600 was not returned to mpool ucp_requests
[1621977403.964928] [holy7c08609:109851:0]          mpool.c:43   UCX  WARN  object 0x3f95600 was not returned to mpool ucp_requests
[1621977403.959712] [holy7c08607:192131:0]          mpool.c:43   UCX  WARN  object 0x4612380 was not returned to mpool ucp_requests
[1621977403.959731] [holy7c08607:192131:0]          mpool.c:43   UCX  WARN  object 0x4612540 was not returned to mpool ucp_requests
[1621977403.962550] [holy7c08610:227098:0]          mpool.c:43   UCX  WARN  object 0x4431c40 was not returned to mpool ucp_requests
[1621977403.962576] [holy7c08610:227098:0]          mpool.c:43   UCX  WARN  object 0x4432180 was not returned to mpool ucp_requests
[1621977403.964575] [holy7c08607:192130:0]          mpool.c:43   UCX  WARN  object 0x29586c0 was not returned to mpool ucp_requests
[1621977403.977643] [holy7c08612:141748:0]          mpool.c:43   UCX  WARN  object 0x2ff83c0 was not returned to mpool ucp_requests
[1621977403.967585] [holy7c08610:227101:0]          mpool.c:43   UCX  WARN  object 0x3f32880 was not returned to mpool ucp_requests
[1621977403.973771] [holy7c08610:227103:0]          mpool.c:43   UCX  WARN  object 0x3f9f640 was not returned to mpool ucp_requests
[1621977403.973788] [holy7c08610:227103:0]          mpool.c:43   UCX  WARN  object 0x3f9f9c0 was not returned to mpool ucp_requests
[1621977403.981252] [holy7c08612:141752:0]          mpool.c:43   UCX  WARN  object 0x2dcc000 was not returned to mpool ucp_requests
[1621977403.981319] [holy7c08612:141750:0]          mpool.c:43   UCX  WARN  object 0x37990c0 was not returned to mpool ucp_requests
[1621977403.981345] [holy7c08612:141750:0]          mpool.c:43   UCX  WARN  object 0x3799440 was not returned to mpool ucp_requests
[1621977403.981349] [holy7c08612:141750:0]          mpool.c:43   UCX  WARN  object 0x3799600 was not returned to mpool ucp_requests
[1621977403.991693] [holy7c08612:141747:0]          mpool.c:43   UCX  WARN  object 0x2e23440 was not returned to mpool ucp_requests
[1621977403.988666] [holy7c08612:141753:0]          mpool.c:43   UCX  WARN  object 0x43dc880 was not returned to mpool ucp_requests
