
     Program PWSCF v.6.5 starts on 28May2021 at  0: 0:37 

     This program is part of the open-source Quantum ESPRESSO suite
     for quantum simulation of materials; please cite
         "P. Giannozzi et al., J. Phys.:Condens. Matter 21 395502 (2009);
         "P. Giannozzi et al., J. Phys.:Condens. Matter 29 465901 (2017);
          URL http://www.quantum-espresso.org", 
     in publications or presentations arising from this work. More details at
     http://www.quantum-espresso.org/quote

     Parallel version (MPI), running on    32 processors

     MPI processes distributed on     4 nodes
     R & G space division:  proc/nbgrp/npool/nimage =      32
     Reading input from YCBCO50_212_Y_cleave_1.5_sep.pwi
Warning: card &IONS ignored
Warning: card     ION_DYNAMICS = 'BFGS' ignored
Warning: card / ignored
Warning: card &CELL ignored
Warning: card     CELL_DYNAMICS = 'BFGS' ignored
Warning: card     PRESS_CONV_THR = 5 ignored
Warning: card / ignored

     Current dimensions of program PWSCF are:
     Max number of different atomic species (ntypx) = 10
     Max number of k-points (npk) =  40000
     Max angular momentum in pseudopotentials (lmaxx) =  3

     Subspace diagonalization in iterative solution of the eigenvalue problem:
     one sub-group per band group will be used
     scalapack distributed-memory algorithm (size of sub-group:  5*  5 procs)

     Message from routine setup:
     using ibrav=0 with symmetry is DISCOURAGED, use correct ibrav instead
 
     Parallelization info
     --------------------
     sticks:   dense  smooth     PW     G-vecs:    dense   smooth      PW
     Min         188      62     17                91886    17674    2637
     Max         189      63     18                91916    17721    2676
     Sum        6019    2003    565              2940889   566335   85181
 


     bravais-lattice index     =            0
     lattice parameter (alat)  =      14.8133  a.u.
     unit-cell volume          =    9014.2378 (a.u.)^3
     number of atoms/cell      =           56
     number of atomic types    =            5
     number of electrons       =       456.00
     number of Kohn-Sham states=          274
     kinetic-energy cutoff     =      60.0000  Ry
     charge density cutoff     =     720.0000  Ry
     convergence threshold     =      1.0E-08
     mixing beta               =       0.5000
     number of iterations used =           10  local-TF  mixing
     Exchange-correlation= SLA PW PBE PBE
                           (   1   4   3   4   0   0   0)

     celldm(1)=  14.813271  celldm(2)=   0.000000  celldm(3)=   0.000000
     celldm(4)=   0.000000  celldm(5)=   0.000000  celldm(6)=   0.000000

     crystal axes: (cart. coord. in units of alat)
               a(1) = (   1.000000   0.000000   0.000000 )  
               a(2) = (   0.000000   0.477453   0.000000 )  
               a(3) = (   0.000000   0.000000   5.808256 )  

     reciprocal axes: (cart. coord. in units 2 pi/alat)
               b(1) = (  1.000000  0.000000  0.000000 )  
               b(2) = (  0.000000  2.094448  0.000000 )  
               b(3) = (  0.000000  0.000000  0.172169 )  


     PseudoPot. # 1 for Ba read from file:
     ./pseudo/Ba.pbe-nsp-van.UPF
     MD5 check sum: 2b9c31dd849566dd297d80989662b7a0
     Pseudo is Ultrasoft + core correction, Zval = 10.0
     Generated by new atomic code, or converted to UPF format
     Using radial grid of  907 points,  6 beta functions with: 
                l(1) =   0
                l(2) =   0
                l(3) =   1
                l(4) =   1
                l(5) =   2
                l(6) =   2
     Q(r) pseudized with  6 coefficients,  rinner =    1.200   1.200   1.200
                                                       1.200   1.200

     PseudoPot. # 2 for Ca read from file:
     ./pseudo/Ca.pbe-nsp-van.UPF
     MD5 check sum: 6471098428ff4fa451746d08035ff179
     Pseudo is Ultrasoft + core correction, Zval = 10.0
     Generated by new atomic code, or converted to UPF format
     Using radial grid of  845 points,  6 beta functions with: 
                l(1) =   0
                l(2) =   0
                l(3) =   1
                l(4) =   1
                l(5) =   2
                l(6) =   2
     Q(r) pseudized with  6 coefficients,  rinner =    1.200   1.200   1.200
                                                       1.200   1.200

     PseudoPot. # 3 for Cu read from file:
     ./pseudo/Cu.pbe-n-van_ak.UPF
     MD5 check sum: 34e3282627ffb533726feb647e090d62
     Pseudo is Ultrasoft + core correction, Zval = 11.0
     Generated by new atomic code, or converted to UPF format
     Using radial grid of  867 points,  6 beta functions with: 
                l(1) =   0
                l(2) =   0
                l(3) =   1
                l(4) =   1
                l(5) =   2
                l(6) =   2
     Q(r) pseudized with  8 coefficients,  rinner =    1.400   1.400   1.400
                                                       1.400   1.400

     PseudoPot. # 4 for O  read from file:
     ./pseudo/O.pbe-van_ak.UPF
     MD5 check sum: 783ce7fe4c79b6a4916957118fed0856
     Pseudo is Ultrasoft, Zval =  6.0
     Generated by new atomic code, or converted to UPF format
     Using radial grid of  737 points,  4 beta functions with: 
                l(1) =   0
                l(2) =   0
                l(3) =   1
                l(4) =   1
     Q(r) pseudized with  8 coefficients,  rinner =    0.800   0.800   0.800


     PseudoPot. # 5 for Y  read from file:
     ./pseudo/Y.pbe-nsp-van.UPF
     MD5 check sum: 4412fed3ab108fed87a1b7d6a69a4a38
     Pseudo is Ultrasoft + core correction, Zval = 11.0
     Generated by new atomic code, or converted to UPF format
     Using radial grid of  885 points,  6 beta functions with: 
                l(1) =   0
                l(2) =   0
                l(3) =   1
                l(4) =   1
                l(5) =   2
                l(6) =   2
     Q(r) pseudized with  6 coefficients,  rinner =    1.200   1.200   1.200
                                                       1.200   1.200

     atomic species   valence    mass     pseudopotential
        Ba            10.00   137.32700     Ba( 1.00)
        Ca            10.00    40.07800     Ca( 1.00)
        Cu            11.00    63.54600     Cu( 1.00)
        O              6.00    15.99900     O ( 1.00)
        Y             11.00    88.90584     Y ( 1.00)

      4 Sym. Ops. (no inversion) found ( 2 have fractional translation)



   Cartesian axes

     site n.     atom                  positions (alat units)
         1           O   tau(   1) = (  -0.0008343   0.2387265  -0.0222443  )
         2           O   tau(   2) = (   0.5008340   0.2387265  -0.0222443  )
         3           Cu  tau(   3) = (   0.5017257   0.0000000   0.0109608  )
         4           Cu  tau(   4) = (  -0.0017260   0.0000000   0.0109608  )
         5           O   tau(   5) = (  -0.0028933   0.0000000   0.2506504  )
         6           O   tau(   6) = (   0.5028929   0.0000000   0.2506504  )
         7           Ba  tau(   7) = (   0.7499995   0.2387265   0.2749435  )
         8           Ba  tau(   8) = (   0.2499998   0.2387265   0.2755214  )
         9           Cu  tau(   9) = (   0.4980963   0.0000000   0.5208446  )
        10           Cu  tau(  10) = (   0.0019033   0.0000000   0.5208446  )
        11           O   tau(  11) = (   0.2499998   0.0000000   0.5341884  )
        12           O   tau(  12) = (   0.5083351   0.2387265   0.5569851  )
        13           O   tau(  13) = (  -0.0083354   0.2387265   0.5569851  )
        14           O   tau(  14) = (   0.7499995   0.0000000   0.5573831  )
        15           Ca  tau(  15) = (   0.2499998   0.2387265   0.7436937  )
        16           Y   tau(  16) = (   0.7499995   0.2387265   0.7469544  )
        17           O   tau(  17) = (  -0.0063798   0.2387265   0.9248530  )
        18           O   tau(  18) = (   0.5063794   0.2387265   0.9248530  )
        19           O   tau(  19) = (   0.7499995   0.0000000   0.9338544  )
        20           O   tau(  20) = (   0.2499998   0.0000000   0.9461329  )
        21           Cu  tau(  21) = (   0.0015717   0.0000000   0.9686860  )
        22           Cu  tau(  22) = (   0.4984280   0.0000000   0.9686860  )
        23           Ba  tau(  23) = (   0.2499998   0.2387265   1.2085224  )
        24           Ba  tau(  24) = (   0.7499995   0.2387265   1.2233294  )
        25           O   tau(  25) = (   0.0063772   0.0000000   1.2547537  )
        26           O   tau(  26) = (   0.4936224   0.0000000   1.2547537  )
        27           O   tau(  27) = (   0.5384045   0.2387265   1.4952521  )
        28           O   tau(  28) = (  -0.0384049   0.2387265   1.4952521  )
        29           Cu  tau(  29) = (   0.5006120   0.0000000   1.4952546  )
        30           Cu  tau(  30) = (  -0.0006123   0.0000000   1.4952546  )
        31           O   tau(  31) = (   0.4936212   0.0000000   1.7357531  )
        32           O   tau(  32) = (   0.0063785   0.0000000   1.7357531  )
        33           Ba  tau(  33) = (   0.7499995   0.2387265   1.7671824  )
        34           Ba  tau(  34) = (   0.2499998   0.2387265   1.7819920  )
        35           Cu  tau(  35) = (   0.4984280   0.0000000   2.0218232  )
        36           Cu  tau(  36) = (   0.0015717   0.0000000   2.0218232  )
        37           O   tau(  37) = (   0.2499998   0.0000000   2.0443814  )
        38           O   tau(  38) = (   0.7499995   0.0000000   2.0566511  )
        39           O   tau(  39) = (   0.5063781   0.2387265   2.0656562  )
        40           O   tau(  40) = (  -0.0063785   0.2387265   2.0656562  )
        41           Y   tau(  41) = (   0.7499995   0.2387265   2.2435498  )
        42           Ca  tau(  42) = (   0.2499998   0.2387265   2.2468194  )
        43           O   tau(  43) = (   0.7499995   0.0000000   2.6244719  )
        44           O   tau(  44) = (  -0.0083354   0.2387265   2.6248738  )
        45           O   tau(  45) = (   0.5083351   0.2387265   2.6248738  )
        46           O   tau(  46) = (   0.2499998   0.0000000   2.6476718  )
        47           Cu  tau(  47) = (   0.0019059   0.0000000   2.6610054  )
        48           Cu  tau(  48) = (   0.4980938   0.0000000   2.6610054  )
        49           Ba  tau(  49) = (   0.2499998   0.2387265   2.9063451  )
        50           Ba  tau(  50) = (   0.7499995   0.2387265   2.9068873  )
        51           O   tau(  51) = (  -0.0028895   0.0000000   2.9311944  )
        52           O   tau(  52) = (   0.5028891   0.0000000   2.9311944  )
        53           Cu  tau(  53) = (   0.5017844   0.0000000   3.1708789  )
        54           Cu  tau(  54) = (  -0.0017847   0.0000000   3.1708789  )
        55           O   tau(  55) = (   0.5008990   0.2387265   3.2040854  )
        56           O   tau(  56) = (  -0.0008994   0.2387265   3.2040854  )

     number of k points=    25  Gaussian smearing, width (Ry)=  0.0100
                       cart. coord. in units 2pi/alat
        k(    1) = (   0.0000000   0.0000000   0.0000000), wk =   0.0312500
        k(    2) = (   0.0000000   0.2618060   0.0000000), wk =   0.0625000
        k(    3) = (   0.0000000   0.5236121   0.0000000), wk =   0.0625000
        k(    4) = (   0.0000000   0.7854181   0.0000000), wk =   0.0625000
        k(    5) = (   0.0000000  -1.0472241   0.0000000), wk =   0.0312500
        k(    6) = (   0.1250000   0.0000000   0.0000000), wk =   0.0625000
        k(    7) = (   0.1250000   0.2618060   0.0000000), wk =   0.1250000
        k(    8) = (   0.1250000   0.5236121   0.0000000), wk =   0.1250000
        k(    9) = (   0.1250000   0.7854181   0.0000000), wk =   0.1250000
        k(   10) = (   0.1250000  -1.0472241   0.0000000), wk =   0.0625000
        k(   11) = (   0.2500000   0.0000000   0.0000000), wk =   0.0625000
        k(   12) = (   0.2500000   0.2618060   0.0000000), wk =   0.1250000
        k(   13) = (   0.2500000   0.5236121   0.0000000), wk =   0.1250000
        k(   14) = (   0.2500000   0.7854181   0.0000000), wk =   0.1250000
        k(   15) = (   0.2500000  -1.0472241   0.0000000), wk =   0.0625000
        k(   16) = (   0.3750000   0.0000000   0.0000000), wk =   0.0625000
        k(   17) = (   0.3750000   0.2618060   0.0000000), wk =   0.1250000
        k(   18) = (   0.3750000   0.5236121   0.0000000), wk =   0.1250000
        k(   19) = (   0.3750000   0.7854181   0.0000000), wk =   0.1250000
        k(   20) = (   0.3750000  -1.0472241   0.0000000), wk =   0.0625000
        k(   21) = (  -0.5000000   0.0000000   0.0000000), wk =   0.0312500
        k(   22) = (  -0.5000000   0.2618060   0.0000000), wk =   0.0625000
        k(   23) = (  -0.5000000   0.5236121   0.0000000), wk =   0.0625000
        k(   24) = (  -0.5000000   0.7854181   0.0000000), wk =   0.0625000
        k(   25) = (  -0.5000000  -1.0472241   0.0000000), wk =   0.0312500

     Dense  grid:  2940889 G-vectors     FFT dimensions: ( 128,  64, 750)

     Smooth grid:   566335 G-vectors     FFT dimensions: (  80,  36, 432)

     Estimated max dynamical RAM per process >     852.05 MB

     Estimated total dynamical RAM >      26.63 GB

     Initial potential from superposition of free atoms

     starting charge  455.69457, renormalised to  456.00000

     negative rho (up, down):  9.356E-02 0.000E+00
     Starting wfcs are  396 randomized atomic wfcs

     total cpu time spent up to now is       27.2 secs

     Self-consistent Calculation

     iteration #  1     ecut=    60.00 Ry     beta= 0.50
     Davidson diagonalization with overlap
     ethr =  1.00E-02,  avg # of iterations =  2.0

     negative rho (up, down):  8.591E-02 0.000E+00

     total cpu time spent up to now is       75.5 secs

     total energy              =   -3708.34894860 Ry
     Harris-Foulkes estimate   =   -3716.31761547 Ry
     estimated scf accuracy    <      30.73031729 Ry

     iteration #  2     ecut=    60.00 Ry     beta= 0.50
     Davidson diagonalization with overlap
     ethr =  6.74E-03,  avg # of iterations =  2.0

     negative rho (up, down):  8.527E-02 0.000E+00

     total cpu time spent up to now is      123.0 secs

     total energy              =   -3711.01974217 Ry
     Harris-Foulkes estimate   =   -3712.18198949 Ry
     estimated scf accuracy    <       9.59304214 Ry

     iteration #  3     ecut=    60.00 Ry     beta= 0.50
     Davidson diagonalization with overlap
     ethr =  2.10E-03,  avg # of iterations =  1.0

     negative rho (up, down):  8.543E-02 0.000E+00

     total cpu time spent up to now is      166.5 secs

     total energy              =   -3711.41239749 Ry
     Harris-Foulkes estimate   =   -3711.78393018 Ry
     estimated scf accuracy    <      10.04747231 Ry

     iteration #  4     ecut=    60.00 Ry     beta= 0.50
     Davidson diagonalization with overlap
     ethr =  2.10E-03,  avg # of iterations =  1.0

     negative rho (up, down):  8.607E-02 0.000E+00

     total cpu time spent up to now is      210.6 secs

     total energy              =   -3711.37248125 Ry
     Harris-Foulkes estimate   =   -3711.61213936 Ry
     estimated scf accuracy    <       3.18190491 Ry

     iteration #  5     ecut=    60.00 Ry     beta= 0.50
     Davidson diagonalization with overlap
     ethr =  6.98E-04,  avg # of iterations =  2.8

     negative rho (up, down):  8.741E-02 0.000E+00

     total cpu time spent up to now is      258.5 secs

     total energy              =   -3711.33108199 Ry
     Harris-Foulkes estimate   =   -3711.47712061 Ry
     estimated scf accuracy    <       1.34729310 Ry

     iteration #  6     ecut=    60.00 Ry     beta= 0.50
     Davidson diagonalization with overlap
     ethr =  2.95E-04,  avg # of iterations =  8.2

     negative rho (up, down):  8.800E-02 0.000E+00

     total cpu time spent up to now is      326.1 secs

     total energy              =   -3711.37468846 Ry
     Harris-Foulkes estimate   =   -3711.40497658 Ry
     estimated scf accuracy    <       2.75544734 Ry

     iteration #  7     ecut=    60.00 Ry     beta= 0.50
     Davidson diagonalization with overlap
     ethr =  2.95E-04,  avg # of iterations =  1.7

     negative rho (up, down):  8.904E-02 0.000E+00

     total cpu time spent up to now is      371.1 secs

     total energy              =   -3711.35062797 Ry
     Harris-Foulkes estimate   =   -3711.38880704 Ry
     estimated scf accuracy    <       1.27401984 Ry

     iteration #  8     ecut=    60.00 Ry     beta= 0.50
     Davidson diagonalization with overlap
     ethr =  2.79E-04,  avg # of iterations =  2.2

     negative rho (up, down):  8.945E-02 0.000E+00

     total cpu time spent up to now is      417.4 secs

     total energy              =   -3711.34281551 Ry
     Harris-Foulkes estimate   =   -3711.37326085 Ry
     estimated scf accuracy    <       1.81686482 Ry

     iteration #  9     ecut=    60.00 Ry     beta= 0.50
     Davidson diagonalization with overlap
     ethr =  2.79E-04,  avg # of iterations =  1.5

     negative rho (up, down):  8.974E-02 0.000E+00

     total cpu time spent up to now is      463.8 secs

     total energy              =   -3711.34247139 Ry
     Harris-Foulkes estimate   =   -3711.35507402 Ry
     estimated scf accuracy    <       0.65847079 Ry

     iteration # 10     ecut=    60.00 Ry     beta= 0.50
     Davidson diagonalization with overlap
     ethr =  1.44E-04,  avg # of iterations =  5.6

     negative rho (up, down):  8.942E-02 0.000E+00

     total cpu time spent up to now is      521.3 secs

     total energy              =   -3711.33729046 Ry
     Harris-Foulkes estimate   =   -3711.34652389 Ry
     estimated scf accuracy    <       0.28045779 Ry

     iteration # 11     ecut=    60.00 Ry     beta= 0.50
     Davidson diagonalization with overlap
     ethr =  6.15E-05,  avg # of iterations =  7.2

     negative rho (up, down):  8.927E-02 0.000E+00

     total cpu time spent up to now is      582.0 secs

     total energy              =   -3711.33827974 Ry
     Harris-Foulkes estimate   =   -3711.34053968 Ry
     estimated scf accuracy    <       0.14242077 Ry

     iteration # 12     ecut=    60.00 Ry     beta= 0.50
     Davidson diagonalization with overlap
     ethr =  3.12E-05,  avg # of iterations =  4.6

     negative rho (up, down):  8.914E-02 0.000E+00

     total cpu time spent up to now is      634.2 secs

     total energy              =   -3711.33809114 Ry
     Harris-Foulkes estimate   =   -3711.33921807 Ry
     estimated scf accuracy    <       0.13653154 Ry

     iteration # 13     ecut=    60.00 Ry     beta= 0.50
     Davidson diagonalization with overlap
     ethr =  2.99E-05,  avg # of iterations =  1.0

     negative rho (up, down):  8.876E-02 0.000E+00

     total cpu time spent up to now is      677.1 secs

     total energy              =   -3711.33583908 Ry
     Harris-Foulkes estimate   =   -3711.33835195 Ry
     estimated scf accuracy    <       0.12876080 Ry

     iteration # 14     ecut=    60.00 Ry     beta= 0.50
     Davidson diagonalization with overlap
     ethr =  2.82E-05,  avg # of iterations =  1.3

     negative rho (up, down):  8.852E-02 0.000E+00

     total cpu time spent up to now is      720.7 secs

     total energy              =   -3711.33399541 Ry
     Harris-Foulkes estimate   =   -3711.33628937 Ry
     estimated scf accuracy    <       0.10100661 Ry

     iteration # 15     ecut=    60.00 Ry     beta= 0.50
     Davidson diagonalization with overlap
     ethr =  2.22E-05,  avg # of iterations =  2.2

     negative rho (up, down):  9.823E-02 0.000E+00

     total cpu time spent up to now is      767.0 secs

     total energy              =   -3711.33127550 Ry
     Harris-Foulkes estimate   =   -3711.33439849 Ry
     estimated scf accuracy    <       0.07483763 Ry

     iteration # 16     ecut=    60.00 Ry     beta= 0.50
     Davidson diagonalization with overlap
     ethr =  1.64E-05,  avg # of iterations =  9.5

     negative rho (up, down):  9.806E-02 0.000E+00

     total cpu time spent up to now is      834.6 secs

     total energy              =   -3711.33071890 Ry
     Harris-Foulkes estimate   =   -3711.33177289 Ry
     estimated scf accuracy    <       0.03756717 Ry

     iteration # 17     ecut=    60.00 Ry     beta= 0.50
     Davidson diagonalization with overlap
     ethr =  8.24E-06,  avg # of iterations =  5.0

     negative rho (up, down):  1.133E-01 0.000E+00

     total cpu time spent up to now is      888.4 secs

     total energy              =   -3711.32897981 Ry
     Harris-Foulkes estimate   =   -3711.33094813 Ry
     estimated scf accuracy    <       0.02057411 Ry

     iteration # 18     ecut=    60.00 Ry     beta= 0.50
     Davidson diagonalization with overlap
     c_bands:  2 eigenvalues not converged
     ethr =  4.51E-06,  avg # of iterations = 11.8

     negative rho (up, down):  9.915E-02 0.000E+00

     total cpu time spent up to now is      966.0 secs

     total energy              =   -3711.32827010 Ry
     Harris-Foulkes estimate   =   -3711.32930390 Ry
     estimated scf accuracy    <       0.00948045 Ry

     iteration # 19     ecut=    60.00 Ry     beta= 0.50
     Davidson diagonalization with overlap
     c_bands:  1 eigenvalues not converged
     c_bands:  1 eigenvalues not converged
     ethr =  2.08E-06,  avg # of iterations =  8.0

     negative rho (up, down):  9.080E-02 0.000E+00

     total cpu time spent up to now is     1029.6 secs

     total energy              =   -3711.32819876 Ry
     Harris-Foulkes estimate   =   -3711.32842250 Ry
     estimated scf accuracy    <       0.00418521 Ry

     iteration # 20     ecut=    60.00 Ry     beta= 0.50
     Davidson diagonalization with overlap
     c_bands:  1 eigenvalues not converged
     ethr =  9.18E-07,  avg # of iterations =  7.7

     negative rho (up, down):  9.045E-02 0.000E+00

     total cpu time spent up to now is     1095.1 secs

     total energy              =   -3711.32815008 Ry
     Harris-Foulkes estimate   =   -3711.32824589 Ry
     estimated scf accuracy    <       0.00277439 Ry

     iteration # 21     ecut=    60.00 Ry     beta= 0.50
     Davidson diagonalization with overlap
     ethr =  6.08E-07,  avg # of iterations =  7.0

     negative rho (up, down):  9.069E-02 0.000E+00

     total cpu time spent up to now is     1157.7 secs

     total energy              =   -3711.32815269 Ry
     Harris-Foulkes estimate   =   -3711.32819530 Ry
     estimated scf accuracy    <       0.00063040 Ry

     iteration # 22     ecut=    60.00 Ry     beta= 0.50
     Davidson diagonalization with overlap
     c_bands:  1 eigenvalues not converged
     ethr =  1.38E-07,  avg # of iterations =  5.4

     negative rho (up, down):  9.023E-02 0.000E+00

     total cpu time spent up to now is     1212.9 secs

     total energy              =   -3711.32815121 Ry
     Harris-Foulkes estimate   =   -3711.32818962 Ry
     estimated scf accuracy    <       0.00054966 Ry

     iteration # 23     ecut=    60.00 Ry     beta= 0.50
     Davidson diagonalization with overlap
     ethr =  1.21E-07,  avg # of iterations =  3.9

     negative rho (up, down):  9.137E-02 0.000E+00

     total cpu time spent up to now is     1263.9 secs

     total energy              =   -3711.32818209 Ry
     Harris-Foulkes estimate   =   -3711.32816738 Ry
     estimated scf accuracy    <       0.00013993 Ry

     iteration # 24     ecut=    60.00 Ry     beta= 0.50
     Davidson diagonalization with overlap
     ethr =  3.07E-08,  avg # of iterations =  3.7

     negative rho (up, down):  9.087E-02 0.000E+00

     total cpu time spent up to now is     1314.9 secs

     total energy              =   -3711.32818288 Ry
     Harris-Foulkes estimate   =   -3711.32818617 Ry
     estimated scf accuracy    <       0.00005907 Ry

     iteration # 25     ecut=    60.00 Ry     beta= 0.50
     Davidson diagonalization with overlap
     ethr =  1.30E-08,  avg # of iterations =  1.7

     negative rho (up, down):  9.127E-02 0.000E+00

     total cpu time spent up to now is     1361.1 secs

     total energy              =   -3711.32818405 Ry
     Harris-Foulkes estimate   =   -3711.32818518 Ry
     estimated scf accuracy    <       0.00004829 Ry

     iteration # 26     ecut=    60.00 Ry     beta= 0.50
     Davidson diagonalization with overlap
     ethr =  1.06E-08,  avg # of iterations =  1.0

     negative rho (up, down):  9.132E-02 0.000E+00

     total cpu time spent up to now is     1407.0 secs

     total energy              =   -3711.32818420 Ry
     Harris-Foulkes estimate   =   -3711.32818491 Ry
     estimated scf accuracy    <       0.00001139 Ry

     iteration # 27     ecut=    60.00 Ry     beta= 0.50
     Davidson diagonalization with overlap
     ethr =  2.50E-09,  avg # of iterations =  1.7

     negative rho (up, down):  9.131E-02 0.000E+00

     total cpu time spent up to now is     1452.7 secs

     total energy              =   -3711.32818400 Ry
     Harris-Foulkes estimate   =   -3711.32818461 Ry
     estimated scf accuracy    <       0.00000525 Ry

     iteration # 28     ecut=    60.00 Ry     beta= 0.50
     Davidson diagonalization with overlap
     ethr =  1.15E-09,  avg # of iterations =  2.0

     negative rho (up, down):  9.134E-02 0.000E+00

     total cpu time spent up to now is     1498.9 secs

     total energy              =   -3711.32818420 Ry
     Harris-Foulkes estimate   =   -3711.32818434 Ry
     estimated scf accuracy    <       0.00000164 Ry

     iteration # 29     ecut=    60.00 Ry     beta= 0.50
     Davidson diagonalization with overlap
     ethr =  3.61E-10,  avg # of iterations =  2.9

     negative rho (up, down):  9.138E-02 0.000E+00

     total cpu time spent up to now is     1547.9 secs

     total energy              =   -3711.32818426 Ry
     Harris-Foulkes estimate   =   -3711.32818432 Ry
     estimated scf accuracy    <       0.00000096 Ry

     iteration # 30     ecut=    60.00 Ry     beta= 0.50
     Davidson diagonalization with overlap
     ethr =  2.11E-10,  avg # of iterations =  1.2

     negative rho (up, down):  9.132E-02 0.000E+00

     total cpu time spent up to now is     1591.6 secs

     total energy              =   -3711.32818434 Ry
     Harris-Foulkes estimate   =   -3711.32818428 Ry
     estimated scf accuracy    <       0.00000056 Ry

     iteration # 31     ecut=    60.00 Ry     beta= 0.50
     Davidson diagonalization with overlap
     ethr =  1.24E-10,  avg # of iterations =  1.4

     negative rho (up, down):  9.135E-02 0.000E+00

     total cpu time spent up to now is     1635.5 secs

     total energy              =   -3711.32818431 Ry
     Harris-Foulkes estimate   =   -3711.32818436 Ry
     estimated scf accuracy    <       0.00000068 Ry

     iteration # 32     ecut=    60.00 Ry     beta= 0.50
     Davidson diagonalization with overlap
     ethr =  1.24E-10,  avg # of iterations =  1.0

     negative rho (up, down):  9.133E-02 0.000E+00

     total cpu time spent up to now is     1678.6 secs

     total energy              =   -3711.32818434 Ry
     Harris-Foulkes estimate   =   -3711.32818432 Ry
     estimated scf accuracy    <       0.00000014 Ry

     iteration # 33     ecut=    60.00 Ry     beta= 0.50
     Davidson diagonalization with overlap
     ethr =  3.04E-11,  avg # of iterations =  1.2

     negative rho (up, down):  9.131E-02 0.000E+00

     total cpu time spent up to now is     1725.7 secs

     total energy              =   -3711.32818437 Ry
     Harris-Foulkes estimate   =   -3711.32818434 Ry
     estimated scf accuracy    <       0.00000012 Ry

     iteration # 34     ecut=    60.00 Ry     beta= 0.50
     Davidson diagonalization with overlap
     ethr =  2.54E-11,  avg # of iterations =  1.0

     negative rho (up, down):  9.129E-02 0.000E+00

     total cpu time spent up to now is     1775.2 secs

     total energy              =   -3711.32818439 Ry
     Harris-Foulkes estimate   =   -3711.32818437 Ry
     estimated scf accuracy    <       0.00000004 Ry

     iteration # 35     ecut=    60.00 Ry     beta= 0.50
     Davidson diagonalization with overlap
     ethr =  7.96E-12,  avg # of iterations =  1.6

     negative rho (up, down):  9.129E-02 0.000E+00

     total cpu time spent up to now is     1819.0 secs

     End of self-consistent calculation

          k = 0.0000 0.0000 0.0000 ( 70809 PWs)   bands (ev):

   -41.0033 -38.4096 -38.0218 -35.6489 -22.9420 -22.8118 -22.8094 -22.6835
   -22.6176 -22.5667 -22.4902 -22.4128 -21.0479 -21.0183 -20.9255 -19.4785
   -19.4361 -19.3927 -18.4970 -18.3928 -18.0250 -16.9969 -16.8617 -16.6786
   -16.0272 -15.5241 -15.4079 -15.3229 -14.9806 -14.9212 -14.8759 -14.7900
   -14.7760 -14.7540 -14.6541 -14.5526 -14.4757 -14.4493 -14.4388 -14.3105
   -14.2632 -14.0975 -14.0282 -13.9889 -13.9823 -13.9766 -13.9634 -13.9633
   -13.8836 -13.8134 -13.6934 -13.6816 -13.5494 -13.4560  -8.2744  -8.1855
    -8.0498  -7.9413  -7.9207  -7.8613  -7.8274  -7.8140  -7.7638  -7.7402
    -7.7397  -7.7231  -7.6942  -7.6916  -7.6268  -7.6042  -7.5580  -7.5465
    -7.4851  -7.4599  -7.4417  -7.3724  -7.3050  -7.2185  -3.4253  -2.9798
    -2.8095  -2.7562  -2.6393  -2.5800  -2.3435  -2.1842  -2.1686  -2.1431
    -2.1075  -2.1034  -2.0812  -2.0568  -2.0370  -1.8801  -1.8325  -1.8078
    -1.7942  -1.6598  -1.6260  -1.5536  -1.5255  -1.4884  -1.4585  -1.4269
    -1.3297  -1.3250  -1.3087  -1.2515  -1.1474  -1.1369  -1.1001  -1.0519
    -1.0475  -1.0046  -0.9165  -0.9151  -0.9097  -0.9083  -0.9002  -0.8719
    -0.8672  -0.8660  -0.7579  -0.7482  -0.6896  -0.6516  -0.6299  -0.6273
    -0.5839  -0.5724  -0.4564  -0.3155  -0.2962  -0.2628  -0.2547  -0.2501
    -0.2166  -0.1934  -0.1814  -0.1540  -0.1310  -0.1265  -0.0860  -0.0338
    -0.0053   0.0093   0.0331   0.0529   0.0593   0.0618   0.0620   0.0727
     0.1176   0.1378   0.1818   0.1826   0.2651   0.2780   0.2788   0.2858
     0.3173   0.3178   0.3242   0.3310   0.3879   0.4192   0.4201   0.4318
     0.4327   0.4535   0.5170   0.5326   0.5884   0.5979   0.6028   0.6147
     0.6200   0.6318   0.6697   0.7795   0.8125   0.8204   0.9118   0.9991
     1.0467   1.0959   1.1001   1.1127   1.1140   1.1347   1.1669   1.2445
     1.2483   1.2655   1.2709   1.2941   1.3081   1.3220   1.3510   1.4013
     1.4101   1.4636   1.4881   1.4975   1.5574   1.6485   1.6590   1.6939
     1.7014   1.7308   1.7330   1.7733   1.8074   1.8480   1.8568   1.8588
     1.8936   1.9855   2.0001   2.0897   2.1169   2.1321   2.1377   2.1538
     2.2210   2.3120   2.3133   2.3229   2.3452   2.4061   2.4224   2.4813
     2.5505   2.6286   2.6409   2.7077   2.9330   2.9611   3.4314   4.7282
     4.9748   5.2818   5.2927   5.5991   5.6293   5.6874   5.8868   6.1288
     6.5450   6.6812   6.7287   6.8901   7.0135   7.0427   7.1351   7.3345
     7.3838   7.4204   7.4287   7.4505   7.4727   7.6822   7.8678   8.0398
     8.0738   8.1039   8.1397   8.1986   8.2050   8.3765   8.5027   8.5611
     8.6100   8.7262

          k = 0.0000 0.2618 0.0000 ( 70825 PWs)   bands (ev):

   -41.0012 -38.4082 -38.0191 -35.6472 -22.9184 -22.7907 -22.7873 -22.6644
   -22.5927 -22.5431 -22.4712 -22.3940 -21.0441 -21.0348 -20.9444 -19.4762
   -19.4474 -19.4001 -18.4583 -18.3856 -18.1359 -16.9674 -16.8573 -16.7446
   -15.9778 -15.4865 -15.3149 -15.3018 -14.9231 -14.8546 -14.8197 -14.7875
   -14.7396 -14.7129 -14.6156 -14.5508 -14.4402 -14.4345 -14.3892 -14.2731
   -14.2233 -14.0935 -14.0456 -13.9939 -13.9802 -13.9708 -13.9667 -13.9431
   -13.9216 -13.8084 -13.7382 -13.6968 -13.6097 -13.4875  -8.2834  -8.1759
    -8.0431  -7.9544  -7.8969  -7.8566  -7.8437  -7.8412  -7.8176  -7.8168
    -7.7658  -7.7595  -7.7586  -7.7275  -7.7114  -7.6922  -7.6498  -7.5897
    -7.5854  -7.5455  -7.5103  -7.4842  -7.4612  -7.4313  -3.5521  -3.0796
    -2.9364  -2.8713  -2.6771  -2.5937  -2.4154  -2.2917  -2.2786  -2.1964
    -2.1808  -2.1077  -2.1017  -2.0979  -2.0916  -2.0558  -1.9759  -1.9626
    -1.8759  -1.8422  -1.8271  -1.7070  -1.6967  -1.6712  -1.6237  -1.6056
    -1.4940  -1.4509  -1.4060  -1.3619  -1.3542  -1.3423  -1.3299  -1.3218
    -1.2434  -1.1830  -1.1810  -1.0778  -1.0235  -1.0131  -0.9574  -0.9122
    -0.8491  -0.8274  -0.7723  -0.7011  -0.6939  -0.6847  -0.6261  -0.6156
    -0.5596  -0.5034  -0.4218  -0.4098  -0.3419  -0.3138  -0.3071  -0.2915
    -0.2655  -0.2574  -0.2239  -0.2219  -0.2130  -0.1704  -0.1331  -0.1086
    -0.0920  -0.0616  -0.0203   0.0428   0.0512   0.0646   0.0675   0.0733
     0.1583   0.2018   0.2148   0.2340   0.2449   0.2460   0.2759   0.2975
     0.3273   0.3416   0.3506   0.3736   0.3976   0.3997   0.4462   0.4519
     0.4642   0.4740   0.4927   0.4959   0.5281   0.5908   0.5971   0.7212
     0.7312   0.7349   0.7765   0.8482   0.9015   0.9100   1.0093   1.0587
     1.0771   1.0879   1.1312   1.2008   1.2027   1.2517   1.2566   1.2866
     1.2992   1.3218   1.3299   1.3667   1.3712   1.3813   1.3919   1.4585
     1.4690   1.5216   1.5259   1.5624   1.5966   1.6314   1.6340   1.6639
     1.6784   1.6985   1.7346   1.7788   1.7864   1.8400   1.8464   1.8948
     1.9282   1.9594   1.9881   2.0121   2.0620   2.0675   2.1301   2.2487
     2.2735   2.3479   2.3797   2.4816   2.7677   2.8648   2.9143   2.9309
     2.9621   2.9854   3.0240   3.0862   3.2292   3.2645   3.6157   4.6470
     5.0387   5.5671   5.6211   5.6662   5.7955   5.8767   5.9790   6.3311
     6.5661   6.7912   6.8833   6.9844   7.0179   7.1704   7.2012   7.2576
     7.3338   7.4996   7.6009   7.6485   7.7636   7.8234   7.8244   7.9102
     8.1930   8.2279   8.2762   8.3655   8.4065   8.5510   8.6366   8.7621
     8.8102   8.9231

          k = 0.0000 0.5236 0.0000 ( 70701 PWs)   bands (ev):

   -40.9962 -38.4049 -38.0126 -35.6431 -22.8604 -22.7447 -22.7267 -22.6175
   -22.5313 -22.4852 -22.4244 -22.3478 -21.1203 -21.0351 -20.9413 -19.4991
   -19.4706 -19.3923 -18.3761 -18.3681 -18.3587 -16.8972 -16.8845 -16.8469
   -15.8478 -15.3934 -15.3054 -15.0616 -14.8399 -14.7723 -14.6719 -14.6698
   -14.6548 -14.6143 -14.5854 -14.5219 -14.4367 -14.4064 -14.2182 -14.1810
   -14.1610 -14.1280 -14.0877 -14.0115 -13.9545 -13.9505 -13.9187 -13.9089
   -13.8972 -13.8780 -13.7991 -13.7407 -13.7222 -13.5784  -8.3689  -8.2307
    -8.2264  -8.1535  -8.1493  -8.0712  -8.0473  -8.0063  -7.9662  -7.9406
    -7.9355  -7.9065  -7.8299  -7.8191  -7.8038  -7.7295  -7.7256  -7.7007
    -7.6922  -7.6902  -7.6504  -7.5675  -7.5269  -7.3965  -3.9737  -3.4711
    -3.2650  -3.1167  -2.8616  -2.7734  -2.7405  -2.6472  -2.5474  -2.4794
    -2.4547  -2.4033  -2.3995  -2.3889  -2.2479  -2.2166  -2.1749  -2.1595
    -2.1587  -2.1121  -2.1091  -2.1054  -2.0325  -2.0223  -2.0148  -2.0049
    -1.9931  -1.9107  -1.7265  -1.6436  -1.6097  -1.5629  -1.5404  -1.5013
    -1.3258  -1.3150  -1.2107  -1.1698  -1.1379  -1.0668  -0.9910  -0.9371
    -0.9209  -0.9069  -0.8519  -0.8031  -0.7910  -0.7843  -0.7692  -0.7623
    -0.6804  -0.6386  -0.6134  -0.5986  -0.5521  -0.5384  -0.5217  -0.5050
    -0.5036  -0.4901  -0.4553  -0.4519  -0.4382  -0.3752  -0.3630  -0.3318
    -0.2891  -0.2845  -0.2424  -0.2121  -0.1596  -0.1076   0.0783   0.1155
     0.1514   0.1900   0.2538   0.2621   0.2747   0.3083   0.3294   0.3658
     0.3742   0.3858   0.4038   0.4714   0.4792   0.4997   0.6524   0.6578
     0.6927   0.7900   0.8483   0.8620   0.8937   0.9511   1.0052   1.0305
     1.0441   1.0911   1.1217   1.1366   1.1401   1.1547   1.2096   1.2552
     1.2639   1.3120   1.3128   1.3191   1.3383   1.3485   1.3565   1.3675
     1.3812   1.3994   1.4309   1.4667   1.4762   1.4821   1.5119   1.5130
     1.5515   1.5558   1.6102   1.6447   1.7292   1.7415   1.7466   1.7769
     1.8109   1.8642   1.8730   1.8994   1.9053   1.9194   1.9478   2.0074
     2.0174   2.0278   2.0338   2.0569   2.1366   2.1521   2.1858   2.2522
     2.3220   2.3690   2.5570   2.5877   3.1379   3.1764   3.1810   3.2403
     3.5829   3.6719   3.6958   3.8874   3.9691   4.0072   4.0396   4.5053
     5.2200   5.6400   5.8272   5.9230   6.1850   6.5098   6.5690   6.6114
     6.6889   6.7515   6.8285   6.9724   7.0219   7.0723   7.1647   7.6012
     7.7706   7.8699   8.0229   8.0639   8.2556   8.3754   8.4191   8.4590
     8.4863   8.5599   8.6669   8.7047   8.7685   8.8558   8.9057   9.0282
     9.1432   9.1563

          k = 0.0000 0.7854 0.0000 ( 70706 PWs)   bands (ev):

   -40.9911 -38.4017 -38.0061 -35.6390 -22.8007 -22.6977 -22.6643 -22.5696
   -22.4680 -22.4256 -22.3767 -22.3005 -21.2193 -21.0260 -20.9208 -19.5565
   -19.4651 -19.3777 -18.5850 -18.3507 -18.2527 -17.0193 -16.8365 -16.8110
   -15.6880 -15.3230 -15.2968 -14.9121 -14.8466 -14.7133 -14.6946 -14.5909
   -14.5097 -14.4977 -14.4501 -14.4242 -14.4039 -14.2821 -14.2324 -14.1109
   -14.0986 -14.0892 -14.0437 -14.0409 -13.9953 -13.9037 -13.8870 -13.8773
   -13.8716 -13.8544 -13.8342 -13.8052 -13.7565 -13.7168  -8.7280  -8.6257
    -8.4485  -8.4372  -8.3662  -8.3478  -8.2919  -8.2006  -8.1219  -8.0424
    -8.0198  -8.0100  -7.9410  -7.8990  -7.8500  -7.7469  -7.7151  -7.6755
    -7.6737  -7.6506  -7.6364  -7.5796  -7.4036  -7.2862  -4.4361  -3.9556
    -3.5474  -3.5203  -3.2567  -3.1873  -3.1481  -3.0213  -2.9196  -2.8757
    -2.7913  -2.7841  -2.7802  -2.7401  -2.7256  -2.7100  -2.5453  -2.3749
    -2.3426  -2.2787  -2.2027  -2.1492  -2.1393  -2.1131  -2.1026  -2.0721
    -2.0293  -2.0291  -1.8148  -1.7455  -1.6327  -1.6019  -1.5945  -1.5856
    -1.5470  -1.4898  -1.4390  -1.4077  -1.3145  -1.1272  -1.1266  -1.0491
    -1.0309  -0.9596  -0.9513  -0.9433  -0.9357  -0.9137  -0.9014  -0.8532
    -0.8161  -0.7974  -0.7938  -0.7680  -0.7508  -0.7495  -0.7272  -0.7094
    -0.7090  -0.6727  -0.6556  -0.6346  -0.6247  -0.6111  -0.5356  -0.5333
    -0.5272  -0.4841  -0.4218  -0.1445  -0.1206  -0.1071  -0.0460   0.0784
     0.0961   0.1284   0.2681   0.2901   0.3517   0.3552   0.3609   0.3660
     0.4511   0.5577   0.5956   0.6329   0.6473   0.7935   0.8500   0.8792
     0.9312   0.9477   1.0657   1.0860   1.0891   1.1131   1.1251   1.1411
     1.1431   1.2049   1.2286   1.2917   1.2973   1.3115   1.3267   1.3622
     1.3745   1.3975   1.4535   1.4610   1.4862   1.5398   1.5422   1.5723
     1.5848   1.6010   1.6206   1.6438   1.6968   1.7049   1.7327   1.7522
     1.7787   1.8029   1.8261   1.8325   1.8732   1.8904   1.8968   1.9324
     1.9620   1.9712   2.0127   2.0382   2.0455   2.0599   2.0998   2.1200
     2.1449   2.2861   2.3125   2.3174   2.3294   2.3401   2.3544   2.3913
     2.5103   2.5408   2.5572   2.8553   2.9854   3.0261   3.0890   3.1576
     3.8009   4.0140   4.1949   4.3256   4.4463   4.5358   4.6012   4.7447
     5.5271   5.6497   5.6876   5.9430   6.0926   6.1580   6.2140   6.3268
     6.8141   7.1674   7.2946   7.4656   7.5059   7.5752   7.6667   7.8914
     7.9222   8.2561   8.5136   8.5222   8.5487   8.6618   8.7846   8.8520
     8.8869   8.9102   8.9500   8.9592   9.1084   9.1629   9.1997   9.2389
     9.3142   9.3710

          k = 0.0000-1.0472 0.0000 ( 70762 PWs)   bands (ev):

   -40.9891 -38.4003 -38.0034 -35.6373 -22.7755 -22.6778 -22.6380 -22.5494
   -22.4411 -22.4005 -22.3566 -22.2805 -21.2604 -21.0222 -20.9112 -19.5804
   -19.4628 -19.3712 -18.6656 -18.3435 -18.2054 -17.0697 -16.8323 -16.7753
   -15.5972 -15.3544 -15.2556 -14.9475 -14.8536 -14.7363 -14.6508 -14.5713
   -14.4873 -14.4265 -14.4118 -14.3335 -14.2815 -14.2400 -14.1979 -14.1153
   -14.1068 -14.0533 -14.0499 -14.0204 -13.9614 -13.9297 -13.9086 -13.8724
   -13.8611 -13.8539 -13.8509 -13.8349 -13.7675 -13.7375  -8.8813  -8.7790
    -8.6023  -8.5547  -8.4988  -8.4850  -8.3188  -8.3056  -8.1416  -8.1035
    -8.0561  -8.0156  -7.9348  -7.9266  -7.8601  -7.7543  -7.7440  -7.6849
    -7.6618  -7.6452  -7.6045  -7.5269  -7.3499  -7.2379  -4.6235  -4.1578
    -3.7068  -3.6620  -3.4539  -3.3690  -3.3262  -3.2310  -3.0799  -3.0672
    -3.0236  -2.9557  -2.9498  -2.9413  -2.8879  -2.7793  -2.5740  -2.4039
    -2.3974  -2.3772  -2.1617  -2.1597  -2.1367  -2.1263  -2.1005  -2.0594
    -2.0183  -1.9183  -1.8769  -1.8342  -1.8036  -1.7023  -1.6506  -1.6260
    -1.6093  -1.6089  -1.5064  -1.3558  -1.2554  -1.2262  -1.1941  -1.1318
    -1.0597  -1.0535  -1.0175  -0.9966  -0.9884  -0.9812  -0.9513  -0.9472
    -0.9154  -0.8954  -0.8349  -0.8333  -0.8286  -0.7928  -0.7808  -0.7650
    -0.7465  -0.7443  -0.7390  -0.7382  -0.7334  -0.6677  -0.6224  -0.6081
    -0.4944  -0.4939  -0.4130  -0.1467  -0.1179  -0.1048  -0.0911   0.0015
     0.0687   0.0993   0.2825   0.3062   0.3507   0.3575   0.3580   0.3601
     0.4871   0.5922   0.6550   0.6760   0.7373   0.9115   0.9534   0.9647
     0.9784   0.9943   1.0200   1.1038   1.1205   1.1256   1.1456   1.2021
     1.2135   1.2771   1.2915   1.3164   1.3505   1.3920   1.3986   1.4216
     1.4368   1.4466   1.4710   1.4752   1.5041   1.5076   1.5959   1.6499
     1.6563   1.7045   1.7173   1.7451   1.7951   1.8136   1.8205   1.8381
     1.8763   1.9039   1.9131   1.9790   1.9868   1.9884   2.0257   2.0291
     2.0465   2.0593   2.0724   2.1747   2.2054   2.2519   2.2663   2.2827
     2.2902   2.3023   2.3036   2.4070   2.4233   2.4341   2.5081   2.5198
     2.5350   2.7042   2.7191   2.7532   2.7938   2.9200   2.9904   3.0102
     3.7624   4.0557   4.3587   4.4991   4.5051   4.7419   4.8102   4.9715
     5.5868   5.7181   5.7238   5.7846   5.9185   6.0941   6.0964   6.1288
     6.7021   7.2548   7.6326   7.6912   7.7999   7.8971   7.9102   7.9933
     8.2833   8.3128   8.3691   8.4599   8.4652   8.5860   8.7623   8.8712
     8.9124   9.0564   9.0664   9.0849   9.2089   9.3080   9.3163   9.3514
     9.4507   9.4727

          k = 0.1250 0.0000 0.0000 ( 70775 PWs)   bands (ev):

   -41.0033 -38.4096 -38.0218 -35.6489 -22.9383 -22.8134 -22.8074 -22.6883
   -22.6129 -22.5634 -22.4952 -22.4164 -21.0472 -21.0184 -20.9255 -19.4798
   -19.4360 -19.3927 -18.4963 -18.3896 -18.0250 -16.9999 -16.8737 -16.6786
   -16.0186 -15.5506 -15.3804 -15.3031 -14.9657 -14.9137 -14.8623 -14.7807
   -14.7776 -14.7562 -14.6464 -14.5652 -14.5226 -14.4570 -14.4484 -14.2905
   -14.2776 -14.0926 -14.0172 -13.9928 -13.9827 -13.9764 -13.9671 -13.9632
   -13.8884 -13.7902 -13.7035 -13.6848 -13.5558 -13.4628  -8.2762  -8.1910
    -8.0520  -7.9456  -7.9108  -7.8475  -7.8316  -7.8064  -7.7695  -7.7526
    -7.7367  -7.7148  -7.7047  -7.6694  -7.6334  -7.6126  -7.5431  -7.5379
    -7.4945  -7.4652  -7.4342  -7.3741  -7.3147  -7.2270  -3.4028  -2.9449
    -2.7767  -2.7517  -2.6209  -2.6011  -2.3219  -2.2094  -2.1648  -2.1508
    -2.1075  -2.0996  -2.0943  -2.0652  -2.0334  -1.9020  -1.8301  -1.8101
    -1.7951  -1.6679  -1.6673  -1.5125  -1.5067  -1.4776  -1.4768  -1.4273
    -1.3675  -1.3265  -1.2739  -1.2250  -1.1574  -1.1440  -1.1018  -1.0587
    -1.0445  -0.9932  -0.9146  -0.9135  -0.9100  -0.9090  -0.9061  -0.9008
    -0.8511  -0.8462  -0.7649  -0.7094  -0.6695  -0.6376  -0.6246  -0.6013
    -0.5940  -0.5742  -0.4720  -0.3327  -0.3070  -0.2994  -0.2915  -0.2805
    -0.2363  -0.2160  -0.1869  -0.1801  -0.1496  -0.1350  -0.1055  -0.0575
    -0.0546   0.0372   0.0537   0.0580   0.0606   0.0675   0.0705   0.0961
     0.1223   0.1440   0.1878   0.2322   0.2342   0.2798   0.2802   0.2964
     0.3158   0.3164   0.3250   0.3348   0.3590   0.3824   0.4264   0.4476
     0.4482   0.4588   0.5361   0.5400   0.5751   0.5835   0.5979   0.6200
     0.6358   0.6525   0.6655   0.7734   0.7967   0.8103   0.9352   0.9775
     1.0190   1.0765   1.0833   1.0985   1.1322   1.1546   1.1839   1.2035
     1.2279   1.2433   1.2641   1.2982   1.3319   1.3380   1.3414   1.3972
     1.4591   1.4919   1.5095   1.5153   1.5486   1.6078   1.6382   1.6611
     1.7295   1.7425   1.7785   1.8068   1.8083   1.8475   1.8576   1.8775
     1.9145   1.9374   1.9540   2.0836   2.1026   2.1159   2.1524   2.1683
     2.2182   2.3095   2.3095   2.3183   2.3268   2.4021   2.4335   2.4822
     2.5541   2.6488   2.6541   2.7052   2.9270   2.9626   3.4706   4.6148
     5.0827   5.3264   5.3347   5.6111   5.6319   5.7229   5.9230   6.1637
     6.5411   6.7064   6.7592   6.9397   6.9701   7.0150   7.0204   7.0542
     7.1507   7.2695   7.5428   7.6984   7.8023   7.8438   7.8682   7.9016
     8.0444   8.1842   8.2061   8.2075   8.2643   8.4051   8.5420   8.5705
     8.6524   8.7436

          k = 0.1250 0.2618 0.0000 ( 70783 PWs)   bands (ev):

   -41.0012 -38.4082 -38.0191 -35.6472 -22.9149 -22.7945 -22.7830 -22.6689
   -22.5883 -22.5400 -22.4759 -22.3974 -21.0435 -21.0348 -20.9445 -19.4774
   -19.4473 -19.4000 -18.4576 -18.3824 -18.1359 -16.9703 -16.8688 -16.7445
   -15.9696 -15.5125 -15.2958 -15.2751 -14.9099 -14.8488 -14.8086 -14.7863
   -14.7315 -14.7166 -14.6089 -14.5569 -14.4489 -14.4441 -14.4413 -14.2490
   -14.2348 -14.0889 -14.0481 -13.9859 -13.9804 -13.9698 -13.9680 -13.9450
   -13.9250 -13.7884 -13.7491 -13.6970 -13.6129 -13.4935  -8.2848  -8.1791
    -8.0450  -7.9606  -7.9517  -7.9051  -7.8736  -7.8427  -7.8008  -7.7930
    -7.7670  -7.7619  -7.7336  -7.7250  -7.7027  -7.6970  -7.6458  -7.6175
    -7.5815  -7.5309  -7.5264  -7.4701  -7.4093  -7.3868  -3.5266  -3.0436
    -2.9472  -2.8360  -2.6404  -2.6008  -2.4464  -2.2971  -2.2664  -2.1955
    -2.1724  -2.1118  -2.1057  -2.0906  -2.0886  -2.0617  -1.9806  -1.9282
    -1.8912  -1.8434  -1.8254  -1.7255  -1.7020  -1.6889  -1.6655  -1.5977
    -1.5013  -1.4353  -1.4054  -1.3576  -1.3534  -1.3322  -1.3229  -1.3101
    -1.2432  -1.2177  -1.1229  -1.0970  -1.0803  -1.0244  -0.9579  -0.8857
    -0.8573  -0.8248  -0.7824  -0.6980  -0.6854  -0.6667  -0.6530  -0.6296
    -0.5760  -0.5562  -0.5232  -0.4157  -0.3685  -0.3131  -0.3087  -0.2843
    -0.2775  -0.2575  -0.2348  -0.2244  -0.2109  -0.1997  -0.1047  -0.0804
    -0.0538  -0.0406  -0.0114   0.0391   0.0459   0.0554   0.0651   0.0687
     0.1344   0.1809   0.2176   0.2319   0.2341   0.2433   0.2733   0.2747
     0.3296   0.3539   0.3627   0.3752   0.3886   0.4196   0.4312   0.4447
     0.4624   0.4731   0.4969   0.5008   0.5466   0.5853   0.6592   0.6937
     0.7024   0.7137   0.7842   0.8519   0.9181   0.9319   1.0017   1.0521
     1.0847   1.1180   1.1560   1.1720   1.1872   1.2494   1.2611   1.2945
     1.3068   1.3112   1.3202   1.3512   1.3545   1.3643   1.3816   1.4585
     1.4663   1.4878   1.5466   1.5699   1.6112   1.6243   1.6608   1.6701
     1.6933   1.7070   1.7698   1.7856   1.7944   1.8394   1.8527   1.8735
     1.8986   1.9322   1.9678   1.9711   2.0867   2.1296   2.1676   2.2159
     2.2797   2.3430   2.5050   2.5166   2.7572   2.8613   2.9185   2.9364
     2.9638   2.9896   3.0219   3.0844   3.2336   3.2569   3.6370   4.5720
     5.1100   5.5818   5.6196   5.7039   5.8173   5.9068   6.0009   6.3634
     6.5690   6.7839   6.8677   6.9994   7.0065   7.0678   7.0720   7.2509
     7.3377   7.4540   7.6567   7.7183   7.8251   7.8562   7.9428   7.9744
     7.9833   8.2930   8.3776   8.4485   8.4556   8.5751   8.6789   8.7458
     8.8471   8.9365

          k = 0.1250 0.5236 0.0000 ( 70698 PWs)   bands (ev):

   -40.9962 -38.4049 -38.0126 -35.6431 -22.8573 -22.7480 -22.7230 -22.6215
   -22.5274 -22.4825 -22.4286 -22.3507 -21.1203 -21.0344 -20.9414 -19.4991
   -19.4718 -19.3922 -18.3761 -18.3650 -18.3581 -16.8989 -16.8855 -16.8570
   -15.8410 -15.4176 -15.2883 -15.0371 -14.8381 -14.7648 -14.6684 -14.6665
   -14.6510 -14.6122 -14.5880 -14.5165 -14.4366 -14.4025 -14.2741 -14.1960
   -14.1476 -14.1186 -14.0891 -14.0100 -13.9530 -13.9482 -13.9196 -13.9087
   -13.8994 -13.8780 -13.7868 -13.7453 -13.7207 -13.5820  -8.3849  -8.2645
    -8.2434  -8.1492  -8.0953  -8.0859  -8.0260  -8.0140  -7.9941  -7.9790
    -7.9421  -7.8981  -7.8414  -7.8260  -7.7495  -7.7484  -7.7148  -7.7023
    -7.6865  -7.6797  -7.6487  -7.6260  -7.4744  -7.3589  -3.9427  -3.4356
    -3.2796  -3.0797  -2.8259  -2.7829  -2.7411  -2.6454  -2.5469  -2.4820
    -2.4341  -2.4143  -2.4039  -2.3943  -2.2453  -2.2176  -2.1746  -2.1602
    -2.1473  -2.1145  -2.1109  -2.1008  -2.0332  -2.0212  -2.0101  -2.0001
    -1.9911  -1.8779  -1.7664  -1.6274  -1.6177  -1.5921  -1.5567  -1.4931
    -1.3261  -1.2930  -1.2468  -1.1759  -1.1523  -1.0776  -1.0664  -1.0263
    -0.9372  -0.9102  -0.8648  -0.8465  -0.8256  -0.7814  -0.7517  -0.7134
    -0.6896  -0.6528  -0.6317  -0.6144  -0.5571  -0.5519  -0.5413  -0.5312
    -0.5073  -0.4692  -0.4593  -0.4484  -0.4306  -0.3630  -0.3313  -0.3286
    -0.3262  -0.2769  -0.2659  -0.2062  -0.1558  -0.0968   0.0977   0.1226
     0.1661   0.1824   0.2179   0.2571   0.2763   0.2949   0.2959   0.3705
     0.3870   0.3876   0.3935   0.4716   0.4947   0.5075   0.6386   0.6505
     0.7356   0.7935   0.8363   0.8556   0.9072   0.9564   0.9649   0.9873
     1.0761   1.1062   1.1097   1.1321   1.1514   1.1676   1.2186   1.2348
     1.2582   1.2720   1.2849   1.2980   1.3130   1.3613   1.3847   1.3957
     1.4284   1.4319   1.4466   1.4481   1.4896   1.5035   1.5136   1.5363
     1.5457   1.5831   1.6281   1.6387   1.6924   1.7101   1.7507   1.7711
     1.8069   1.8528   1.8686   1.8902   1.8948   1.9339   1.9792   1.9847
     1.9978   2.0460   2.1100   2.1274   2.1418   2.1850   2.2023   2.2314
     2.3471   2.4859   2.6168   2.6425   3.1390   3.1775   3.1829   3.2432
     3.5575   3.6720   3.6935   3.8554   3.9736   3.9802   4.0220   4.4725
     5.2426   5.6421   5.8448   5.9413   6.1902   6.4965   6.5846   6.6274
     6.6968   6.7599   6.8397   6.9743   7.0408   7.0630   7.1880   7.5550
     7.7657   7.9186   8.0708   8.0929   8.1175   8.2853   8.3681   8.4747
     8.5311   8.6071   8.6819   8.7911   8.8005   8.8725   8.9255   9.0472
     9.1239   9.1699

          k = 0.1250 0.7854 0.0000 ( 70722 PWs)   bands (ev):

   -40.9911 -38.4017 -38.0061 -35.6390 -22.7980 -22.7005 -22.6612 -22.5729
   -22.4646 -22.4234 -22.3802 -22.3028 -21.2193 -21.0254 -20.9209 -19.5565
   -19.4662 -19.3776 -18.5850 -18.3477 -18.2522 -17.0193 -16.8459 -16.8132
   -15.6835 -15.3313 -15.2927 -14.9116 -14.8308 -14.6964 -14.6871 -14.5913
   -14.5051 -14.5048 -14.4499 -14.4238 -14.4046 -14.2823 -14.2260 -14.1266
   -14.1151 -14.0953 -14.0512 -14.0350 -13.9872 -13.9025 -13.8865 -13.8841
   -13.8725 -13.8589 -13.8313 -13.8010 -13.7602 -13.7164  -8.7158  -8.6160
    -8.4395  -8.4048  -8.3312  -8.3240  -8.2882  -8.1575  -8.1246  -8.0632
    -8.0098  -8.0025  -7.9461  -7.9419  -7.8510  -7.7817  -7.7255  -7.7077
    -7.6762  -7.6688  -7.6448  -7.5945  -7.4190  -7.3029  -4.4000  -3.9188
    -3.5677  -3.4856  -3.2268  -3.1990  -3.1477  -3.0237  -2.9281  -2.8785
    -2.7888  -2.7796  -2.7565  -2.7400  -2.7281  -2.7118  -2.5315  -2.3636
    -2.3266  -2.2637  -2.2481  -2.1420  -2.1408  -2.1129  -2.1084  -2.0710
    -2.0243  -2.0005  -1.8083  -1.7277  -1.6559  -1.6207  -1.5844  -1.5786
    -1.5508  -1.5048  -1.4837  -1.4717  -1.3351  -1.1577  -1.1285  -1.0316
    -1.0250  -1.0033  -0.9884  -0.9598  -0.9460  -0.9274  -0.9175  -0.8683
    -0.8505  -0.8185  -0.8001  -0.7610  -0.7549  -0.7422  -0.7190  -0.7077
    -0.6875  -0.6668  -0.6436  -0.6205  -0.6106  -0.5817  -0.5532  -0.5386
    -0.5356  -0.5136  -0.4506  -0.1548  -0.1292  -0.0925  -0.0389   0.1330
     0.1630   0.1882   0.2474   0.2645   0.2837   0.3439   0.3806   0.3861
     0.4339   0.5450   0.6233   0.6362   0.6443   0.7854   0.8143   0.8294
     0.9446   0.9777   1.0588   1.0623   1.0731   1.1168   1.1244   1.1521
     1.1767   1.2071   1.2170   1.2847   1.2984   1.3065   1.3215   1.3539
     1.3883   1.3973   1.4448   1.4714   1.5002   1.5088   1.5228   1.5723
     1.5916   1.6214   1.6355   1.6456   1.6825   1.7229   1.7488   1.7652
     1.7769   1.8178   1.8323   1.8519   1.8777   1.8905   1.9100   1.9458
     1.9565   2.0030   2.0297   2.0400   2.0626   2.0653   2.1117   2.1363
     2.1992   2.2361   2.2983   2.3259   2.3440   2.3461   2.4073   2.5121
     2.5322   2.5543   2.5752   2.8258   2.9874   3.0304   3.0942   3.1642
     3.8062   4.0132   4.1405   4.3246   4.4341   4.4750   4.5441   4.6868
     5.5252   5.6904   5.7065   5.9466   6.1096   6.2119   6.2133   6.3676
     6.8423   7.1589   7.2612   7.4485   7.4789   7.5454   7.6414   7.8779
     7.9082   8.2139   8.2893   8.4230   8.6574   8.7157   8.8047   8.8768
     8.8963   8.9250   8.9699   9.0414   9.1358   9.1839   9.2094   9.2711
     9.3539   9.3693

          k = 0.1250-1.0472 0.0000 ( 70790 PWs)   bands (ev):

   -40.9891 -38.4003 -38.0034 -35.6373 -22.7730 -22.6805 -22.6350 -22.5524
   -22.4380 -22.3985 -22.3598 -22.2827 -21.2604 -21.0216 -20.9113 -19.5804
   -19.4639 -19.3711 -18.6656 -18.3405 -18.2049 -17.0697 -16.8413 -16.7773
   -15.5949 -15.3505 -15.2586 -14.9504 -14.8423 -14.7255 -14.6270 -14.5698
   -14.4745 -14.4477 -14.4262 -14.3267 -14.2819 -14.2394 -14.1910 -14.1179
   -14.1081 -14.0709 -14.0484 -14.0208 -13.9757 -13.9322 -13.9033 -13.8720
   -13.8583 -13.8548 -13.8507 -13.8360 -13.7711 -13.7421  -8.8518  -8.7487
    -8.5723  -8.5248  -8.4696  -8.4545  -8.3037  -8.2879  -8.1271  -8.0911
    -8.0881  -8.0118  -7.9616  -7.9377  -7.8611  -7.7894  -7.7408  -7.7172
    -7.6673  -7.6645  -7.6229  -7.5707  -7.3943  -7.2773  -4.5855  -4.1199
    -3.6850  -3.6721  -3.4248  -3.3722  -3.3366  -3.2332  -3.0812  -3.0777
    -3.0219  -2.9584  -2.9528  -2.9432  -2.8685  -2.7699  -2.5572  -2.3829
    -2.3780  -2.3576  -2.1758  -2.1639  -2.1373  -2.1245  -2.0880  -2.0603
    -2.0148  -1.9641  -1.8988  -1.8719  -1.8002  -1.6821  -1.6425  -1.6174
    -1.5855  -1.5740  -1.5049  -1.3771  -1.3642  -1.2893  -1.2069  -1.1291
    -1.0925  -1.0547  -1.0513  -0.9992  -0.9978  -0.9788  -0.9678  -0.9612
    -0.9368  -0.8721  -0.8610  -0.8518  -0.7956  -0.7921  -0.7782  -0.7623
    -0.7441  -0.7312  -0.7277  -0.7110  -0.6658  -0.6528  -0.6377  -0.6273
    -0.6153  -0.4990  -0.3875  -0.1236  -0.1167  -0.1033  -0.0926   0.0917
     0.1154   0.1754   0.2497   0.2870   0.2885   0.3373   0.3725   0.3841
     0.4718   0.5821   0.7004   0.7040   0.7190   0.8508   0.8753   0.9298
     0.9903   1.0404   1.0458   1.1100   1.1223   1.1299   1.1436   1.1835
     1.2314   1.2426   1.2830   1.2847   1.3640   1.3916   1.4026   1.4177
     1.4293   1.4531   1.4705   1.4918   1.5082   1.5151   1.5892   1.6437
     1.6789   1.7088   1.7259   1.7287   1.7956   1.8110   1.8426   1.8505
     1.9123   1.9155   1.9783   1.9850   2.0009   2.0157   2.0234   2.0411
     2.0681   2.0751   2.0916   2.1844   2.2433   2.2728   2.2801   2.2878
     2.2968   2.2974   2.3540   2.3798   2.4272   2.4304   2.5042   2.5265
     2.5421   2.6969   2.7124   2.7575   2.8020   2.9310   2.9800   2.9989
     3.7710   4.0569   4.3000   4.4822   4.5012   4.6637   4.7365   4.9004
     5.6306   5.7211   5.7258   5.8161   5.9866   6.0794   6.1169   6.1790
     6.7324   7.2535   7.5194   7.6520   7.7561   7.8047   7.9047   7.9358
     8.2795   8.3000   8.3198   8.3666   8.4203   8.6626   8.8309   8.9567
     8.9589   9.1092   9.1341   9.1769   9.1914   9.2977   9.3568   9.3843
     9.4641   9.4820

          k = 0.2500 0.0000 0.0000 ( 70721 PWs)   bands (ev):

   -41.0033 -38.4096 -38.0218 -35.6489 -22.9280 -22.8243 -22.7947 -22.7017
   -22.5996 -22.5547 -22.5093 -22.4257 -21.0457 -21.0185 -20.9255 -19.4827
   -19.4357 -19.3927 -18.4945 -18.3818 -18.0250 -17.0070 -16.9021 -16.6786
   -15.9951 -15.6061 -15.3066 -15.2656 -14.9280 -14.8943 -14.8248 -14.7859
   -14.7609 -14.7550 -14.6424 -14.6248 -14.5680 -14.4760 -14.4740 -14.3553
   -14.2315 -14.0786 -13.9989 -13.9928 -13.9876 -13.9710 -13.9697 -13.9665
   -13.8989 -13.7382 -13.7379 -13.6889 -13.5703 -13.4820  -8.2807  -8.2027
    -8.0569  -7.9531  -7.8876  -7.8407  -7.8144  -7.7848  -7.7789  -7.7685
    -7.7418  -7.7131  -7.6912  -7.6524  -7.6362  -7.6347  -7.5207  -7.5133
    -7.5094  -7.4808  -7.4129  -7.3801  -7.3420  -7.2505  -3.3419  -2.8442
    -2.7399  -2.7074  -2.6810  -2.5020  -2.2840  -2.2635  -2.1837  -2.1680
    -2.1364  -2.1123  -2.0951  -2.0590  -2.0243  -1.9583  -1.8961  -1.8236
    -1.7678  -1.7038  -1.6856  -1.5118  -1.4814  -1.4609  -1.4380  -1.4333
    -1.3713  -1.3604  -1.3162  -1.2000  -1.1531  -1.1443  -1.0844  -1.0328
    -0.9646  -0.9523  -0.9366  -0.9338  -0.9119  -0.9077  -0.9070  -0.9023
    -0.8088  -0.8027  -0.7587  -0.6867  -0.6624  -0.6191  -0.6104  -0.5930
    -0.5488  -0.5429  -0.5363  -0.5137  -0.3848  -0.2981  -0.2925  -0.2880
    -0.2661  -0.2575  -0.2093  -0.1941  -0.1808  -0.1665  -0.1611  -0.1181
    -0.1169  -0.0251   0.0240   0.0435   0.0582   0.0658   0.0661   0.0814
     0.0892   0.1558   0.2030   0.2669   0.2799   0.2822   0.2843   0.3034
     0.3110   0.3198   0.3346   0.3389   0.3735   0.3930   0.4437   0.4663
     0.4858   0.5333   0.5352   0.5402   0.5716   0.5955   0.6292   0.6369
     0.6534   0.6899   0.7086   0.7447   0.7552   0.8034   0.9286   0.9538
     1.0030   1.0267   1.0283   1.0723   1.0940   1.1317   1.1577   1.2003
     1.2182   1.2456   1.3061   1.3149   1.3177   1.3471   1.3694   1.4016
     1.4494   1.5030   1.5186   1.5589   1.5947   1.6024   1.6173   1.6688
     1.6896   1.7684   1.7767   1.7996   1.8108   1.8244   1.8542   1.8599
     1.8677   1.9532   1.9728   2.0608   2.0760   2.1207   2.1660   2.2198
     2.2344   2.2782   2.2832   2.3033   2.3249   2.3927   2.4616   2.4850
     2.5607   2.6716   2.6968   2.7157   2.9043   2.9598   3.5746   4.4340
     5.2520   5.4182   5.4725   5.6383   5.6558   5.8042   6.0098   6.2650
     6.5299   6.5849   6.6205   6.7105   6.9157   6.9809   7.0576   7.1360
     7.1743   7.2546   7.4914   7.6958   7.7403   7.8691   8.0389   8.1055
     8.1169   8.2090   8.2991   8.3508   8.3596   8.4586   8.5515   8.5946
     8.7015   8.8114

          k = 0.2500 0.2618 0.0000 ( 70750 PWs)   bands (ev):

   -41.0012 -38.4082 -38.0191 -35.6472 -22.9051 -22.8048 -22.7709 -22.6817
   -22.5755 -22.5318 -22.4893 -22.4062 -21.0420 -21.0348 -20.9445 -19.4804
   -19.4471 -19.3999 -18.4559 -18.3746 -18.1359 -16.9771 -16.8958 -16.7443
   -15.9474 -15.5658 -15.2611 -15.2030 -14.8769 -14.8335 -14.7837 -14.7776
   -14.7277 -14.7112 -14.5968 -14.5825 -14.5353 -14.4587 -14.4578 -14.3101
   -14.1893 -14.0780 -14.0533 -13.9828 -13.9760 -13.9677 -13.9583 -13.9492
   -13.9304 -13.7771 -13.7431 -13.7017 -13.6192 -13.5102  -8.2882  -8.1903
    -8.0515  -8.0047  -7.9806  -7.9595  -7.9272  -7.8539  -7.8451  -7.7961
    -7.7708  -7.7614  -7.7232  -7.7201  -7.7038  -7.6422  -7.6296  -7.6187
    -7.5866  -7.5749  -7.4533  -7.4130  -7.3483  -7.3254  -3.4562  -2.9841
    -2.9396  -2.7360  -2.6168  -2.5353  -2.5007  -2.3321  -2.2597  -2.1893
    -2.1517  -2.1286  -2.1185  -2.0947  -2.0689  -2.0559  -1.9913  -1.9397
    -1.8534  -1.8330  -1.8273  -1.8127  -1.7795  -1.6884  -1.6493  -1.5902
    -1.5191  -1.4120  -1.4014  -1.3593  -1.3516  -1.3350  -1.3263  -1.3248
    -1.2647  -1.2302  -1.1419  -1.0796  -1.0571  -1.0216  -0.9519  -0.8923
    -0.8812  -0.8321  -0.8122  -0.7939  -0.7204  -0.7011  -0.6676  -0.6215
    -0.6049  -0.5957  -0.5355  -0.4831  -0.4252  -0.3634  -0.3424  -0.2922
    -0.2886  -0.2756  -0.2415  -0.2199  -0.2099  -0.1845  -0.0902  -0.0670
    -0.0395  -0.0270  -0.0012   0.0287   0.0389   0.0415   0.0577   0.0721
     0.0812   0.1257   0.2028   0.2128   0.2334   0.2346   0.2553   0.2764
     0.3396   0.3814   0.3876   0.3958   0.3996   0.4142   0.4393   0.4555
     0.4722   0.4730   0.4991   0.5123   0.5891   0.6076   0.6556   0.6606
     0.6701   0.7899   0.8303   0.8385   0.9450   0.9724   0.9882   1.0173
     1.1012   1.1447   1.1705   1.1864   1.2067   1.2195   1.2309   1.2564
     1.2633   1.2796   1.3042   1.3397   1.3500   1.3654   1.3955   1.4072
     1.4771   1.5051   1.5356   1.5722   1.6052   1.6433   1.6920   1.7265
     1.7285   1.7376   1.7470   1.7789   1.7911   1.8023   1.8083   1.8196
     1.8680   1.9383   1.9432   2.0148   2.0361   2.1692   2.2667   2.2795
     2.3088   2.3877   2.6017   2.7120   2.7289   2.8481   2.9298   2.9488
     2.9706   3.0025   3.0134   3.0754   3.2202   3.2430   3.6971   4.4268
     5.2490   5.5896   5.6388   5.8121   5.8909   5.9739   6.0480   6.4578
     6.5821   6.7215   6.7493   6.7723   6.8605   7.0295   7.2258   7.2646
     7.4140   7.5245   7.5545   7.7115   7.8143   7.9001   7.9589   8.1399
     8.1964   8.3232   8.4636   8.5440   8.5935   8.6327   8.7109   8.8052
     8.8804   8.9005

          k = 0.2500 0.5236 0.0000 ( 70690 PWs)   bands (ev):

   -40.9962 -38.4049 -38.0126 -35.6431 -22.8487 -22.7571 -22.7124 -22.6325
   -22.5162 -22.4755 -22.4403 -22.3582 -21.1203 -21.0329 -20.9415 -19.4991
   -19.4746 -19.3920 -18.3760 -18.3575 -18.3567 -16.9036 -16.8877 -16.8802
   -15.8229 -15.4623 -15.2623 -14.9709 -14.8337 -14.7483 -14.6594 -14.6573
   -14.6423 -14.6070 -14.5951 -14.5021 -14.4368 -14.3892 -14.3692 -14.2049
   -14.1955 -14.1019 -14.0893 -13.9976 -13.9488 -13.9423 -13.9233 -13.9066
   -13.9053 -13.8781 -13.7592 -13.7555 -13.7186 -13.5915  -8.4046  -8.2999
    -8.2543  -8.1496  -8.1271  -8.1240  -8.0468  -8.0212  -8.0095  -7.9727
    -7.9469  -7.8697  -7.8660  -7.8333  -7.7571  -7.7414  -7.7125  -7.7038
    -7.6743  -7.6679  -7.6015  -7.5972  -7.4272  -7.3211  -3.8560  -3.3351
    -3.3273  -2.9778  -2.8167  -2.7428  -2.7288  -2.6442  -2.5524  -2.4923
    -2.4713  -2.4137  -2.3775  -2.3536  -2.2349  -2.2220  -2.1726  -2.1555
    -2.1223  -2.1163  -2.1112  -2.0962  -2.0405  -2.0180  -2.0071  -1.9833
    -1.9766  -1.8620  -1.7925  -1.7744  -1.5954  -1.5475  -1.5441  -1.4769
    -1.3733  -1.3330  -1.2978  -1.2726  -1.2114  -1.2074  -1.1514  -0.9911
    -0.9631  -0.9509  -0.9311  -0.8657  -0.8441  -0.8343  -0.7849  -0.7596
    -0.7176  -0.6710  -0.6597  -0.6225  -0.5936  -0.5909  -0.5622  -0.5235
    -0.4786  -0.4739  -0.4472  -0.4299  -0.4147  -0.3934  -0.3519  -0.3408
    -0.2799  -0.2575  -0.2508  -0.1957  -0.1490  -0.0689   0.0289   0.0543
     0.1286   0.1508   0.2342   0.2434   0.2719   0.2876   0.3105   0.3435
     0.4216   0.4393   0.4588   0.4701   0.5300   0.5569   0.6116   0.6352
     0.7838   0.8004   0.8296   0.8577   0.8826   0.9264   0.9398   1.0019
     1.0484   1.0697   1.1084   1.1345   1.1556   1.1809   1.1944   1.2019
     1.2083   1.2266   1.2607   1.3047   1.3130   1.3496   1.3967   1.4487
     1.4690   1.4835   1.4975   1.5122   1.5183   1.5287   1.5404   1.5642
     1.5919   1.6108   1.6328   1.6473   1.6649   1.6750   1.7423   1.7678
     1.7691   1.8021   1.8270   1.8646   1.9063   1.9252   1.9522   2.0397
     2.0453   2.0802   2.1034   2.1324   2.1586   2.1862   2.2889   2.3951
     2.4606   2.6017   2.8415   2.9018   3.1417   3.1837   3.1871   3.2587
     3.4668   3.6730   3.6916   3.7567   3.8913   3.9569   3.9906   4.3932
     5.2989   5.6456   5.8669   6.0100   6.1917   6.4814   6.6252   6.6700
     6.7145   6.7777   6.8609   6.9748   7.0364   7.0989   7.2436   7.4621
     7.7249   7.8372   8.0539   8.1945   8.2056   8.2980   8.4235   8.4384
     8.4823   8.5153   8.6646   8.8432   8.9082   8.9334   8.9855   9.1228
     9.1928   9.2031

          k = 0.2500 0.7854 0.0000 ( 70730 PWs)   bands (ev):

   -40.9911 -38.4017 -38.0061 -35.6390 -22.7907 -22.7082 -22.6523 -22.5821
   -22.4551 -22.4176 -22.3901 -22.3090 -21.2193 -21.0239 -20.9210 -19.5565
   -19.4689 -19.3774 -18.5849 -18.3403 -18.2509 -17.0193 -16.8683 -16.8183
   -15.6723 -15.3484 -15.2863 -14.9106 -14.7910 -14.6659 -14.6460 -14.6030
   -14.5262 -14.4896 -14.4438 -14.4229 -14.4051 -14.2826 -14.2078 -14.1970
   -14.1473 -14.0795 -14.0725 -14.0184 -13.9843 -13.9029 -13.8989 -13.8852
   -13.8751 -13.8671 -13.8245 -13.7935 -13.7691 -13.7157  -8.6729  -8.5761
    -8.4007  -8.3337  -8.2791  -8.2635  -8.2149  -8.1765  -8.1164  -8.0732
    -8.0459  -7.9935  -7.9487  -7.9181  -7.8984  -7.8500  -7.8067  -7.7226
    -7.7217  -7.6825  -7.6517  -7.6501  -7.4761  -7.3582  -4.2991  -3.8162
    -3.6306  -3.3915  -3.2428  -3.1484  -3.1430  -3.0300  -2.9554  -2.8895
    -2.7817  -2.7623  -2.7394  -2.7352  -2.7169  -2.6886  -2.4873  -2.3846
    -2.3247  -2.2781  -2.1683  -2.1470  -2.1414  -2.1138  -2.1121  -2.0663
    -2.0029  -1.9453  -1.8069  -1.8058  -1.7360  -1.7024  -1.6469  -1.5508
    -1.5424  -1.5149  -1.4843  -1.4259  -1.3784  -1.3064  -1.1805  -1.1731
    -1.1411  -1.0578  -1.0182  -0.9877  -0.9732  -0.9467  -0.9013  -0.8870
    -0.8770  -0.8517  -0.8279  -0.7926  -0.7442  -0.7156  -0.6991  -0.6893
    -0.6677  -0.6445  -0.6308  -0.6267  -0.6013  -0.5777  -0.5480  -0.5405
    -0.5313  -0.4241  -0.4183  -0.1886  -0.1555  -0.0750  -0.0156   0.0608
     0.0887   0.2251   0.2537   0.3245   0.3546   0.3880   0.4370   0.4381
     0.4539   0.5074   0.5732   0.6090   0.7245   0.7615   0.7657   0.8038
     0.9772   0.9909   1.0113   1.0401   1.0662   1.0776   1.1179   1.1466
     1.2039   1.2271   1.2677   1.2812   1.2867   1.3032   1.3247   1.3785
     1.3854   1.4182   1.4322   1.4658   1.4724   1.4968   1.5578   1.5715
     1.5806   1.6250   1.6521   1.6673   1.6986   1.7037   1.7261   1.7557
     1.7758   1.8213   1.8319   1.8591   1.8697   1.8783   1.9055   1.9536
     1.9617   1.9781   1.9974   2.0155   2.0504   2.0904   2.1107   2.1512
     2.2896   2.2991   2.3507   2.3718   2.4099   2.4724   2.5087   2.5257
     2.5856   2.6974   2.8105   2.8393   2.9934   3.0411   3.1300   3.2067
     3.8023   3.9846   4.0178   4.2776   4.3144   4.3694   4.4224   4.5257
     5.5314   5.7322   5.8039   5.9607   6.1250   6.2359   6.3697   6.4981
     6.9141   7.0944   7.1935   7.3519   7.4250   7.4516   7.5736   7.8177
     7.8645   8.0223   8.2347   8.2973   8.6653   8.7654   8.8163   8.8573
     8.9586   8.9957   9.0389   9.1191   9.1931   9.2528   9.2694   9.3506
     9.3823   9.4105

          k = 0.2500-1.0472 0.0000 ( 70692 PWs)   bands (ev):

   -40.9891 -38.4003 -38.0034 -35.6373 -22.7662 -22.6876 -22.6269 -22.5609
   -22.4292 -22.3932 -22.3690 -22.2882 -21.2604 -21.0202 -20.9114 -19.5804
   -19.4666 -19.3709 -18.6655 -18.3332 -18.2037 -17.0698 -16.8629 -16.7821
   -15.5894 -15.3397 -15.2673 -14.9576 -14.8099 -14.6941 -14.5761 -14.5624
   -14.4850 -14.4661 -14.4397 -14.3184 -14.2827 -14.2381 -14.1718 -14.1489
   -14.1204 -14.0877 -14.0444 -14.0220 -14.0097 -13.9467 -13.8888 -13.8704
   -13.8573 -13.8500 -13.8476 -13.8389 -13.7815 -13.7552  -8.7681  -8.6620
    -8.4862  -8.4389  -8.3863  -8.3657  -8.2973  -8.1981  -8.1778  -8.1188
    -8.0598  -8.0273  -8.0013  -7.9462  -7.8877  -7.8661  -7.8080  -7.7588
    -7.7322  -7.6910  -7.6731  -7.6375  -7.5153  -7.3840  -4.4795  -4.0148
    -3.7536  -3.5794  -3.4077  -3.3486  -3.3450  -3.2390  -3.1109  -3.0883
    -3.0155  -2.9661  -2.9600  -2.9485  -2.8120  -2.7391  -2.5040  -2.3378
    -2.3018  -2.3004  -2.2443  -2.1842  -2.1712  -2.1378  -2.1236  -2.0611
    -2.0452  -1.9959  -1.9271  -1.8572  -1.7163  -1.6630  -1.6259  -1.6072
    -1.5968  -1.5469  -1.5200  -1.4906  -1.4274  -1.4056  -1.3724  -1.2285
    -1.1322  -1.0904  -1.0569  -1.0404  -1.0279  -1.0262  -1.0062  -0.9873
    -0.9109  -0.9089  -0.8883  -0.8093  -0.8072  -0.7765  -0.7631  -0.7531
    -0.7481  -0.7142  -0.7125  -0.7024  -0.6478  -0.6330  -0.6260  -0.6030
    -0.5154  -0.4657  -0.3850  -0.1647  -0.1405  -0.0940  -0.0266   0.0592
     0.0778   0.2456   0.2602   0.2943   0.3836   0.4049   0.4233   0.4398
     0.4454   0.5526   0.6306   0.7424   0.7783   0.8228   0.8280   0.8566
     1.0356   1.0652   1.0892   1.1139   1.1238   1.1387   1.1496   1.1576
     1.2021   1.2355   1.2940   1.3062   1.3202   1.3444   1.3888   1.4141
     1.4625   1.4785   1.4794   1.5031   1.5183   1.5687   1.5981   1.6130
     1.6343   1.6594   1.6710   1.7313   1.7408   1.8010   1.8343   1.8475
     1.8729   1.9274   1.9724   1.9756   1.9907   1.9965   2.0087   2.0095
     2.0521   2.1352   2.2109   2.2604   2.2743   2.2813   2.2814   2.2838
     2.3042   2.3659   2.4543   2.4948   2.4968   2.5458   2.5622   2.6329
     2.6763   2.6788   2.6935   2.7718   2.8239   2.8981   3.0090   3.0595
     3.7859   4.0507   4.1199   4.4164   4.4599   4.4876   4.5250   4.7170
     5.7116   5.7459   5.7582   5.8774   6.0547   6.1694   6.1792   6.3322
     6.8130   7.2403   7.2544   7.5561   7.5715   7.6375   7.6616   8.0027
     8.0172   8.3029   8.3273   8.3706   8.4152   8.7604   8.9744   9.0228
     9.0660   9.1382   9.2585   9.3105   9.3432   9.3711   9.4143   9.4344
     9.4736   9.5250

          k = 0.3750 0.0000 0.0000 ( 70812 PWs)   bands (ev):

   -41.0033 -38.4096 -38.0218 -35.6489 -22.9150 -22.8380 -22.7766 -22.7206
   -22.5796 -22.5446 -22.5301 -22.4366 -21.0441 -21.0186 -20.9255 -19.4857
   -19.4355 -19.3927 -18.4928 -18.3737 -18.0250 -17.0141 -16.9297 -16.6786
   -15.9666 -15.6591 -15.2354 -15.2116 -14.9021 -14.8703 -14.8036 -14.7747
   -14.7625 -14.7294 -14.7087 -14.6387 -14.5763 -14.5012 -14.4981 -14.4274
   -14.2031 -14.0628 -14.0024 -13.9957 -13.9845 -13.9738 -13.9700 -13.9331
   -13.9058 -13.7920 -13.6927 -13.6851 -13.5837 -13.5080  -8.2853  -8.2130
    -8.0610  -7.9588  -7.8666  -7.8459  -7.7848  -7.7793  -7.7743  -7.7522
    -7.7519  -7.7200  -7.6811  -7.6708  -7.6563  -7.5969  -7.5582  -7.5043
    -7.4764  -7.4747  -7.3902  -7.3824  -7.3817  -7.2832  -3.2653  -2.7977
    -2.7266  -2.6890  -2.5454  -2.3631  -2.3145  -2.3119  -2.2621  -2.2047
    -2.1442  -2.1423  -2.1085  -2.0279  -2.0144  -1.9947  -1.9888  -1.8152
    -1.7385  -1.7050  -1.7002  -1.6123  -1.5369  -1.4922  -1.4636  -1.4394
    -1.4162  -1.3118  -1.2000  -1.1423  -1.1089  -1.0890  -1.0430  -1.0033
    -0.9701  -0.9269  -0.9195  -0.9099  -0.9063  -0.9043  -0.9005  -0.8461
    -0.8173  -0.7796  -0.7490  -0.7479  -0.7233  -0.6566  -0.6543  -0.5735
    -0.5329  -0.5236  -0.4987  -0.4477  -0.4235  -0.4097  -0.3563  -0.3286
    -0.3039  -0.2908  -0.2903  -0.2445  -0.2138  -0.2061  -0.1857  -0.1796
    -0.1128  -0.1023  -0.0102   0.0243   0.0348   0.0522   0.0596   0.0706
     0.0837   0.1309   0.2429   0.2618   0.2750   0.2888   0.2903   0.3026
     0.3047   0.3958   0.4066   0.4078   0.4143   0.4287   0.4602   0.4816
     0.5089   0.5249   0.5328   0.5469   0.5783   0.6132   0.6231   0.6360
     0.6914   0.7256   0.7357   0.7641   0.7933   0.8477   0.8690   0.9219
     0.9280   0.9591   1.0138   1.0371   1.0696   1.0886   1.1966   1.2144
     1.2406   1.2607   1.2931   1.3084   1.3500   1.3612   1.4028   1.4205
     1.4249   1.4719   1.5186   1.5542   1.5616   1.5947   1.5988   1.6070
     1.6444   1.7173   1.7467   1.8141   1.8190   1.8226   1.8499   1.8968
     1.9053   1.9801   1.9891   2.0084   2.0301   2.0903   2.2109   2.2180
     2.2456   2.2841   2.2969   2.3181   2.3504   2.3839   2.4813   2.4965
     2.5744   2.6676   2.7181   2.7920   2.8583   2.9391   3.7048   4.2677
     5.3886   5.5249   5.6448   5.6779   5.7699   5.8522   6.1042   6.2379
     6.2744   6.4085   6.5584   6.6603   6.9492   7.1053   7.1626   7.1899
     7.2575   7.3531   7.4339   7.5385   7.8528   7.8700   7.8829   7.9991
     8.1325   8.2061   8.2118   8.4026   8.4864   8.5562   8.6178   8.7219
     8.7755   8.9472

          k = 0.3750 0.2618 0.0000 ( 70760 PWs)   bands (ev):

   -41.0012 -38.4082 -38.0191 -35.6472 -22.8927 -22.8178 -22.7537 -22.6995
   -22.5565 -22.5223 -22.5091 -22.4164 -21.0404 -21.0349 -20.9445 -19.4833
   -19.4469 -19.3998 -18.4543 -18.3667 -18.1359 -16.9838 -16.9222 -16.7442
   -15.9207 -15.6159 -15.2341 -15.1087 -14.8524 -14.8144 -14.7787 -14.7456
   -14.7370 -14.6936 -14.6459 -14.6152 -14.5457 -14.4751 -14.4695 -14.3790
   -14.1638 -14.0691 -14.0580 -13.9838 -13.9803 -13.9647 -13.9541 -13.9382
   -13.9178 -13.8170 -13.7101 -13.6974 -13.6235 -13.5324  -8.2911  -8.2070
    -8.0614  -8.0283  -8.0060  -7.9975  -7.9538  -7.8709  -7.8625  -7.8309
    -7.8061  -7.7833  -7.7249  -7.6870  -7.6763  -7.6524  -7.6259  -7.5950
    -7.5773  -7.5461  -7.4009  -7.3731  -7.3058  -7.2811  -3.3616  -3.0487
    -2.7809  -2.6265  -2.5878  -2.5456  -2.4267  -2.3928  -2.3000  -2.1824
    -2.1707  -2.1361  -2.1263  -2.1086  -2.0635  -2.0061  -1.9964  -1.9829
    -1.9590  -1.8402  -1.8285  -1.8180  -1.6931  -1.6726  -1.6178  -1.5933
    -1.5835  -1.5324  -1.4276  -1.3702  -1.3455  -1.3432  -1.3397  -1.3314
    -1.2437  -1.1599  -1.1423  -1.0876  -1.0485  -1.0143  -0.9711  -0.9244
    -0.9034  -0.8733  -0.8498  -0.8061  -0.7907  -0.6922  -0.6689  -0.6589
    -0.6095  -0.5938  -0.5354  -0.5238  -0.4666  -0.4180  -0.3728  -0.3484
    -0.3239  -0.2984  -0.2195  -0.1975  -0.1886  -0.1727  -0.1118  -0.0863
    -0.0566  -0.0359  -0.0181   0.0037   0.0071   0.0160   0.0404   0.0555
     0.0853   0.1083   0.1821   0.1992   0.2333   0.2471   0.2536   0.2907
     0.3728   0.4040   0.4225   0.4314   0.4401   0.4404   0.4525   0.4648
     0.4714   0.4974   0.5039   0.5336   0.5845   0.5942   0.6344   0.6691
     0.6938   0.7710   0.7912   0.9228   0.9818   1.0089   1.0111   1.0599
     1.0659   1.1121   1.1549   1.1651   1.1758   1.1972   1.1998   1.2376
     1.2829   1.3089   1.3106   1.3437   1.3605   1.3748   1.3826   1.4508
     1.4512   1.5380   1.5707   1.5758   1.6014   1.6090   1.6471   1.6693
     1.6751   1.6983   1.7302   1.7308   1.7725   1.7959   1.8154   1.8190
     1.8544   1.9165   2.0000   2.0235   2.0903   2.1830   2.2645   2.3136
     2.3817   2.5581   2.6507   2.7697   2.8186   2.8666   2.9462   2.9586
     2.9931   3.0028   3.0237   3.0566   3.1591   3.2236   3.7789   4.2871
     5.3917   5.5653   5.6710   5.9781   6.0007   6.0309   6.1108   6.4426
     6.4850   6.5620   6.6516   6.7116   6.8683   7.0433   7.2310   7.3341
     7.4816   7.5378   7.6519   7.6864   7.8721   7.9891   8.0484   8.1118
     8.2062   8.3479   8.3730   8.5752   8.6510   8.6964   8.7607   8.8044
     8.8945   8.9710

          k = 0.3750 0.5236 0.0000 ( 70699 PWs)   bands (ev):

   -40.9962 -38.4049 -38.0126 -35.6431 -22.8379 -22.7683 -22.6976 -22.6478
   -22.4994 -22.4674 -22.4576 -22.3667 -21.1203 -21.0314 -20.9416 -19.4991
   -19.4774 -19.3919 -18.3759 -18.3552 -18.3498 -16.9092 -16.9053 -16.8869
   -15.8017 -15.5022 -15.2441 -14.8840 -14.8292 -14.7404 -14.6492 -14.6438
   -14.6347 -14.6093 -14.5979 -14.4909 -14.4544 -14.4376 -14.3638 -14.2525
   -14.2116 -14.1260 -14.0750 -13.9808 -13.9445 -13.9338 -13.9284 -13.9139
   -13.9030 -13.8783 -13.7658 -13.7322 -13.7172 -13.6036  -8.3957  -8.2981
    -8.2745  -8.2195  -8.1605  -8.1501  -8.1228  -8.0090  -8.0037  -7.9857
    -7.9416  -7.8843  -7.8745  -7.8235  -7.7551  -7.7234  -7.7031  -7.6964
    -7.6693  -7.6044  -7.5812  -7.4960  -7.4304  -7.3242  -3.7351  -3.4108
    -3.1900  -2.8969  -2.8329  -2.7427  -2.6558  -2.6066  -2.5748  -2.5217
    -2.4904  -2.4364  -2.3449  -2.2388  -2.2309  -2.2051  -2.1656  -2.1480
    -2.1265  -2.1183  -2.0937  -2.0763  -2.0664  -2.0126  -2.0072  -1.9580
    -1.9528  -1.9466  -1.9425  -1.6860  -1.6253  -1.5652  -1.5515  -1.5200
    -1.4785  -1.4015  -1.3555  -1.3199  -1.2634  -1.1664  -1.1593  -1.0914
    -1.0439  -1.0339  -0.9458  -0.9113  -0.8953  -0.8423  -0.8142  -0.7842
    -0.7389  -0.7139  -0.6401  -0.6216  -0.6056  -0.6011  -0.5918  -0.5177
    -0.5112  -0.4493  -0.4313  -0.4080  -0.4009  -0.3731  -0.3663  -0.3184
    -0.2873  -0.2477  -0.2283  -0.1905  -0.1424  -0.0952  -0.0644  -0.0202
     0.1071   0.1127   0.1916   0.2522   0.2779   0.3223   0.3457   0.3787
     0.4334   0.4720   0.5170   0.5697   0.5735   0.5892   0.5899   0.6643
     0.7181   0.7881   0.8213   0.8592   0.8974   0.9168   0.9759   1.0047
     1.0379   1.0466   1.0781   1.0824   1.1358   1.1414   1.1596   1.1704
     1.1748   1.1822   1.2369   1.3420   1.3641   1.3645   1.4141   1.4591
     1.4678   1.4897   1.5228   1.5453   1.5626   1.5712   1.5903   1.5928
     1.6157   1.6356   1.6526   1.6646   1.6775   1.6902   1.7212   1.7423
     1.7520   1.7613   1.8056   1.8796   1.8839   1.9417   1.9665   2.0275
     2.0462   2.0603   2.1022   2.1041   2.2108   2.2259   2.2502   2.3853
     2.7345   2.9471   3.1014   3.1347   3.1452   3.1902   3.2372   3.2965
     3.3540   3.5713   3.6752   3.6919   3.7410   3.8283   4.0056   4.3138
     5.3637   5.6422   5.8731   6.0966   6.1843   6.4933   6.6734   6.7258
     6.7278   6.7875   6.8697   6.9583   7.0119   7.1845   7.2896   7.3723
     7.5924   7.7769   8.1448   8.2328   8.3064   8.3487   8.4181   8.4361
     8.4998   8.5854   8.6729   8.8355   8.9477   9.0309   9.0794   9.0929
     9.1951   9.2372

          k = 0.3750 0.7854 0.0000 ( 70746 PWs)   bands (ev):

   -40.9911 -38.4017 -38.0061 -35.6390 -22.7817 -22.7175 -22.6401 -22.5947
   -22.4408 -22.4111 -22.4047 -22.3158 -21.2193 -21.0224 -20.9211 -19.5565
   -19.4716 -19.3772 -18.5848 -18.3328 -18.2496 -17.0192 -16.8904 -16.8235
   -15.6600 -15.3647 -15.2815 -14.9096 -14.7411 -14.6364 -14.6340 -14.5720
   -14.5580 -14.4692 -14.4331 -14.4216 -14.4005 -14.2999 -14.2590 -14.1927
   -14.1809 -14.1026 -14.0538 -13.9983 -13.9933 -13.9294 -13.8938 -13.8838
   -13.8796 -13.8731 -13.8165 -13.7880 -13.7787 -13.7149  -8.5944  -8.4947
    -8.3199  -8.3111  -8.2893  -8.2223  -8.2206  -8.1607  -8.1058  -8.0697
    -8.0488  -7.9845  -7.9552  -7.9452  -7.8965  -7.8918  -7.8121  -7.7561
    -7.7528  -7.7121  -7.6927  -7.6568  -7.5814  -7.4512  -4.1601  -3.7323
    -3.6749  -3.3249  -3.2685  -3.1393  -3.0521  -3.0373  -3.0019  -2.9159
    -2.7710  -2.7458  -2.7369  -2.7313  -2.7237  -2.5928  -2.4897  -2.4079
    -2.2566  -2.2128  -2.1880  -2.1641  -2.1179  -2.1136  -2.0638  -2.0533
    -2.0248  -1.9349  -1.9196  -1.8806  -1.8123  -1.7091  -1.5926  -1.5608
    -1.5477  -1.5124  -1.4909  -1.4856  -1.4067  -1.4038  -1.3325  -1.2893
    -1.2341  -1.0767  -1.0594  -1.0382  -1.0330  -0.9767  -0.9380  -0.8969
    -0.8541  -0.8433  -0.8355  -0.7967  -0.7678  -0.7245  -0.6925  -0.6689
    -0.6534  -0.6119  -0.5978  -0.5716  -0.5705  -0.5646  -0.5357  -0.5149
    -0.5136  -0.4163  -0.2651  -0.2392  -0.1878  -0.1623  -0.0895   0.0261
     0.1267   0.1673   0.2909   0.3260   0.4200   0.4361   0.4430   0.5071
     0.5387   0.5650   0.5756   0.6104   0.6732   0.7086   0.8198   0.8851
     0.9097   0.9373   1.0060   1.0224   1.0459   1.0791   1.1340   1.1394
     1.1957   1.2134   1.2381   1.2636   1.2896   1.3358   1.3711   1.3915
     1.4148   1.4474   1.4642   1.5039   1.5201   1.5227   1.5382   1.5416
     1.5843   1.6151   1.6296   1.6409   1.6828   1.7015   1.7306   1.7522
     1.7742   1.7897   1.8135   1.8599   1.8610   1.8722   1.8841   1.9039
     1.9273   1.9471   1.9574   2.0232   2.0571   2.0639   2.0796   2.1498
     2.2603   2.3338   2.3879   2.4087   2.4663   2.4740   2.4948   2.5955
     2.8343   2.9305   2.9984   3.0147   3.0536   3.1152   3.3461   3.4269
     3.6224   3.9162   3.9534   4.0114   4.1013   4.1786   4.3723   4.4112
     5.5507   5.7404   5.8888   6.0382   6.1334   6.2849   6.6014   6.7120
     6.8652   7.0398   7.1554   7.1685   7.2715   7.4009   7.4879   7.7123
     7.7835   7.9456   8.2048   8.2747   8.7032   8.7702   8.8325   8.8456
     8.9415   8.9538   9.0832   9.1333   9.2476   9.3334   9.3902   9.4352
     9.4760   9.5014

          k = 0.3750-1.0472 0.0000 ( 70750 PWs)   bands (ev):

   -40.9891 -38.4003 -38.0034 -35.6373 -22.7579 -22.6961 -22.6158 -22.5723
   -22.4160 -22.3873 -22.3824 -22.2944 -21.2603 -21.0187 -20.9115 -19.5804
   -19.4692 -19.3707 -18.6654 -18.3258 -18.2025 -17.0698 -16.8843 -16.7869
   -15.5838 -15.3251 -15.2798 -14.9649 -14.7613 -14.6457 -14.6161 -14.5228
   -14.4981 -14.4772 -14.3962 -14.3162 -14.2840 -14.2368 -14.1913 -14.1881
   -14.1423 -14.0640 -14.0455 -14.0393 -14.0241 -13.9751 -13.8701 -13.8678
   -13.8607 -13.8485 -13.8426 -13.8288 -13.7963 -13.7750  -8.6455  -8.5305
    -8.3555  -8.3136  -8.3064  -8.2845  -8.2623  -8.2276  -8.2025  -8.1183
    -8.0581  -8.0307  -7.9869  -7.9815  -7.9614  -7.9395  -7.8715  -7.8578
    -7.8393  -7.7236  -7.7055  -7.6621  -7.6455  -7.5264  -4.3340  -3.8725
    -3.8618  -3.4899  -3.4591  -3.3430  -3.2550  -3.2449  -3.1659  -3.1103
    -3.0047  -2.9777  -2.9659  -2.9554  -2.7270  -2.6803  -2.4127  -2.4041
    -2.3447  -2.2517  -2.2300  -2.1885  -2.1805  -2.1384  -2.1361  -2.0838
    -2.0447  -1.9244  -1.8580  -1.8396  -1.8174  -1.7463  -1.6960  -1.6915
    -1.5878  -1.5787  -1.5368  -1.4790  -1.4713  -1.4244  -1.3924  -1.3713
    -1.2769  -1.1888  -1.1309  -1.0796  -1.0569  -1.0353  -1.0161  -0.9997
    -0.9448  -0.8727  -0.8571  -0.8369  -0.8150  -0.7676  -0.7610  -0.7002
    -0.6934  -0.6878  -0.6721  -0.6419  -0.6323  -0.6011  -0.5615  -0.5425
    -0.5378  -0.4248  -0.2485  -0.2351  -0.1941  -0.1903  -0.1054   0.0369
     0.1470   0.1865   0.3073   0.3730   0.4410   0.4731   0.4904   0.5081
[...]
    -0.8990  -0.8641  -0.8617  -0.8482  -0.8034  -0.7640  -0.7099  -0.6375
    -0.6237  -0.5885  -0.5363  -0.4810  -0.4352  -0.4336  -0.4171  -0.3813
    -0.3642  -0.3160  -0.2229  -0.1831  -0.1750  -0.1668  -0.1315  -0.1136
    -0.0528  -0.0404  -0.0314  -0.0067  -0.0053   0.0067   0.0344   0.0650
     0.0716   0.1242   0.1790   0.1924   0.2343   0.2431   0.2639   0.2933
     0.3704   0.4128   0.4357   0.4375   0.4552   0.4671   0.4680   0.4904
     0.4998   0.5120   0.5259   0.5270   0.5423   0.5687   0.6517   0.6797
     0.7171   0.7315   0.7810   0.9074   0.9894   1.0178   1.0243   1.1034
     1.1049   1.1260   1.1275   1.1327   1.1346   1.1530   1.2036   1.2425
     1.3034   1.3079   1.3281   1.3619   1.3778   1.3832   1.4376   1.4865
     1.4916   1.5174   1.5335   1.5377   1.5573   1.6134   1.6278   1.6583
     1.6615   1.6635   1.6666   1.6730   1.7841   1.8054   1.8437   1.8445
     1.8688   1.8799   2.0343   2.0524   2.0989   2.1283   2.2805   2.3358
     2.4748   2.5727   2.6563   2.7719   2.8864   2.9046   2.9610   2.9646
     2.9756   3.0064   3.0506   3.0794   3.0891   3.1980   3.8264   4.2201
     5.4935   5.5139   5.6844   5.9911   6.1457   6.1836   6.2011   6.2277
     6.2391   6.5829   6.6983   6.7538   6.8709   7.0475   7.1928   7.2320
     7.4696   7.7644   7.7733   7.8184   7.9130   7.9463   7.9660   8.0406
     8.1653   8.2343   8.2871   8.5665   8.6591   8.7794   8.8503   8.9039
     8.9079   9.0317

          k =-0.5000 0.5236 0.0000 ( 70706 PWs)   bands (ev):

   -40.9962 -38.4049 -38.0126 -35.6431 -22.8323 -22.7741 -22.6875 -22.6581
   -22.4835 -22.4738 -22.4636 -22.3707 -21.1203 -21.0308 -20.9416 -19.4990
   -19.4786 -19.3918 -18.3758 -18.3546 -18.3465 -16.9155 -16.9108 -16.8873
   -15.7917 -15.5188 -15.2378 -14.8280 -14.8274 -14.7513 -14.6443 -14.6322
   -14.6319 -14.6201 -14.5932 -14.5147 -14.4638 -14.4401 -14.3386 -14.2901
   -14.2135 -14.1389 -14.0701 -13.9737 -13.9434 -13.9305 -13.9251 -13.9227
   -13.9010 -13.8784 -13.7703 -13.7204 -13.7167 -13.6098  -8.3624  -8.3282
    -8.2641  -8.2357  -8.2348  -8.1506  -8.0877  -8.0617  -8.0083  -7.9692
    -7.9410  -7.9409  -7.8453  -7.8206  -7.7222  -7.6997  -7.6945  -7.6834
    -7.6650  -7.6542  -7.4930  -7.4796  -7.4357  -7.3480  -3.6497  -3.4811
    -3.0653  -2.9878  -2.7428  -2.7257  -2.7017  -2.5924  -2.5339  -2.5257
    -2.4939  -2.4706  -2.3080  -2.2679  -2.1706  -2.1628  -2.1421  -2.1410
    -2.1326  -2.1294  -2.1023  -2.0988  -2.0426  -2.0187  -2.0087  -2.0072
    -1.9841  -1.8941  -1.8876  -1.8502  -1.7411  -1.5633  -1.5109  -1.4444
    -1.4242  -1.4144  -1.3964  -1.3361  -1.3229  -1.2319  -1.1787  -1.1342
    -1.1160  -0.9525  -0.9492  -0.9253  -0.8938  -0.8775  -0.8447  -0.7919
    -0.7812  -0.7124  -0.6354  -0.6205  -0.6137  -0.6073  -0.5703  -0.5473
    -0.5075  -0.4306  -0.4241  -0.3948  -0.3918  -0.3804  -0.3403  -0.3137
    -0.2642  -0.2478  -0.2418  -0.2020  -0.1609  -0.1281  -0.1231   0.0215
     0.0691   0.1173   0.1576   0.2615   0.2758   0.3193   0.3937   0.3990
     0.4215   0.5161   0.5399   0.5749   0.5772   0.6334   0.6381   0.6587
     0.6640   0.8029   0.8089   0.8333   0.9002   0.9250   0.9925   1.0076
     1.0461   1.0512   1.0617   1.0619   1.1114   1.1320   1.1329   1.1481
     1.1563   1.1611   1.2206   1.3335   1.3861   1.4251   1.4448   1.4639
     1.4645   1.5072   1.5248   1.5407   1.5465   1.5672   1.5974   1.6094
     1.6193   1.6281   1.6360   1.6699   1.6766   1.6889   1.7243   1.7319
     1.7858   1.8242   1.8243   1.8413   1.8757   1.9331   2.0109   2.0202
     2.0565   2.0566   2.1005   2.1140   2.1263   2.2195   2.2405   2.4105
     3.0008   3.0844   3.1117   3.1423   3.1828   3.1886   3.2900   3.3422
     3.4430   3.5271   3.5516   3.6597   3.6773   3.7103   4.0138   4.2812
     5.3961   5.6358   5.8728   6.1219   6.1955   6.5064   6.6998   6.7277
     6.7682   6.7762   6.8671   6.9372   7.0076   7.2464   7.2878   7.3324
     7.5403   7.7677   8.1028   8.2470   8.3563   8.3775   8.4515   8.4661
     8.5038   8.6697   8.7940   8.8261   8.8629   8.9996   9.1366   9.1416
     9.1535   9.2401

          k =-0.5000 0.7854 0.0000 ( 70746 PWs)   bands (ev):

   -40.9911 -38.4017 -38.0061 -35.6390 -22.7770 -22.7223 -22.6322 -22.6027
   -22.4277 -22.4180 -22.4081 -22.3190 -21.2193 -21.0218 -20.9212 -19.5565
   -19.4728 -19.3771 -18.5848 -18.3297 -18.2491 -17.0192 -16.8995 -16.8256
   -15.6546 -15.3716 -15.2798 -14.9093 -14.6996 -14.6733 -14.5996 -14.5924
   -14.5254 -14.4530 -14.4321 -14.4207 -14.3975 -14.3451 -14.2467 -14.2300
   -14.1590 -14.1259 -14.0249 -14.0235 -13.9701 -13.9533 -13.8893 -13.8838
   -13.8831 -13.8753 -13.8122 -13.7861 -13.7835 -13.7146  -8.5192  -8.4074
    -8.3908  -8.3522  -8.2817  -8.2128  -8.1824  -8.1646  -8.0971  -8.0591
    -8.0433  -7.9879  -7.9735  -7.9433  -7.8942  -7.8936  -7.8278  -7.7525
    -7.7364  -7.6939  -7.6898  -7.6884  -7.6432  -7.5295  -4.0689  -3.8084
    -3.5771  -3.3971  -3.1793  -3.1576  -3.0399  -3.0384  -2.9814  -2.9572
    -2.7589  -2.7579  -2.7334  -2.7291  -2.7050  -2.5905  -2.4592  -2.3282
    -2.2522  -2.2479  -2.1810  -2.1799  -2.1656  -2.1217  -2.0660  -2.0271
    -2.0221  -1.9829  -1.8742  -1.8241  -1.7708  -1.7455  -1.6694  -1.6402
    -1.6281  -1.5794  -1.4973  -1.4658  -1.4072  -1.3765  -1.2966  -1.2896
    -1.2805  -1.1387  -1.1200  -1.0726  -1.0470  -0.9754  -0.9231  -0.9150
    -0.8456  -0.8205  -0.8179  -0.8049  -0.7812  -0.7122  -0.6972  -0.6825
    -0.6513  -0.6052  -0.5769  -0.5745  -0.5715  -0.5663  -0.5055  -0.4831
    -0.4625  -0.3972  -0.2742  -0.2429  -0.2162  -0.1918  -0.1449   0.0850
     0.1004   0.2228   0.2415   0.3449   0.3738   0.4585   0.4718   0.4874
     0.5204   0.5852   0.6391   0.6838   0.7022   0.7424   0.7603   0.8610
     0.8840   0.9116   0.9961   1.0426   1.0678   1.0881   1.1168   1.1553
     1.1807   1.1970   1.2345   1.2589   1.2643   1.3485   1.3738   1.4310
     1.4357   1.4663   1.4692   1.4881   1.4942   1.5527   1.5602   1.5682
     1.6046   1.6160   1.6434   1.6490   1.6517   1.6729   1.7087   1.7405
     1.7819   1.8030   1.8159   1.8199   1.8235   1.8606   1.8622   1.8969
     1.9197   1.9324   1.9730   2.0338   2.0446   2.0635   2.0690   2.1537
     2.2239   2.3750   2.4260   2.4364   2.4430   2.4669   2.4686   2.5149
     2.9785   3.0038   3.0441   3.0597   3.2382   3.2814   3.5329   3.5782
     3.7226   3.7326   3.7580   3.8568   3.9699   3.9920   4.3664   4.3944
     5.5627   5.7394   5.8928   6.1061   6.1668   6.3090   6.7426   6.8495
     6.8899   6.9582   6.9829   7.1317   7.2055   7.3955   7.4360   7.6477
     7.7507   7.9332   8.1995   8.2782   8.7587   8.7769   8.8420   8.8558
     8.8947   8.9266   8.9737   9.1285   9.3038   9.4333   9.4711   9.4979
     9.5894   9.6109

          k =-0.5000-1.0472 0.0000 ( 70756 PWs)   bands (ev):

   -40.9891 -38.4003 -38.0034 -35.6373 -22.7537 -22.7005 -22.6089 -22.5793
   -22.4042 -22.3944 -22.3846 -22.2972 -21.2603 -21.0181 -20.9116 -19.5804
   -19.4703 -19.3707 -18.6653 -18.3227 -18.2021 -17.0699 -16.8931 -16.7889
   -15.5814 -15.3155 -15.2885 -14.9680 -14.7219 -14.6570 -14.5873 -14.5846
   -14.4972 -14.4225 -14.3760 -14.3166 -14.2852 -14.2372 -14.2304 -14.2147
   -14.1136 -14.0895 -14.0365 -14.0266 -14.0258 -14.0020 -13.8648 -13.8640
   -13.8593 -13.8463 -13.8458 -13.8123 -13.8056 -13.7917  -8.5455  -8.4088
    -8.3942  -8.3435  -8.2888  -8.2143  -8.1897  -8.1768  -8.1506  -8.1171
    -8.0794  -8.0689  -8.0543  -8.0456  -7.9668  -7.9642  -7.8905  -7.8762
    -7.8490  -7.8054  -7.7121  -7.6828  -7.6450  -7.6276  -4.2405  -3.9405
    -3.7784  -3.5582  -3.3763  -3.3549  -3.2447  -3.2095  -3.1933  -3.1418
    -2.9917  -2.9910  -2.9672  -2.9593  -2.6654  -2.6145  -2.5164  -2.4351
    -2.3341  -2.2246  -2.2016  -2.1870  -2.1606  -2.1342  -2.0804  -2.0453
    -2.0021  -1.9577  -1.9245  -1.8925  -1.8031  -1.8025  -1.7521  -1.7115
    -1.6107  -1.6030  -1.5160  -1.5020  -1.4499  -1.4388  -1.4271  -1.4147
    -1.3232  -1.1630  -1.1270  -1.1221  -1.0989  -1.0283  -1.0237  -1.0125
    -0.9162  -0.9095  -0.8724  -0.8319  -0.7687  -0.7640  -0.7620  -0.6975
    -0.6682  -0.6670  -0.6545  -0.6505  -0.6439  -0.5646  -0.5251  -0.5099
    -0.4975  -0.4115  -0.2956  -0.2711  -0.2144  -0.1988  -0.1378   0.1023
     0.1126   0.2736   0.2850   0.3738   0.4143   0.4875   0.4996   0.5013
     0.5522   0.5993   0.6173   0.7560   0.7708   0.7730   0.8317   0.9395
     1.0061   1.0501   1.0643   1.1093   1.1447   1.1912   1.2192   1.2353
     1.2697   1.2771   1.3176   1.3295   1.3383   1.3703   1.3936   1.3976
     1.4217   1.4312   1.4455   1.4535   1.5129   1.5146   1.5203   1.5288
     1.5908   1.6488   1.6757   1.7203   1.7328   1.7710   1.8004   1.8407
     1.8471   1.8491   1.8978   1.9054   1.9557   1.9651   1.9822   1.9864
     2.0300   2.0790   2.0842   2.1394   2.2038   2.2578   2.2619   2.2674
     2.2683   2.4882   2.5297   2.6057   2.6146   2.6200   2.6408   2.7304
     2.7763   2.7913   2.8506   2.8625   3.2781   3.3034   3.5469   3.6324
     3.7031   3.7311   3.8016   3.8870   4.0291   4.0388   4.4712   4.5559
     5.6930   5.7792   5.9481   5.9989   6.0890   6.2478   6.6955   6.7894
     6.8370   6.8970   6.9956   7.0558   7.2690   7.4487   7.4998   7.6747
     8.0958   8.3097   8.3140   8.4005   8.4672   8.8558   9.0575   9.0687
     9.1362   9.1761   9.2912   9.4608   9.5213   9.5290   9.6363   9.6468
     9.6916   9.6924

     the Fermi energy is     2.7860 ev

!    total energy              =   -3711.32818439 Ry
     Harris-Foulkes estimate   =   -3711.32818439 Ry
     estimated scf accuracy    <          8.9E-09 Ry

     The total energy is the sum of the following terms:

     one-electron contribution =  -62132.95346094 Ry
     hartree contribution      =   31370.92245569 Ry
     xc contribution           =   -1263.52428092 Ry
     ewald contribution        =   28314.24044657 Ry
     smearing contrib. (-TS)   =      -0.01334479 Ry

     convergence has been achieved in  35 iterations

     negative rho (up, down):  9.129E-02 0.000E+00

     Forces acting on atoms (cartesian axes, Ry/au):

     atom    1 type  4   force =    -0.00000647    0.00000000   -0.00011343
     atom    2 type  4   force =     0.00000647    0.00000000   -0.00011343
     atom    3 type  3   force =    -0.00001967    0.00000000   -0.00007039
     atom    4 type  3   force =     0.00001967    0.00000000   -0.00007039
     atom    5 type  4   force =     0.00000022    0.00000000   -0.00003857
     atom    6 type  4   force =    -0.00000022    0.00000000   -0.00003857
     atom    7 type  1   force =     0.00000000    0.00000000   -0.00010312
     atom    8 type  1   force =     0.00000000    0.00000000   -0.00009425
     atom    9 type  3   force =     0.00001234    0.00000000   -0.00003580
     atom   10 type  3   force =    -0.00001234    0.00000000   -0.00003580
     atom   11 type  4   force =     0.00000000    0.00000000    0.00010168
     atom   12 type  4   force =    -0.00000686    0.00000000    0.00002646
     atom   13 type  4   force =     0.00000686    0.00000000    0.00002646
     atom   14 type  4   force =     0.00000000    0.00000000    0.00014189
     atom   15 type  2   force =     0.00000000    0.00000000   -0.00040352
     atom   16 type  5   force =     0.00000000    0.00000000   -0.00062771
     atom   17 type  4   force =     0.00008200    0.00000000    0.00066605
     atom   18 type  4   force =    -0.00008200    0.00000000    0.00066605
     atom   19 type  4   force =     0.00000000    0.00000000    0.00073112
     atom   20 type  4   force =     0.00000000    0.00000000    0.00094767
     atom   21 type  3   force =    -0.00003628    0.00000000   -0.00109455
     atom   22 type  3   force =     0.00003628    0.00000000   -0.00109455
     atom   23 type  1   force =     0.00000000    0.00000000   -0.00183574
     atom   24 type  1   force =     0.00000000    0.00000000   -0.00193875
     atom   25 type  4   force =    -0.00018236    0.00000000    0.00357668
     atom   26 type  4   force =     0.00018236    0.00000000    0.00357668
     atom   27 type  4   force =    -0.00008547    0.00000000    0.00439624
     atom   28 type  4   force =     0.00008547    0.00000000    0.00439624
     atom   29 type  3   force =     0.00150839    0.00000000   -0.00826933
     atom   30 type  3   force =    -0.00150839    0.00000000   -0.00826933
     atom   31 type  4   force =     0.00018068    0.00000000    0.01187512
     atom   32 type  4   force =    -0.00018068    0.00000000    0.01187512
     atom   33 type  1   force =     0.00000000    0.00000000   -0.02293991
     atom   34 type  1   force =     0.00000000    0.00000000   -0.01628596
     atom   35 type  3   force =    -0.00297396    0.00000000    0.00490815
     atom   36 type  3   force =     0.00297396    0.00000000    0.00490815
     atom   37 type  4   force =     0.00000000    0.00000000    0.05244060
     atom   38 type  4   force =     0.00000000    0.00000000    0.08056175
     atom   39 type  4   force =     0.02035499    0.00000000    0.06733951
     atom   40 type  4   force =    -0.02035499    0.00000000    0.06733951
     atom   41 type  5   force =     0.00000000    0.00000000   -0.07426297
     atom   42 type  2   force =     0.00000000    0.00000000   -0.03291696
     atom   43 type  4   force =     0.00000000    0.00000000   -0.02013359
     atom   44 type  4   force =    -0.00102299    0.00000000   -0.01703997
     atom   45 type  4   force =     0.00102299    0.00000000   -0.01703997
     atom   46 type  4   force =     0.00000000    0.00000000   -0.00255137
     atom   47 type  3   force =     0.00116883    0.00000000   -0.02146002
     atom   48 type  3   force =    -0.00116883    0.00000000   -0.02146002
     atom   49 type  1   force =     0.00000000    0.00000000   -0.02121738
     atom   50 type  1   force =     0.00000000    0.00000000   -0.02671686
     atom   51 type  4   force =     0.00062581    0.00000000   -0.00119276
     atom   52 type  4   force =    -0.00062581    0.00000000   -0.00119276
     atom   53 type  3   force =    -0.00014594    0.00000000    0.00001566
     atom   54 type  3   force =     0.00014594    0.00000000    0.00001566
     atom   55 type  4   force =     0.00004131    0.00000000    0.00006261
     atom   56 type  4   force =    -0.00004131    0.00000000    0.00006261

     Total force =     0.173725     Total SCF correction =     0.000389


     Computing stress (Cartesian axis) and pressure


     negative rho (up, down):  9.129E-02 0.000E+00
          total   stress  (Ry/bohr**3)                   (kbar)     P=       -9.13
  -0.00000906   0.00000000   0.00000000           -1.33        0.00        0.00
   0.00000000   0.00001216   0.00000000            0.00        1.79        0.00
   0.00000000   0.00000000  -0.00018926            0.00        0.00      -27.84

 
     init_run     :     24.51s CPU     26.08s WALL (       1 calls)
     electrons    :   1671.52s CPU   1791.83s WALL (       1 calls)
     forces       :     10.55s CPU     11.31s WALL (       1 calls)
     stress       :    103.12s CPU    105.16s WALL (       1 calls)

     Called by init_run:
     wfcinit      :     20.07s CPU     20.97s WALL (       1 calls)
     potinit      :      1.00s CPU      1.01s WALL (       1 calls)
     hinit0       :      1.66s CPU      1.69s WALL (       1 calls)

     Called by electrons:
     c_bands      :   1392.90s CPU   1464.77s WALL (      35 calls)
     sum_band     :    211.99s CPU    239.27s WALL (      35 calls)
     v_of_rho     :      4.27s CPU      4.33s WALL (      36 calls)
     newd         :     30.01s CPU     51.04s WALL (      36 calls)
     mix_rho      :     32.87s CPU     33.23s WALL (      35 calls)

     Called by c_bands:
     init_us_2    :     11.65s CPU     11.77s WALL (    1825 calls)
     cegterg      :   1328.03s CPU   1372.90s WALL (     875 calls)

     Called by sum_band:
     sum_band:bec :      1.13s CPU      1.14s WALL (     875 calls)
     addusdens    :     33.90s CPU     58.71s WALL (      35 calls)

     Called by *egterg:
     h_psi        :    663.32s CPU    678.63s WALL (    3976 calls)
     s_psi        :    101.56s CPU    102.14s WALL (    3976 calls)
     g_psi        :      1.70s CPU      1.72s WALL (    3076 calls)
     cdiaghg      :    271.46s CPU    272.66s WALL (    3951 calls)

     Called by h_psi:
     h_psi:calbec :    107.81s CPU    108.37s WALL (    3976 calls)
     vloc_psi     :    450.39s CPU    457.68s WALL (    3976 calls)
     add_vuspsi   :    101.93s CPU    102.55s WALL (    3976 calls)

     General routines
     calbec       :    163.22s CPU    164.01s WALL (    4976 calls)
     fft          :      3.77s CPU      3.80s WALL (     491 calls)
     ffts         :     17.66s CPU     17.87s WALL (   19719 calls)
     fftw         :    513.04s CPU    521.28s WALL ( 1237336 calls)
     interpolate  :      0.31s CPU      0.31s WALL (      36 calls)
 
     Parallel routines
     fft_scatt_xy :     61.13s CPU     62.19s WALL ( 1257546 calls)
     fft_scatt_yz :    332.20s CPU    337.51s WALL ( 1257546 calls)
 
     PWSCF        :  30m10.74s CPU  32m15.52s WALL

 
   This run was terminated on:   0:32:53  28May2021            

=------------------------------------------------------------------------------=
   JOB DONE.
=------------------------------------------------------------------------------=
[1622176373.481898] [holy7c06501:116479:0]          mpool.c:43   UCX  WARN  object 0x327b800 was not returned to mpool ucp_requests
[1622176373.476087] [holy7c06409:248572:0]          mpool.c:43   UCX  WARN  object 0x2c14180 was not returned to mpool ucp_requests
[1622176373.484292] [holy7c06406:147180:0]          mpool.c:43   UCX  WARN  object 0x3351ac0 was not returned to mpool ucp_requests
[1622176373.484310] [holy7c06406:147180:0]          mpool.c:43   UCX  WARN  object 0x3352000 was not returned to mpool ucp_requests
[1622176373.487186] [holy7c06405:88621:0]          mpool.c:43   UCX  WARN  object 0x2ea20c0 was not returned to mpool ucp_requests
[1622176373.487214] [holy7c06405:88621:0]          mpool.c:43   UCX  WARN  object 0x2ea2440 was not returned to mpool ucp_requests
[1622176373.489800] [holy7c06405:88625:0]          mpool.c:43   UCX  WARN  object 0x2e501c0 was not returned to mpool ucp_requests
[1622176373.491742] [holy7c06405:88619:0]          mpool.c:43   UCX  WARN  object 0x30db800 was not returned to mpool ucp_requests
[1622176373.489603] [holy7c06405:88620:0]          mpool.c:43   UCX  WARN  object 0x3a7c6c0 was not returned to mpool ucp_requests
[1622176373.489303] [holy7c06405:88624:0]          mpool.c:43   UCX  WARN  object 0x3f31480 was not returned to mpool ucp_requests
[1622176373.489332] [holy7c06405:88624:0]          mpool.c:43   UCX  WARN  object 0x3f31800 was not returned to mpool ucp_requests
[1622176373.476034] [holy7c06409:248570:0]          mpool.c:43   UCX  WARN  object 0x2965340 was not returned to mpool ucp_requests
[1622176373.476053] [holy7c06409:248570:0]          mpool.c:43   UCX  WARN  object 0x2965880 was not returned to mpool ucp_requests
[1622176373.476055] [holy7c06409:248570:0]          mpool.c:43   UCX  WARN  object 0x2965a40 was not returned to mpool ucp_requests
[1622176373.486052] [holy7c06406:147178:0]          mpool.c:43   UCX  WARN  object 0x2bcc480 was not returned to mpool ucp_requests
[1622176373.486758] [holy7c06406:147182:0]          mpool.c:43   UCX  WARN  object 0x3aea340 was not returned to mpool ucp_requests
[1622176373.485150] [holy7c06406:147175:0]          mpool.c:43   UCX  WARN  object 0x47c17c0 was not returned to mpool ucp_requests
[1622176373.485167] [holy7c06406:147175:0]          mpool.c:43   UCX  WARN  object 0x47c1980 was not returned to mpool ucp_requests
[1622176373.485169] [holy7c06406:147175:0]          mpool.c:43   UCX  WARN  object 0x47c1b40 was not returned to mpool ucp_requests
[1622176373.480637] [holy7c06406:147183:0]          mpool.c:43   UCX  WARN  object 0x2e741c0 was not returned to mpool ucp_requests
