
     Program PWSCF v.6.5 starts on  1Jun2021 at 15:22: 2 

     This program is part of the open-source Quantum ESPRESSO suite
     for quantum simulation of materials; please cite
         "P. Giannozzi et al., J. Phys.:Condens. Matter 21 395502 (2009);
         "P. Giannozzi et al., J. Phys.:Condens. Matter 29 465901 (2017);
          URL http://www.quantum-espresso.org", 
     in publications or presentations arising from this work. More details at
     http://www.quantum-espresso.org/quote

     Parallel version (MPI), running on    32 processors

     MPI processes distributed on     7 nodes
     R & G space division:  proc/nbgrp/npool/nimage =      32
     Reading input from YCBCO50_212_Y_cleave_5.0_sep.pwi
Warning: card &IONS ignored
Warning: card     ION_DYNAMICS = 'BFGS' ignored
Warning: card / ignored
Warning: card &CELL ignored
Warning: card     CELL_DYNAMICS = 'BFGS' ignored
Warning: card     PRESS_CONV_THR = 5 ignored
Warning: card / ignored

     Current dimensions of program PWSCF are:
     Max number of different atomic species (ntypx) = 10
     Max number of k-points (npk) =  40000
     Max angular momentum in pseudopotentials (lmaxx) =  3

     Subspace diagonalization in iterative solution of the eigenvalue problem:
     one sub-group per band group will be used
     scalapack distributed-memory algorithm (size of sub-group:  5*  5 procs)

     Message from routine setup:
     using ibrav=0 with symmetry is DISCOURAGED, use correct ibrav instead
 
     Parallelization info
     --------------------
     sticks:   dense  smooth     PW     G-vecs:    dense   smooth      PW
     Min         188      62     17                98946    19030    2839
     Max         189      63     18                98978    19081    2884
     Sum        6019    2003    565              3166881   609811   91731
 


     bravais-lattice index     =            0
     lattice parameter (alat)  =      14.8133  a.u.
     unit-cell volume          =    9707.1835 (a.u.)^3
     number of atoms/cell      =           56
     number of atomic types    =            5
     number of electrons       =       456.00
     number of Kohn-Sham states=          274
     kinetic-energy cutoff     =      60.0000  Ry
     charge density cutoff     =     720.0000  Ry
     convergence threshold     =      1.0E-08
     mixing beta               =       0.5000
     number of iterations used =           10  local-TF  mixing
     Exchange-correlation= SLA PW PBE PBE
                           (   1   4   3   4   0   0   0)

     celldm(1)=  14.813271  celldm(2)=   0.000000  celldm(3)=   0.000000
     celldm(4)=   0.000000  celldm(5)=   0.000000  celldm(6)=   0.000000

     crystal axes: (cart. coord. in units of alat)
               a(1) = (   1.000000   0.000000   0.000000 )  
               a(2) = (   0.000000   0.477453   0.000000 )  
               a(3) = (   0.000000   0.000000   6.254750 )  

     reciprocal axes: (cart. coord. in units 2 pi/alat)
               b(1) = (  1.000000  0.000000  0.000000 )  
               b(2) = (  0.000000  2.094448  0.000000 )  
               b(3) = (  0.000000  0.000000  0.159878 )  


     PseudoPot. # 1 for Ba read from file:
     ./pseudo/Ba.pbe-nsp-van.UPF
     MD5 check sum: 2b9c31dd849566dd297d80989662b7a0
     Pseudo is Ultrasoft + core correction, Zval = 10.0
     Generated by new atomic code, or converted to UPF format
     Using radial grid of  907 points,  6 beta functions with: 
                l(1) =   0
                l(2) =   0
                l(3) =   1
                l(4) =   1
                l(5) =   2
                l(6) =   2
     Q(r) pseudized with  6 coefficients,  rinner =    1.200   1.200   1.200
                                                       1.200   1.200

     PseudoPot. # 2 for Ca read from file:
     ./pseudo/Ca.pbe-nsp-van.UPF
     MD5 check sum: 6471098428ff4fa451746d08035ff179
     Pseudo is Ultrasoft + core correction, Zval = 10.0
     Generated by new atomic code, or converted to UPF format
     Using radial grid of  845 points,  6 beta functions with: 
                l(1) =   0
                l(2) =   0
                l(3) =   1
                l(4) =   1
                l(5) =   2
                l(6) =   2
     Q(r) pseudized with  6 coefficients,  rinner =    1.200   1.200   1.200
                                                       1.200   1.200

     PseudoPot. # 3 for Cu read from file:
     ./pseudo/Cu.pbe-n-van_ak.UPF
     MD5 check sum: 34e3282627ffb533726feb647e090d62
     Pseudo is Ultrasoft + core correction, Zval = 11.0
     Generated by new atomic code, or converted to UPF format
     Using radial grid of  867 points,  6 beta functions with: 
                l(1) =   0
                l(2) =   0
                l(3) =   1
                l(4) =   1
                l(5) =   2
                l(6) =   2
     Q(r) pseudized with  8 coefficients,  rinner =    1.400   1.400   1.400
                                                       1.400   1.400

     PseudoPot. # 4 for O  read from file:
     ./pseudo/O.pbe-van_ak.UPF
     MD5 check sum: 783ce7fe4c79b6a4916957118fed0856
     Pseudo is Ultrasoft, Zval =  6.0
     Generated by new atomic code, or converted to UPF format
     Using radial grid of  737 points,  4 beta functions with: 
                l(1) =   0
                l(2) =   0
                l(3) =   1
                l(4) =   1
     Q(r) pseudized with  8 coefficients,  rinner =    0.800   0.800   0.800


     PseudoPot. # 5 for Y  read from file:
     ./pseudo/Y.pbe-nsp-van.UPF
     MD5 check sum: 4412fed3ab108fed87a1b7d6a69a4a38
     Pseudo is Ultrasoft + core correction, Zval = 11.0
     Generated by new atomic code, or converted to UPF format
     Using radial grid of  885 points,  6 beta functions with: 
                l(1) =   0
                l(2) =   0
                l(3) =   1
                l(4) =   1
                l(5) =   2
                l(6) =   2
     Q(r) pseudized with  6 coefficients,  rinner =    1.200   1.200   1.200
                                                       1.200   1.200

     atomic species   valence    mass     pseudopotential
        Ba            10.00   137.32700     Ba( 1.00)
        Ca            10.00    40.07800     Ca( 1.00)
        Cu            11.00    63.54600     Cu( 1.00)
        O              6.00    15.99900     O ( 1.00)
        Y             11.00    88.90584     Y ( 1.00)

      4 Sym. Ops. (no inversion) found ( 2 have fractional translation)



   Cartesian axes

     site n.     atom                  positions (alat units)
         1           O   tau(   1) = (  -0.0008343   0.2387265  -0.0222443  )
         2           O   tau(   2) = (   0.5008340   0.2387265  -0.0222443  )
         3           Cu  tau(   3) = (   0.5017257   0.0000000   0.0109608  )
         4           Cu  tau(   4) = (  -0.0017260   0.0000000   0.0109608  )
         5           O   tau(   5) = (  -0.0028933   0.0000000   0.2506504  )
         6           O   tau(   6) = (   0.5028929   0.0000000   0.2506504  )
         7           Ba  tau(   7) = (   0.7499995   0.2387265   0.2749435  )
         8           Ba  tau(   8) = (   0.2499998   0.2387265   0.2755214  )
         9           Cu  tau(   9) = (   0.4980963   0.0000000   0.5208446  )
        10           Cu  tau(  10) = (   0.0019033   0.0000000   0.5208446  )
        11           O   tau(  11) = (   0.2499998   0.0000000   0.5341884  )
        12           O   tau(  12) = (   0.5083351   0.2387265   0.5569851  )
        13           O   tau(  13) = (  -0.0083354   0.2387265   0.5569851  )
        14           O   tau(  14) = (   0.7499995   0.0000000   0.5573831  )
        15           Ca  tau(  15) = (   0.2499998   0.2387265   0.7436937  )
        16           Y   tau(  16) = (   0.7499995   0.2387265   0.7469544  )
        17           O   tau(  17) = (  -0.0063798   0.2387265   0.9248530  )
        18           O   tau(  18) = (   0.5063794   0.2387265   0.9248530  )
        19           O   tau(  19) = (   0.7499995   0.0000000   0.9338544  )
        20           O   tau(  20) = (   0.2499998   0.0000000   0.9461329  )
        21           Cu  tau(  21) = (   0.0015717   0.0000000   0.9686860  )
        22           Cu  tau(  22) = (   0.4984280   0.0000000   0.9686860  )
        23           Ba  tau(  23) = (   0.2499998   0.2387265   1.2085224  )
        24           Ba  tau(  24) = (   0.7499995   0.2387265   1.2233294  )
        25           O   tau(  25) = (   0.0063772   0.0000000   1.2547537  )
        26           O   tau(  26) = (   0.4936224   0.0000000   1.2547537  )
        27           O   tau(  27) = (   0.5384045   0.2387265   1.4952521  )
        28           O   tau(  28) = (  -0.0384049   0.2387265   1.4952521  )
        29           Cu  tau(  29) = (   0.5006120   0.0000000   1.4952546  )
        30           Cu  tau(  30) = (  -0.0006123   0.0000000   1.4952546  )
        31           O   tau(  31) = (   0.4936212   0.0000000   1.7357531  )
        32           O   tau(  32) = (   0.0063785   0.0000000   1.7357531  )
        33           Ba  tau(  33) = (   0.7499995   0.2387265   1.7671824  )
        34           Ba  tau(  34) = (   0.2499998   0.2387265   1.7819920  )
        35           Cu  tau(  35) = (   0.4984280   0.0000000   2.0218232  )
        36           Cu  tau(  36) = (   0.0015717   0.0000000   2.0218232  )
        37           O   tau(  37) = (   0.2499998   0.0000000   2.0443814  )
        38           O   tau(  38) = (   0.7499995   0.0000000   2.0566511  )
        39           O   tau(  39) = (   0.5063781   0.2387265   2.0656562  )
        40           O   tau(  40) = (  -0.0063785   0.2387265   2.0656562  )
        41           Y   tau(  41) = (   0.7499995   0.2387265   2.2435498  )
        42           Ca  tau(  42) = (   0.2499998   0.2387265   2.2468194  )
        43           O   tau(  43) = (   0.7499995   0.0000000   3.0709663  )
        44           O   tau(  44) = (  -0.0083354   0.2387265   3.0713681  )
        45           O   tau(  45) = (   0.5083351   0.2387265   3.0713681  )
        46           O   tau(  46) = (   0.2499998   0.0000000   3.0941661  )
        47           Cu  tau(  47) = (   0.0019059   0.0000000   3.1074997  )
        48           Cu  tau(  48) = (   0.4980938   0.0000000   3.1074997  )
        49           Ba  tau(  49) = (   0.2499998   0.2387265   3.3528394  )
        50           Ba  tau(  50) = (   0.7499995   0.2387265   3.3533816  )
        51           O   tau(  51) = (  -0.0028895   0.0000000   3.3776887  )
        52           O   tau(  52) = (   0.5028891   0.0000000   3.3776887  )
        53           Cu  tau(  53) = (   0.5017844   0.0000000   3.6173733  )
        54           Cu  tau(  54) = (  -0.0017847   0.0000000   3.6173733  )
        55           O   tau(  55) = (   0.5008990   0.2387265   3.6505797  )
        56           O   tau(  56) = (  -0.0008994   0.2387265   3.6505797  )

     number of k points=    25  Gaussian smearing, width (Ry)=  0.0100
                       cart. coord. in units 2pi/alat
        k(    1) = (   0.0000000   0.0000000   0.0000000), wk =   0.0312500
        k(    2) = (   0.0000000   0.2618060   0.0000000), wk =   0.0625000
        k(    3) = (   0.0000000   0.5236121   0.0000000), wk =   0.0625000
        k(    4) = (   0.0000000   0.7854181   0.0000000), wk =   0.0625000
        k(    5) = (   0.0000000  -1.0472241   0.0000000), wk =   0.0312500
        k(    6) = (   0.1250000   0.0000000   0.0000000), wk =   0.0625000
        k(    7) = (   0.1250000   0.2618060   0.0000000), wk =   0.1250000
        k(    8) = (   0.1250000   0.5236121   0.0000000), wk =   0.1250000
        k(    9) = (   0.1250000   0.7854181   0.0000000), wk =   0.1250000
        k(   10) = (   0.1250000  -1.0472241   0.0000000), wk =   0.0625000
        k(   11) = (   0.2500000   0.0000000   0.0000000), wk =   0.0625000
        k(   12) = (   0.2500000   0.2618060   0.0000000), wk =   0.1250000
        k(   13) = (   0.2500000   0.5236121   0.0000000), wk =   0.1250000
        k(   14) = (   0.2500000   0.7854181   0.0000000), wk =   0.1250000
        k(   15) = (   0.2500000  -1.0472241   0.0000000), wk =   0.0625000
        k(   16) = (   0.3750000   0.0000000   0.0000000), wk =   0.0625000
        k(   17) = (   0.3750000   0.2618060   0.0000000), wk =   0.1250000
        k(   18) = (   0.3750000   0.5236121   0.0000000), wk =   0.1250000
        k(   19) = (   0.3750000   0.7854181   0.0000000), wk =   0.1250000
        k(   20) = (   0.3750000  -1.0472241   0.0000000), wk =   0.0625000
        k(   21) = (  -0.5000000   0.0000000   0.0000000), wk =   0.0312500
        k(   22) = (  -0.5000000   0.2618060   0.0000000), wk =   0.0625000
        k(   23) = (  -0.5000000   0.5236121   0.0000000), wk =   0.0625000
        k(   24) = (  -0.5000000   0.7854181   0.0000000), wk =   0.0625000
        k(   25) = (  -0.5000000  -1.0472241   0.0000000), wk =   0.0312500

     Dense  grid:  3166881 G-vectors     FFT dimensions: ( 128,  64, 800)

     Smooth grid:   609811 G-vectors     FFT dimensions: (  80,  36, 480)

     Estimated max dynamical RAM per process >     914.93 MB

     Estimated total dynamical RAM >      28.59 GB

     Initial potential from superposition of free atoms

     starting charge  455.69457, renormalised to  456.00000

     negative rho (up, down):  9.342E-02 0.000E+00
     Starting wfcs are  396 randomized atomic wfcs

     total cpu time spent up to now is       30.0 secs

     Self-consistent Calculation

     iteration #  1     ecut=    60.00 Ry     beta= 0.50
     Davidson diagonalization with overlap
     ethr =  1.00E-02,  avg # of iterations =  2.0

     negative rho (up, down):  8.592E-02 0.000E+00

     total cpu time spent up to now is       80.9 secs

     total energy              =   -3708.34700390 Ry
     Harris-Foulkes estimate   =   -3716.37038439 Ry
     estimated scf accuracy    <      31.22346711 Ry

     iteration #  2     ecut=    60.00 Ry     beta= 0.50
     Davidson diagonalization with overlap
     ethr =  6.85E-03,  avg # of iterations =  2.0

     negative rho (up, down):  8.536E-02 0.000E+00

     total cpu time spent up to now is      131.3 secs

     total energy              =   -3711.08491414 Ry
     Harris-Foulkes estimate   =   -3712.21865191 Ry
     estimated scf accuracy    <      18.13707483 Ry

     iteration #  3     ecut=    60.00 Ry     beta= 0.50
     Davidson diagonalization with overlap
     ethr =  3.98E-03,  avg # of iterations =  1.0

     negative rho (up, down):  8.542E-02 0.000E+00

     total cpu time spent up to now is      177.6 secs

     total energy              =   -3711.31402832 Ry
     Harris-Foulkes estimate   =   -3711.81132989 Ry
     estimated scf accuracy    <      11.67647434 Ry

     iteration #  4     ecut=    60.00 Ry     beta= 0.50
     Davidson diagonalization with overlap
     ethr =  2.56E-03,  avg # of iterations =  1.0

     negative rho (up, down):  8.598E-02 0.000E+00

     total cpu time spent up to now is      223.7 secs

     total energy              =   -3711.23273812 Ry
     Harris-Foulkes estimate   =   -3711.56993419 Ry
     estimated scf accuracy    <       5.44906052 Ry

     iteration #  5     ecut=    60.00 Ry     beta= 0.50
     Davidson diagonalization with overlap
     ethr =  1.19E-03,  avg # of iterations =  2.0

     negative rho (up, down):  8.665E-02 0.000E+00

     total cpu time spent up to now is      272.7 secs

     total energy              =   -3711.21137293 Ry
     Harris-Foulkes estimate   =   -3711.37714413 Ry
     estimated scf accuracy    <       6.65175156 Ry

     iteration #  6     ecut=    60.00 Ry     beta= 0.50
     Davidson diagonalization with overlap
     ethr =  1.19E-03,  avg # of iterations =  2.4

     negative rho (up, down):  8.830E-02 0.000E+00

     total cpu time spent up to now is      322.6 secs

     total energy              =   -3711.01471930 Ry
     Harris-Foulkes estimate   =   -3711.26620086 Ry
     estimated scf accuracy    <       5.66251460 Ry

     iteration #  7     ecut=    60.00 Ry     beta= 0.50
     Davidson diagonalization with overlap
     ethr =  1.19E-03,  avg # of iterations =  6.0

     negative rho (up, down):  8.928E-02 0.000E+00

     total cpu time spent up to now is      385.0 secs

     total energy              =   -3710.95774644 Ry
     Harris-Foulkes estimate   =   -3711.17746295 Ry
     estimated scf accuracy    <       8.80135655 Ry

     iteration #  8     ecut=    60.00 Ry     beta= 0.50
     Davidson diagonalization with overlap
     ethr =  1.19E-03,  avg # of iterations =  1.6

     negative rho (up, down):  8.911E-02 0.000E+00

     total cpu time spent up to now is      432.9 secs

     total energy              =   -3711.04085008 Ry
     Harris-Foulkes estimate   =   -3711.09840854 Ry
     estimated scf accuracy    <       0.81237356 Ry

     iteration #  9     ecut=    60.00 Ry     beta= 0.50
     Davidson diagonalization with overlap
     ethr =  1.78E-04,  avg # of iterations =  6.6

     negative rho (up, down):  8.988E-02 0.000E+00

     total cpu time spent up to now is      497.2 secs

     total energy              =   -3711.04010783 Ry
     Harris-Foulkes estimate   =   -3711.08280480 Ry
     estimated scf accuracy    <       0.82584144 Ry

     iteration # 10     ecut=    60.00 Ry     beta= 0.50
     Davidson diagonalization with overlap
     ethr =  1.78E-04,  avg # of iterations =  3.8

     negative rho (up, down):  8.989E-02 0.000E+00

     total cpu time spent up to now is      551.5 secs

     total energy              =   -3711.05475941 Ry
     Harris-Foulkes estimate   =   -3711.06239712 Ry
     estimated scf accuracy    <       0.38192440 Ry

     iteration # 11     ecut=    60.00 Ry     beta= 0.50
     Davidson diagonalization with overlap
     ethr =  8.38E-05,  avg # of iterations =  5.2

     negative rho (up, down):  8.961E-02 0.000E+00

     total cpu time spent up to now is      609.4 secs

     total energy              =   -3711.04639622 Ry
     Harris-Foulkes estimate   =   -3711.05910584 Ry
     estimated scf accuracy    <       0.47150255 Ry

     iteration # 12     ecut=    60.00 Ry     beta= 0.50
     Davidson diagonalization with overlap
     ethr =  8.38E-05,  avg # of iterations =  1.0

     negative rho (up, down):  8.963E-02 0.000E+00

     total cpu time spent up to now is      655.8 secs

     total energy              =   -3711.04994118 Ry
     Harris-Foulkes estimate   =   -3711.05161315 Ry
     estimated scf accuracy    <       0.20059649 Ry

     iteration # 13     ecut=    60.00 Ry     beta= 0.50
     Davidson diagonalization with overlap
     ethr =  4.40E-05,  avg # of iterations =  5.8

     negative rho (up, down):  8.935E-02 0.000E+00

     total cpu time spent up to now is      715.6 secs

     total energy              =   -3711.04876936 Ry
     Harris-Foulkes estimate   =   -3711.05184404 Ry
     estimated scf accuracy    <       0.21742824 Ry

     iteration # 14     ecut=    60.00 Ry     beta= 0.50
     Davidson diagonalization with overlap
     ethr =  4.40E-05,  avg # of iterations =  1.0

     negative rho (up, down):  8.900E-02 0.000E+00

     total cpu time spent up to now is      761.5 secs

     total energy              =   -3711.04590774 Ry
     Harris-Foulkes estimate   =   -3711.04939473 Ry
     estimated scf accuracy    <       0.14334074 Ry

     iteration # 15     ecut=    60.00 Ry     beta= 0.50
     Davidson diagonalization with overlap
     ethr =  3.14E-05,  avg # of iterations =  1.7

     negative rho (up, down):  8.890E-02 0.000E+00

     total cpu time spent up to now is      809.7 secs

     total energy              =   -3711.04557629 Ry
     Harris-Foulkes estimate   =   -3711.04735416 Ry
     estimated scf accuracy    <       0.08750576 Ry

     iteration # 16     ecut=    60.00 Ry     beta= 0.50
     Davidson diagonalization with overlap
     ethr =  1.92E-05,  avg # of iterations =  3.6

     negative rho (up, down):  9.536E-02 0.000E+00

     total cpu time spent up to now is      862.9 secs

     total energy              =   -3711.04353835 Ry
     Harris-Foulkes estimate   =   -3711.04587090 Ry
     estimated scf accuracy    <       0.08204104 Ry

     iteration # 17     ecut=    60.00 Ry     beta= 0.50
     Davidson diagonalization with overlap
     ethr =  1.80E-05,  avg # of iterations =  3.9

     negative rho (up, down):  1.023E-01 0.000E+00

     total cpu time spent up to now is      916.6 secs

     total energy              =   -3711.04211548 Ry
     Harris-Foulkes estimate   =   -3711.04476341 Ry
     estimated scf accuracy    <       0.04585382 Ry

     iteration # 18     ecut=    60.00 Ry     beta= 0.50
     Davidson diagonalization with overlap
     ethr =  1.01E-05,  avg # of iterations = 10.8

     negative rho (up, down):  9.580E-02 0.000E+00

     total cpu time spent up to now is      992.0 secs

     total energy              =   -3711.04111202 Ry
     Harris-Foulkes estimate   =   -3711.04274041 Ry
     estimated scf accuracy    <       0.04677969 Ry

     iteration # 19     ecut=    60.00 Ry     beta= 0.50
     Davidson diagonalization with overlap
     ethr =  1.01E-05,  avg # of iterations =  4.3

     negative rho (up, down):  9.522E-02 0.000E+00

     total cpu time spent up to now is     1046.8 secs

     total energy              =   -3711.04058996 Ry
     Harris-Foulkes estimate   =   -3711.04147487 Ry
     estimated scf accuracy    <       0.04046586 Ry

     iteration # 20     ecut=    60.00 Ry     beta= 0.50
     Davidson diagonalization with overlap
     ethr =  8.87E-06,  avg # of iterations =  3.8

     negative rho (up, down):  9.770E-02 0.000E+00

     total cpu time spent up to now is     1100.6 secs

     total energy              =   -3711.04058011 Ry
     Harris-Foulkes estimate   =   -3711.04079911 Ry
     estimated scf accuracy    <       0.02226222 Ry

     iteration # 21     ecut=    60.00 Ry     beta= 0.50
     Davidson diagonalization with overlap
     c_bands:  3 eigenvalues not converged
     c_bands:  1 eigenvalues not converged
     ethr =  4.88E-06,  avg # of iterations =  7.6

     negative rho (up, down):  9.024E-02 0.000E+00

     total cpu time spent up to now is     1165.7 secs

     total energy              =   -3711.03996208 Ry
     Harris-Foulkes estimate   =   -3711.04063003 Ry
     estimated scf accuracy    <       0.01813527 Ry

     iteration # 22     ecut=    60.00 Ry     beta= 0.50
     Davidson diagonalization with overlap
     ethr =  3.98E-06,  avg # of iterations =  6.0

     negative rho (up, down):  8.935E-02 0.000E+00

     total cpu time spent up to now is     1225.8 secs

     total energy              =   -3711.04013265 Ry
     Harris-Foulkes estimate   =   -3711.04024540 Ry
     estimated scf accuracy    <       0.00266464 Ry

     iteration # 23     ecut=    60.00 Ry     beta= 0.50
     Davidson diagonalization with overlap
     c_bands:  4 eigenvalues not converged
     ethr =  5.84E-07,  avg # of iterations =  7.0

     negative rho (up, down):  9.030E-02 0.000E+00

     total cpu time spent up to now is     1289.4 secs

     total energy              =   -3711.04011638 Ry
     Harris-Foulkes estimate   =   -3711.04023222 Ry
     estimated scf accuracy    <       0.00222038 Ry

     iteration # 24     ecut=    60.00 Ry     beta= 0.50
     Davidson diagonalization with overlap
     c_bands:  1 eigenvalues not converged
     ethr =  4.87E-07,  avg # of iterations =  6.3

     negative rho (up, down):  9.058E-02 0.000E+00

     total cpu time spent up to now is     1349.4 secs

     total energy              =   -3711.04019237 Ry
     Harris-Foulkes estimate   =   -3711.04015344 Ry
     estimated scf accuracy    <       0.00106273 Ry

     iteration # 25     ecut=    60.00 Ry     beta= 0.50
     Davidson diagonalization with overlap
     c_bands:  1 eigenvalues not converged
     ethr =  2.33E-07,  avg # of iterations =  7.7

     negative rho (up, down):  9.021E-02 0.000E+00

     total cpu time spent up to now is     1415.1 secs

     total energy              =   -3711.04016555 Ry
     Harris-Foulkes estimate   =   -3711.04021875 Ry
     estimated scf accuracy    <       0.00076949 Ry

     iteration # 26     ecut=    60.00 Ry     beta= 0.50
     Davidson diagonalization with overlap
     ethr =  1.69E-07,  avg # of iterations =  1.7

     negative rho (up, down):  9.062E-02 0.000E+00

     total cpu time spent up to now is     1463.7 secs

     total energy              =   -3711.04017552 Ry
     Harris-Foulkes estimate   =   -3711.04018628 Ry
     estimated scf accuracy    <       0.00010967 Ry

     iteration # 27     ecut=    60.00 Ry     beta= 0.50
     Davidson diagonalization with overlap
     ethr =  2.40E-08,  avg # of iterations =  2.3

     negative rho (up, down):  9.095E-02 0.000E+00

     total cpu time spent up to now is     1514.7 secs

     total energy              =   -3711.04017311 Ry
     Harris-Foulkes estimate   =   -3711.04018122 Ry
     estimated scf accuracy    <       0.00009442 Ry

     iteration # 28     ecut=    60.00 Ry     beta= 0.50
     Davidson diagonalization with overlap
     c_bands:  1 eigenvalues not converged
     ethr =  2.07E-08,  avg # of iterations =  2.3

     negative rho (up, down):  9.133E-02 0.000E+00

     total cpu time spent up to now is     1564.0 secs

     total energy              =   -3711.04017389 Ry
     Harris-Foulkes estimate   =   -3711.04017637 Ry
     estimated scf accuracy    <       0.00002845 Ry

     iteration # 29     ecut=    60.00 Ry     beta= 0.50
     Davidson diagonalization with overlap
     ethr =  6.24E-09,  avg # of iterations =  1.9

     negative rho (up, down):  9.135E-02 0.000E+00

     total cpu time spent up to now is     1612.4 secs

     total energy              =   -3711.04017360 Ry
     Harris-Foulkes estimate   =   -3711.04017507 Ry
     estimated scf accuracy    <       0.00001332 Ry

     iteration # 30     ecut=    60.00 Ry     beta= 0.50
     Davidson diagonalization with overlap
     ethr =  2.92E-09,  avg # of iterations =  2.4

     negative rho (up, down):  9.124E-02 0.000E+00

     total cpu time spent up to now is     1663.4 secs

     total energy              =   -3711.04017501 Ry
     Harris-Foulkes estimate   =   -3711.04017457 Ry
     estimated scf accuracy    <       0.00001619 Ry

     iteration # 31     ecut=    60.00 Ry     beta= 0.50
     Davidson diagonalization with overlap
     ethr =  2.92E-09,  avg # of iterations =  1.1

     negative rho (up, down):  9.133E-02 0.000E+00

     total cpu time spent up to now is     1711.0 secs

     total energy              =   -3711.04017501 Ry
     Harris-Foulkes estimate   =   -3711.04017528 Ry
     estimated scf accuracy    <       0.00000843 Ry

     iteration # 32     ecut=    60.00 Ry     beta= 0.50
     Davidson diagonalization with overlap
     ethr =  1.85E-09,  avg # of iterations =  1.0

     negative rho (up, down):  9.129E-02 0.000E+00

     total cpu time spent up to now is     1756.9 secs

     total energy              =   -3711.04017515 Ry
     Harris-Foulkes estimate   =   -3711.04017513 Ry
     estimated scf accuracy    <       0.00000707 Ry

     iteration # 33     ecut=    60.00 Ry     beta= 0.50
     Davidson diagonalization with overlap
     ethr =  1.55E-09,  avg # of iterations =  1.4

     negative rho (up, down):  9.139E-02 0.000E+00

     total cpu time spent up to now is     1804.1 secs

     total energy              =   -3711.04017491 Ry
     Harris-Foulkes estimate   =   -3711.04017525 Ry
     estimated scf accuracy    <       0.00000226 Ry

     iteration # 34     ecut=    60.00 Ry     beta= 0.50
     Davidson diagonalization with overlap
     ethr =  4.97E-10,  avg # of iterations =  1.3

     negative rho (up, down):  9.138E-02 0.000E+00

     total cpu time spent up to now is     1851.4 secs

     total energy              =   -3711.04017490 Ry
     Harris-Foulkes estimate   =   -3711.04017496 Ry
     estimated scf accuracy    <       0.00000090 Ry

     iteration # 35     ecut=    60.00 Ry     beta= 0.50
     Davidson diagonalization with overlap
     ethr =  1.97E-10,  avg # of iterations =  1.5

     negative rho (up, down):  9.145E-02 0.000E+00

     total cpu time spent up to now is     1899.1 secs

     total energy              =   -3711.04017477 Ry
     Harris-Foulkes estimate   =   -3711.04017493 Ry
     estimated scf accuracy    <       0.00000033 Ry

     iteration # 36     ecut=    60.00 Ry     beta= 0.50
     Davidson diagonalization with overlap
     ethr =  7.16E-11,  avg # of iterations =  2.1

     negative rho (up, down):  9.145E-02 0.000E+00

     total cpu time spent up to now is     1948.4 secs

     total energy              =   -3711.04017478 Ry
     Harris-Foulkes estimate   =   -3711.04017479 Ry
     estimated scf accuracy    <       0.00000033 Ry

     iteration # 37     ecut=    60.00 Ry     beta= 0.50
     Davidson diagonalization with overlap
     ethr =  7.16E-11,  avg # of iterations =  1.0

     negative rho (up, down):  9.144E-02 0.000E+00

     total cpu time spent up to now is     1994.8 secs

     total energy              =   -3711.04017480 Ry
     Harris-Foulkes estimate   =   -3711.04017479 Ry
     estimated scf accuracy    <       0.00000017 Ry

     iteration # 38     ecut=    60.00 Ry     beta= 0.50
     Davidson diagonalization with overlap
     ethr =  3.78E-11,  avg # of iterations =  1.0

     negative rho (up, down):  9.143E-02 0.000E+00

     total cpu time spent up to now is     2041.4 secs

     total energy              =   -3711.04017482 Ry
     Harris-Foulkes estimate   =   -3711.04017480 Ry
     estimated scf accuracy    <       0.00000023 Ry

     iteration # 39     ecut=    60.00 Ry     beta= 0.50
     Davidson diagonalization with overlap
     ethr =  3.78E-11,  avg # of iterations =  1.0

     negative rho (up, down):  9.143E-02 0.000E+00

     total cpu time spent up to now is     2087.8 secs

     total energy              =   -3711.04017483 Ry
     Harris-Foulkes estimate   =   -3711.04017482 Ry
     estimated scf accuracy    <       0.00000019 Ry

     iteration # 40     ecut=    60.00 Ry     beta= 0.50
     Davidson diagonalization with overlap
     ethr =  3.78E-11,  avg # of iterations =  1.0

     negative rho (up, down):  9.143E-02 0.000E+00

     total cpu time spent up to now is     2133.9 secs

     total energy              =   -3711.04017483 Ry
     Harris-Foulkes estimate   =   -3711.04017483 Ry
     estimated scf accuracy    <       0.00000017 Ry

     iteration # 41     ecut=    60.00 Ry     beta= 0.50
     Davidson diagonalization with overlap
     ethr =  3.68E-11,  avg # of iterations =  1.0

     negative rho (up, down):  9.142E-02 0.000E+00

     total cpu time spent up to now is     2180.3 secs

     total energy              =   -3711.04017484 Ry
     Harris-Foulkes estimate   =   -3711.04017483 Ry
     estimated scf accuracy    <       0.00000017 Ry

     iteration # 42     ecut=    60.00 Ry     beta= 0.50
     Davidson diagonalization with overlap
     ethr =  3.68E-11,  avg # of iterations =  1.0

     negative rho (up, down):  9.142E-02 0.000E+00

     total cpu time spent up to now is     2226.7 secs

     total energy              =   -3711.04017483 Ry
     Harris-Foulkes estimate   =   -3711.04017484 Ry
     estimated scf accuracy    <       0.00000017 Ry

     iteration # 43     ecut=    60.00 Ry     beta= 0.50
     Davidson diagonalization with overlap
     ethr =  3.68E-11,  avg # of iterations =  1.0

     negative rho (up, down):  9.142E-02 0.000E+00

     total cpu time spent up to now is     2274.1 secs

     total energy              =   -3711.04017483 Ry
     Harris-Foulkes estimate   =   -3711.04017483 Ry
     estimated scf accuracy    <       0.00000017 Ry

     iteration # 44     ecut=    60.00 Ry     beta= 0.50
     Davidson diagonalization with overlap
     ethr =  3.68E-11,  avg # of iterations =  1.0

     negative rho (up, down):  9.142E-02 0.000E+00

     total cpu time spent up to now is     2320.0 secs

     total energy              =   -3711.04017484 Ry
     Harris-Foulkes estimate   =   -3711.04017483 Ry
     estimated scf accuracy    <       0.00000018 Ry

     iteration # 45     ecut=    60.00 Ry     beta= 0.50
     Davidson diagonalization with overlap
     ethr =  3.68E-11,  avg # of iterations =  1.0

     negative rho (up, down):  9.142E-02 0.000E+00

     total cpu time spent up to now is     2366.6 secs

     total energy              =   -3711.04017485 Ry
     Harris-Foulkes estimate   =   -3711.04017484 Ry
     estimated scf accuracy    <       0.00000017 Ry

     iteration # 46     ecut=    60.00 Ry     beta= 0.50
     Davidson diagonalization with overlap
     ethr =  3.68E-11,  avg # of iterations =  1.0

     negative rho (up, down):  9.142E-02 0.000E+00

     total cpu time spent up to now is     2413.3 secs

     total energy              =   -3711.04017483 Ry
     Harris-Foulkes estimate   =   -3711.04017485 Ry
     estimated scf accuracy    <       0.00000015 Ry

     iteration # 47     ecut=    60.00 Ry     beta= 0.50
     Davidson diagonalization with overlap
     ethr =  3.40E-11,  avg # of iterations =  1.0

     negative rho (up, down):  9.143E-02 0.000E+00

     total cpu time spent up to now is     2459.5 secs

     total energy              =   -3711.04017482 Ry
     Harris-Foulkes estimate   =   -3711.04017484 Ry
     estimated scf accuracy    <       0.00000020 Ry

     iteration # 48     ecut=    60.00 Ry     beta= 0.50
     Davidson diagonalization with overlap
     ethr =  3.40E-11,  avg # of iterations =  1.0

     negative rho (up, down):  9.145E-02 0.000E+00

     total cpu time spent up to now is     2505.8 secs

     total energy              =   -3711.04017478 Ry
     Harris-Foulkes estimate   =   -3711.04017482 Ry
     estimated scf accuracy    <       0.00000011 Ry

     iteration # 49     ecut=    60.00 Ry     beta= 0.50
     Davidson diagonalization with overlap
     ethr =  2.32E-11,  avg # of iterations =  1.1

     negative rho (up, down):  9.149E-02 0.000E+00

     total cpu time spent up to now is     2552.4 secs

     total energy              =   -3711.04017470 Ry
     Harris-Foulkes estimate   =   -3711.04017478 Ry
     estimated scf accuracy    <       0.00000018 Ry

     iteration # 50     ecut=    60.00 Ry     beta= 0.50
     Davidson diagonalization with overlap
     ethr =  2.32E-11,  avg # of iterations =  1.2

     negative rho (up, down):  9.150E-02 0.000E+00

     total cpu time spent up to now is     2599.5 secs

     total energy              =   -3711.04017469 Ry
     Harris-Foulkes estimate   =   -3711.04017471 Ry
     estimated scf accuracy    <       0.00000007 Ry

     iteration # 51     ecut=    60.00 Ry     beta= 0.50
     Davidson diagonalization with overlap
     ethr =  1.52E-11,  avg # of iterations =  1.0

     negative rho (up, down):  9.152E-02 0.000E+00

     total cpu time spent up to now is     2645.8 secs

     total energy              =   -3711.04017466 Ry
     Harris-Foulkes estimate   =   -3711.04017469 Ry
     estimated scf accuracy    <       0.00000003 Ry

     iteration # 52     ecut=    60.00 Ry     beta= 0.50
     Davidson diagonalization with overlap
     ethr =  6.41E-12,  avg # of iterations =  1.0

     negative rho (up, down):  9.153E-02 0.000E+00

     total cpu time spent up to now is     2691.1 secs

     End of self-consistent calculation

          k = 0.0000 0.0000 0.0000 ( 76245 PWs)   bands (ev):

   -41.4868 -39.2055 -38.5970 -36.2240 -23.5134 -23.3866 -23.3664 -23.2583
   -23.1449 -23.0212 -22.9913 -22.8920 -21.5984 -21.5338 -21.3662 -20.3029
   -20.2423 -20.1663 -19.0722 -18.9680 -18.6002 -17.5721 -17.4368 -17.2538
   -16.5481 -16.0780 -15.9829 -15.8267 -15.5558 -15.4986 -15.3615 -15.3584
   -15.3329 -15.2291 -15.1277 -15.0870 -15.0509 -15.0240 -14.9342 -14.8857
   -14.6725 -14.6222 -14.6047 -14.5635 -14.5574 -14.5513 -14.4674 -14.4590
   -14.4412 -14.2723 -14.2577 -14.1293 -14.0924 -13.7383  -8.8501  -8.7367
    -8.6246  -8.5161  -8.4890  -8.4361  -8.4043  -8.3802  -8.3179  -8.3038
    -8.2979  -8.2016  -8.1663  -8.1456  -8.1361  -8.1051  -8.1013  -8.0599
    -8.0200  -7.9512  -7.9507  -7.8686  -7.7969  -7.7075  -3.9517  -3.5546
    -3.3850  -3.2825  -3.1396  -3.0428  -2.8543  -2.7433  -2.7316  -2.7125
    -2.6852  -2.6558  -2.6120  -2.5944  -2.5623  -2.4552  -2.4075  -2.3708
    -2.3646  -2.2347  -2.2012  -2.1176  -2.1006  -2.0668  -2.0138  -2.0050
    -1.8999  -1.8597  -1.7251  -1.7098  -1.6751  -1.6409  -1.6402  -1.5825
    -1.4911  -1.4896  -1.4779  -1.4471  -1.4412  -1.4333  -1.4277  -1.4273
    -1.3870  -1.3354  -1.3207  -1.3064  -1.2642  -1.1838  -1.1610  -1.1463
    -1.0909  -1.0379  -0.8912  -0.8739  -0.8248  -0.7566  -0.7526  -0.7293
    -0.7240  -0.7057  -0.7011  -0.6863  -0.5985  -0.5979  -0.5814  -0.5721
    -0.5668  -0.5427  -0.5262  -0.5154  -0.5124  -0.4583  -0.4433  -0.4389
    -0.4133  -0.3928  -0.3923  -0.3578  -0.2966  -0.2914  -0.2573  -0.2483
    -0.2470  -0.2465  -0.2079  -0.1876  -0.1554  -0.1554  -0.1195  -0.1126
    -0.0584  -0.0424  -0.0196   0.0115   0.0158   0.0276   0.0397   0.0546
     0.0804   0.1025   0.1785   0.2020   0.2412   0.2444   0.3323   0.4205
     0.4722   0.5164   0.5251   0.5366   0.5593   0.5961   0.6715   0.6900
     0.6957   0.7139   0.7219   0.7524   0.7688   0.8261   0.8346   0.8509
     0.8886   0.9126   0.9195   0.9780   1.0732   1.0830   1.1218   1.1516
     1.1924   1.1986   1.2671   1.2733   1.2782   1.3061   1.3181   1.4044
     1.4046   1.4207   1.4751   1.5083   1.5414   1.5551   1.6220   1.6753
     1.7242   1.7443   1.7666   1.8127   1.8457   1.9114   1.9684   1.9804
     2.0158   2.0662   2.1120   2.1280   2.1891   2.3578   2.5611   2.8308
     3.5700   3.7231   4.7094   4.8578   4.9738   5.0394   5.0862   5.1551
     5.5473   5.9795   6.1247   6.2420   6.3582   6.3984   6.4095   6.4623
     6.6011   6.7612   6.8552   6.8834   6.8976   6.9253   6.9334   6.9591
     7.1462   7.4022   7.5265   7.5691   7.6298   7.7081   7.7899   7.9086
     7.9859   8.0550

          k = 0.0000 0.2618 0.0000 ( 76237 PWs)   bands (ev):

   -41.4848 -39.2041 -38.5943 -36.2223 -23.4899 -23.3621 -23.3476 -23.2392
   -23.1213 -22.9961 -22.9725 -22.8729 -21.5929 -21.5300 -21.4076 -20.2985
   -20.2400 -20.1898 -19.0335 -18.9607 -18.7111 -17.5426 -17.4325 -17.3198
   -16.4965 -16.0402 -15.8769 -15.8186 -15.4982 -15.4323 -15.3720 -15.3068
   -15.2913 -15.1905 -15.1259 -15.0613 -15.0150 -14.9643 -14.9054 -14.8483
   -14.6684 -14.6207 -14.5793 -14.5704 -14.5548 -14.5413 -14.4970 -14.4739
   -14.4228 -14.3142 -14.2758 -14.1896 -14.0894 -13.7677  -8.8592  -8.7275
    -8.6179  -8.5292  -8.4719  -8.4232  -8.4170  -8.4006  -8.3924  -8.3794
    -8.3406  -8.3334  -8.3056  -8.2670  -8.1486  -8.1237  -8.1158  -8.0674
    -8.0624  -8.0394  -8.0097  -7.9938  -7.9863  -7.9129  -4.0785  -3.6545
    -3.4720  -3.4468  -3.1409  -3.0726  -2.9795  -2.8629  -2.8281  -2.7555
    -2.7455  -2.6851  -2.6566  -2.6304  -2.5945  -2.5911  -2.5508  -2.5208
    -2.4511  -2.4184  -2.4054  -2.2716  -2.2400  -2.1987  -2.1808  -2.0259
    -2.0180  -1.9752  -1.9364  -1.9173  -1.9044  -1.8711  -1.8465  -1.8292
    -1.8189  -1.7401  -1.7317  -1.5898  -1.5337  -1.4645  -1.4263  -1.4055
    -1.3474  -1.3206  -1.3004  -1.2759  -1.2575  -1.2027  -1.1918  -1.1342
    -1.0783  -1.0005  -0.9845  -0.9828  -0.9166  -0.8677  -0.8403  -0.8230
    -0.8077  -0.7942  -0.7445  -0.7211  -0.7087  -0.7072  -0.6673  -0.6666
    -0.5972  -0.5593  -0.5329  -0.5122  -0.5074  -0.4516  -0.4198  -0.4165
    -0.3599  -0.3304  -0.3290  -0.3223  -0.3128  -0.2888  -0.2507  -0.2331
    -0.2213  -0.2152  -0.1797  -0.1760  -0.1688  -0.1348  -0.1283  -0.1122
    -0.0824  -0.0805  -0.0470   0.0157   0.0179   0.0852   0.1464   0.1564
     0.2004   0.2150   0.2406   0.2730   0.3267   0.4124   0.4316   0.4829
     0.4987   0.5083   0.5534   0.6110   0.6278   0.6721   0.6759   0.7034
     0.7534   0.8056   0.8157   0.8163   0.8837   0.9092   0.9402   0.9414
     0.9503   0.9852   1.0047   1.0192   1.0545   1.0579   1.0989   1.1073
     1.1426   1.2033   1.2054   1.2620   1.2686   1.2790   1.3198   1.3828
     1.4140   1.4831   1.4898   1.5031   1.5235   1.5496   1.6910   1.7240
     1.8453   1.8991   1.9069   2.0124   2.0327   2.1699   2.2900   2.3417
     2.4099   2.4479   2.4859   2.5010   2.5189   2.6819   2.8790   2.9115
     3.6527   3.8087   4.9130   5.0218   5.0926   5.1352   5.2195   5.2947
     5.7543   5.9625   6.0726   6.2633   6.4386   6.5337   6.5959   6.6825
     6.7523   6.7786   6.8225   6.9154   7.0247   7.0740   7.1127   7.2485
     7.2501   7.3480   7.5333   7.7312   7.7756   7.9196   7.9599   8.0522
     8.1865   8.2598

          k = 0.0000 0.5236 0.0000 ( 76123 PWs)   bands (ev):

   -41.4797 -39.2008 -38.5878 -36.2182 -23.4322 -23.3015 -23.3013 -23.1923
   -23.0633 -22.9344 -22.9263 -22.8260 -21.5998 -21.5208 -21.4845 -20.2968
   -20.2363 -20.2346 -18.9513 -18.9433 -18.9338 -17.4724 -17.4597 -17.4220
   -16.3584 -15.9466 -15.8107 -15.6366 -15.4291 -15.3472 -15.2479 -15.1896
   -15.1638 -15.1635 -15.0969 -15.0810 -15.0117 -14.7930 -14.7717 -14.7562
   -14.7365 -14.6626 -14.5872 -14.5290 -14.4935 -14.4852 -14.4729 -14.4537
   -14.4526 -14.3842 -14.3204 -14.3016 -14.0867 -13.8519  -8.9369  -8.8055
    -8.7985  -8.7218  -8.7000  -8.6459  -8.5811  -8.5437  -8.5103  -8.5067
    -8.4503  -8.4047  -8.3932  -8.3808  -8.3177  -8.2970  -8.2755  -8.2704
    -8.1458  -8.1129  -8.0941  -8.0553  -7.9750  -7.9360  -4.5020  -4.0462
    -3.8119  -3.6920  -3.3483  -3.2912  -3.2218  -3.2127  -3.1213  -3.0572
    -3.0195  -2.9742  -2.9521  -2.8230  -2.8132  -2.7912  -2.7495  -2.6871
    -2.6835  -2.6466  -2.6274  -2.6071  -2.5968  -2.5550  -2.5379  -2.5043
    -2.4843  -2.4782  -2.3015  -2.2059  -2.1585  -2.1199  -2.1156  -2.0751
    -1.8955  -1.7690  -1.7446  -1.6986  -1.6439  -1.5601  -1.5061  -1.4961
    -1.4818  -1.4271  -1.3673  -1.3593  -1.3460  -1.3259  -1.2649  -1.2582
    -1.2131  -1.1891  -1.1733  -1.1685  -1.1163  -1.0800  -1.0785  -1.0323
    -1.0298  -1.0274  -0.9723  -0.9574  -0.9378  -0.9072  -0.8856  -0.8590
    -0.7991  -0.7951  -0.7868  -0.7044  -0.6830  -0.6339  -0.4597  -0.4312
    -0.3880  -0.3440  -0.3128  -0.3011  -0.2682  -0.2013  -0.1908  -0.1877
    -0.1743  -0.1739  -0.1042  -0.0925  -0.0752   0.0657   0.0741   0.0824
     0.1173   0.2131   0.2767   0.3191   0.4312   0.4405   0.4913   0.5152
     0.5437   0.5437   0.5611   0.5766   0.6267   0.6735   0.6799   0.6831
     0.7223   0.7344   0.7381   0.7444   0.7719   0.7901   0.8439   0.8542
     0.8916   0.8964   0.9028   0.9160   0.9365   0.9366   0.9376   0.9796
     1.0333   1.0691   1.1531   1.1611   1.1986   1.2079   1.2310   1.2348
     1.2969   1.3200   1.3241   1.3431   1.3666   1.3718   1.4301   1.4492
     1.4769   1.5346   1.5621   1.6040   1.6261   1.6706   1.6883   1.8220
     1.9551   2.0016   2.0382   2.1028   2.2238   2.5631   2.6018   2.7082
     2.7947   2.9553   3.0272   3.0973   3.2362   3.3132   3.4370   3.6952
     3.7491   4.0858   4.5882   4.9611   5.3237   5.4433   5.7011   5.9953
     6.1055   6.1146   6.2429   6.2879   6.3368   6.4479   6.5893   6.6300
     6.9114   7.2188   7.2783   7.3024   7.5485   7.5939   7.6771   7.6942
     7.8105   7.9125   8.0381   8.0803   8.1276   8.2140   8.2908   8.3310
     8.4382   8.4518

          k = 0.0000 0.7854 0.0000 ( 76110 PWs)   bands (ev):

   -41.4747 -39.1975 -38.5813 -36.2141 -23.3729 -23.2539 -23.2391 -23.1444
   -23.0038 -22.8790 -22.8707 -22.7782 -21.6641 -21.5115 -21.5000 -20.3300
   -20.2468 -20.2292 -19.1603 -18.9258 -18.8279 -17.5945 -17.4117 -17.3862
   -16.1789 -15.8494 -15.8424 -15.5052 -15.4214 -15.2885 -15.1718 -15.1658
   -15.0850 -15.0256 -15.0026 -14.9977 -14.9819 -14.8575 -14.6863 -14.6744
   -14.6643 -14.6166 -14.5707 -14.5480 -14.4782 -14.4536 -14.4461 -14.4127
   -14.3874 -14.3725 -14.3498 -14.3364 -14.1127 -13.9687  -9.2896  -9.2005
    -9.0051  -8.9410  -8.9261  -8.8694  -8.8478  -8.6750  -8.6206  -8.6101
    -8.5854  -8.5846  -8.5158  -8.4738  -8.4263  -8.2536  -8.2147  -8.2142
    -8.1543  -8.1499  -8.1198  -8.0679  -7.8647  -7.8119  -4.9671  -4.5306
    -4.1024  -4.0956  -3.7627  -3.7245  -3.5998  -3.5768  -3.4948  -3.3658
    -3.3425  -3.3385  -3.3383  -3.3001  -3.2227  -3.1752  -3.1200  -2.9500
    -2.8538  -2.7968  -2.7619  -2.7242  -2.7139  -2.6800  -2.6468  -2.6189
    -2.5912  -2.5298  -2.3893  -2.3154  -2.1689  -2.1574  -2.1483  -2.0781
    -1.9956  -1.9827  -1.9613  -1.9480  -1.8772  -1.7020  -1.7017  -1.6206
    -1.6053  -1.5262  -1.5200  -1.4903  -1.4767  -1.4518  -1.4305  -1.3845
    -1.3728  -1.3613  -1.3287  -1.3028  -1.2849  -1.2759  -1.2473  -1.2242
    -1.2101  -1.2054  -1.2000  -1.1199  -1.1131  -1.1079  -1.0862  -1.0594
    -1.0451  -0.9931  -0.7901  -0.7192  -0.6832  -0.6262  -0.6222  -0.4963
    -0.4473  -0.3083  -0.2853  -0.2147  -0.2138  -0.1632  -0.1459  -0.1249
    -0.0619   0.0200   0.0442   0.0444   0.1122   0.2207   0.2741   0.2985
     0.3543   0.3683   0.4908   0.5106   0.5357   0.5488   0.5683   0.6269
     0.6435   0.7100   0.7150   0.7186   0.7509   0.7939   0.8223   0.8657
     0.8726   0.8841   0.9101   0.9261   0.9620   0.9638   1.0421   1.0658
     1.0780   1.1194   1.1288   1.1551   1.1573   1.1767   1.1881   1.2277
     1.2506   1.2572   1.3151   1.3204   1.3357   1.3411   1.3619   1.3956
     1.4348   1.4634   1.4812   1.4861   1.5246   1.5449   1.6116   1.7095
     1.7386   1.7452   1.7755   1.8076   1.8337   1.8629   1.9280   1.9664
     1.9916   2.0157   2.0449   2.4109   2.4878   2.5116   2.5167   2.5652
     2.7408   3.0746   3.4390   3.5949   3.6428   3.8436   3.9592   4.0243
     4.3216   4.3290   4.3298   4.8705   5.1227   5.4154   5.5836   5.6881
     5.7650   6.2386   6.5719   6.6979   6.8624   6.9292   7.0701   7.1413
     7.3166   7.4285   7.4950   7.8397   7.8805   7.9513   8.0688   8.1352
     8.2014   8.2765   8.3025   8.3584   8.3745   8.4844   8.5405   8.6489
     8.6563   8.6983

          k = 0.0000-1.0472 0.0000 ( 76214 PWs)   bands (ev):

   -41.4726 -39.1961 -38.5786 -36.2124 -23.3479 -23.2338 -23.2128 -23.1242
   -22.9786 -22.8590 -22.8437 -22.7580 -21.7007 -21.5077 -21.4954 -20.3510
   -20.2436 -20.2269 -19.2408 -18.9186 -18.7806 -17.6449 -17.4074 -17.3504
   -16.0548 -15.9072 -15.8080 -15.5398 -15.4284 -15.2257 -15.2199 -15.1467
   -15.0622 -15.0012 -14.9184 -14.9096 -14.8604 -14.8192 -14.7739 -14.6907
   -14.6819 -14.6284 -14.5380 -14.5053 -14.4468 -14.4390 -14.4283 -14.3942
   -14.3645 -14.3204 -14.3167 -14.3088 -14.2145 -14.0161  -9.4425  -9.3538
    -9.1226  -9.0772  -9.0597  -9.0003  -8.8832  -8.7275  -8.7196  -8.6568
    -8.6221  -8.5903  -8.5096  -8.5014  -8.4362  -8.2633  -8.2232  -8.1682
    -8.1567  -8.1514  -8.1017  -8.0557  -7.8163  -7.7577  -5.1555  -4.7328
    -4.2820  -4.2200  -3.9458  -3.9013  -3.8094  -3.7748  -3.6423  -3.5981
    -3.5681  -3.5302  -3.4540  -3.4445  -3.3684  -3.3406  -3.1487  -2.9789
    -2.9726  -2.8362  -2.7365  -2.7353  -2.7015  -2.6695  -2.6433  -2.6340
    -2.5201  -2.4907  -2.4519  -2.4074  -2.3437  -2.2000  -2.1949  -2.0879
    -2.0862  -2.0813  -2.0483  -1.9230  -1.8305  -1.8010  -1.7691  -1.7069
    -1.6308  -1.5941  -1.5727  -1.5633  -1.5562  -1.5416  -1.5272  -1.5248
    -1.4086  -1.3850  -1.3770  -1.3700  -1.3598  -1.3395  -1.3160  -1.3149
    -1.3137  -1.2935  -1.2660  -1.1969  -1.1917  -1.1859  -1.1309  -1.0717
    -0.9944  -0.9884  -0.8129  -0.7261  -0.6943  -0.6799  -0.5995  -0.5738
    -0.5066  -0.2929  -0.2701  -0.2239  -0.2215  -0.1609  -0.1370  -0.0886
    -0.0560   0.0793   0.0984   0.1243   0.1479   0.3439   0.3750   0.3907
     0.4031   0.4184   0.5265   0.5378   0.5414   0.5507   0.5663   0.7009
     0.7162   0.7822   0.8035   0.8040   0.8458   0.8561   0.8640   0.8686
     0.8962   0.8978   0.9283   0.9288   0.9961   1.0148   1.0720   1.1034
     1.1286   1.1398   1.2165   1.2451   1.2584   1.2607   1.2911   1.3288
     1.3303   1.3367   1.4105   1.4140   1.4542   1.4626   1.4842   1.4954
     1.6279   1.6774   1.6818   1.6891   1.7157   1.7187   1.7273   1.7531
     1.8282   1.8560   1.8633   1.9000   1.9295   1.9453   1.9682   2.0145
     2.0319   2.1297   2.1792   2.1939   2.3442   2.3451   2.5922   2.6605
     2.6676   3.0762   3.4903   3.7476   3.8586   3.9464   4.1665   4.2032
     4.2351   4.2578   4.5366   4.9257   5.0106   5.3094   5.3441   5.5313
     5.8476   6.1265   6.7240   6.8785   7.0510   7.2637   7.3227   7.4278
     7.4994   7.5952   7.7459   7.7602   7.8900   7.9318   8.0002   8.1761
     8.2866   8.3117   8.3300   8.4760   8.5083   8.6347   8.6903   8.7137
     8.7435   8.8959

          k = 0.1250 0.0000 0.0000 ( 76237 PWs)   bands (ev):

   -41.4868 -39.2055 -38.5970 -36.2241 -23.5100 -23.3821 -23.3701 -23.2631
   -23.1416 -23.0165 -22.9949 -22.8970 -21.5984 -21.5330 -21.3662 -20.3029
   -20.2436 -20.1663 -19.0715 -18.9648 -18.6002 -17.5751 -17.4489 -17.2538
   -16.5383 -16.1036 -15.9555 -15.8085 -15.5409 -15.4910 -15.3603 -15.3469
   -15.3355 -15.2214 -15.1403 -15.0978 -15.0838 -15.0317 -14.9379 -14.8528
   -14.6676 -14.6419 -14.5936 -14.5675 -14.5575 -14.5513 -14.4693 -14.4637
   -14.4484 -14.2809 -14.2625 -14.1356 -14.0734 -13.7437  -8.8521  -8.7420
    -8.6268  -8.5204  -8.4795  -8.4223  -8.4084  -8.3728  -8.3269  -8.3040
    -8.2896  -8.2081  -8.1745  -8.1541  -8.1213  -8.1113  -8.0809  -8.0693
    -8.0125  -7.9525  -7.9425  -7.8738  -7.8054  -7.7174  -3.9280  -3.5198
    -3.3522  -3.2776  -3.1771  -3.0075  -2.8355  -2.7580  -2.7395  -2.7203
    -2.6839  -2.6743  -2.6084  -2.5837  -2.5685  -2.4771  -2.4052  -2.3848
    -2.3550  -2.2431  -2.2422  -2.0813  -2.0802  -2.0516  -2.0264  -2.0051
    -1.9425  -1.8278  -1.7332  -1.6773  -1.6388  -1.6194  -1.6127  -1.5710
    -1.4890  -1.4880  -1.4880  -1.4760  -1.4275  -1.4260  -1.4215  -1.4185
    -1.4112  -1.3945  -1.3423  -1.2819  -1.2441  -1.1729  -1.1689  -1.1285
    -1.0720  -1.0498  -0.9013  -0.8827  -0.8746  -0.8682  -0.7818  -0.7623
    -0.7548  -0.7243  -0.7102  -0.6742  -0.6298  -0.6005  -0.5907  -0.5732
    -0.5378  -0.5209  -0.5204  -0.5077  -0.4793  -0.4636  -0.4407  -0.4384
    -0.4137  -0.3884  -0.3634  -0.3406  -0.2948  -0.2821  -0.2796  -0.2582
    -0.2528  -0.2451  -0.2448  -0.2097  -0.1938  -0.1484  -0.1168  -0.0962
    -0.0441  -0.0385  -0.0166  -0.0043   0.0084   0.0137   0.0451   0.0743
     0.1137   0.1652   0.1740   0.1962   0.2214   0.2390   0.3559   0.4015
     0.4423   0.4912   0.5234   0.5554   0.5696   0.5784   0.6263   0.6498
     0.6679   0.7228   0.7428   0.7623   0.7886   0.8077   0.8706   0.8838
     0.9163   0.9328   0.9368   0.9883   1.0311   1.0628   1.1634   1.1782
     1.2036   1.2285   1.2548   1.2702   1.2987   1.3076   1.3379   1.3753
     1.3996   1.4501   1.4581   1.5023   1.5266   1.5394   1.6223   1.6867
     1.7243   1.7362   1.7483   1.8065   1.8565   1.8861   1.9726   1.9794
     2.0129   2.0744   2.1107   2.1263   2.2107   2.3519   2.5613   2.7350
     3.6550   3.7656   4.7595   4.8999   4.9553   5.0335   5.0899   5.1928
     5.5835   5.9748   6.1777   6.2175   6.3188   6.3747   6.3964   6.4718
     6.5072   6.5167   6.6822   6.8839   6.8962   6.9624   7.1356   7.2294
     7.3484   7.4017   7.4981   7.6120   7.6309   7.7366   7.8274   7.9459
     7.9919   8.0883

          k = 0.1250 0.2618 0.0000 ( 76197 PWs)   bands (ev):

   -41.4848 -39.2041 -38.5943 -36.2224 -23.4868 -23.3578 -23.3510 -23.2437
   -23.1182 -22.9917 -22.9759 -22.8777 -21.5930 -21.5292 -21.4076 -20.2984
   -20.2414 -20.1898 -19.0328 -18.9576 -18.7111 -17.5454 -17.4439 -17.3197
   -16.4870 -16.0651 -15.8502 -15.8013 -15.4850 -15.4265 -15.3712 -15.2950
   -15.2947 -15.1839 -15.1320 -15.0624 -15.0240 -15.0189 -14.9032 -14.8100
   -14.6639 -14.6233 -14.5979 -14.5621 -14.5551 -14.5427 -14.5004 -14.4734
   -14.4296 -14.3252 -14.2760 -14.1927 -14.0731 -13.7723  -8.8606  -8.7308
    -8.6198  -8.5353  -8.5192  -8.4728  -8.4484  -8.4196  -8.3756  -8.3516
    -8.3283  -8.3118  -8.2775  -8.2206  -8.1602  -8.1598  -8.1315  -8.1088
    -8.1019  -8.0237  -7.9878  -7.9651  -7.9297  -7.8747  -4.0522  -3.6185
    -3.4826  -3.4115  -3.1496  -3.0361  -3.0076  -2.8713  -2.8220  -2.7480
    -2.7366  -2.6890  -2.6536  -2.6357  -2.6014  -2.5772  -2.5555  -2.4870
    -2.4661  -2.4199  -2.4031  -2.3004  -2.2646  -2.2339  -2.1728  -2.0156
    -2.0103  -1.9706  -1.9320  -1.9067  -1.8850  -1.8702  -1.8502  -1.8328
    -1.7984  -1.7901  -1.6614  -1.6012  -1.5343  -1.4742  -1.4349  -1.4029
    -1.4010  -1.3576  -1.2967  -1.2701  -1.2366  -1.2125  -1.1576  -1.1538
    -1.1411  -1.0983  -1.0391  -0.9914  -0.9432  -0.8834  -0.8535  -0.8289
    -0.8090  -0.7933  -0.7825  -0.7077  -0.6972  -0.6805  -0.6568  -0.6104
    -0.5836  -0.5541  -0.5366  -0.5216  -0.5096  -0.4671  -0.4404  -0.3862
    -0.3571  -0.3429  -0.3393  -0.3165  -0.3084  -0.3069  -0.2518  -0.2431
    -0.2207  -0.2058  -0.1933  -0.1611  -0.1570  -0.1535  -0.1300  -0.1139
    -0.0869  -0.0755  -0.0293  -0.0020   0.0130   0.0874   0.1112   0.1275
     0.1925   0.2074   0.2766   0.3336   0.3433   0.4259   0.4402   0.4712
     0.5087   0.5391   0.5762   0.5915   0.6050   0.6686   0.6730   0.7186
     0.7424   0.7744   0.7787   0.8005   0.8833   0.8916   0.9105   0.9510
     0.9700   0.9924   1.0193   1.0330   1.0477   1.0858   1.1144   1.1183
     1.1945   1.2034   1.2048   1.2632   1.2730   1.2832   1.2961   1.3564
     1.3889   1.4979   1.5087   1.5231   1.5895   1.6384   1.6986   1.7286
     1.7456   1.8738   1.9306   2.0069   2.1412   2.1580   2.2865   2.3454
     2.4142   2.4459   2.4904   2.4990   2.5189   2.6728   2.8160   2.8820
     3.7594   3.8201   4.9046   5.0178   5.1238   5.1301   5.2536   5.3194
     5.7875   5.9659   6.0557   6.2742   6.4296   6.4645   6.4930   6.5691
     6.7258   6.8236   6.8838   6.9254   6.9955   7.1028   7.1622   7.2902
     7.4122   7.4400   7.5830   7.7358   7.8041   7.9476   7.9969   8.0916
     8.1677   8.1890

          k = 0.1250 0.5236 0.0000 ( 76158 PWs)   bands (ev):

   -41.4797 -39.2008 -38.5878 -36.2182 -23.4295 -23.3043 -23.2978 -23.1963
   -23.0607 -22.9305 -22.9292 -22.8302 -21.5998 -21.5200 -21.4845 -20.2968
   -20.2367 -20.2355 -18.9513 -18.9402 -18.9333 -17.4741 -17.4606 -17.4321
   -16.3502 -15.9685 -15.7972 -15.6121 -15.4272 -15.3397 -15.2446 -15.1875
   -15.1662 -15.1590 -15.0915 -15.0822 -15.0116 -14.8491 -14.7711 -14.7635
   -14.6939 -14.6639 -14.5857 -14.5275 -14.4942 -14.4876 -14.4850 -14.4538
   -14.4504 -14.3895 -14.3250 -14.3002 -14.0778 -13.8541  -8.9517  -8.8393
    -8.8175  -8.7000  -8.6635  -8.6008  -8.5834  -8.5689  -8.5521  -8.5168
    -8.4903  -8.4729  -8.4026  -8.3205  -8.2771  -8.2611  -8.2525  -8.2235
    -8.2034  -8.1505  -8.1021  -8.0872  -7.9374  -7.8821  -4.4707  -4.0106
    -3.8259  -3.6550  -3.3577  -3.2912  -3.2199  -3.1772  -3.1211  -3.0596
    -3.0005  -2.9750  -2.9691  -2.8204  -2.8149  -2.7922  -2.7492  -2.6908
    -2.6784  -2.6402  -2.6252  -2.6078  -2.5958  -2.5509  -2.5266  -2.5029
    -2.4784  -2.4521  -2.3414  -2.1934  -2.1847  -2.1490  -2.1152  -2.0661
    -1.8992  -1.7989  -1.7509  -1.6762  -1.6383  -1.6038  -1.5810  -1.5124
    -1.4852  -1.4232  -1.4011  -1.3953  -1.3587  -1.3275  -1.3124  -1.2662
    -1.2277  -1.2083  -1.1907  -1.1323  -1.1321  -1.1170  -1.1068  -1.0446
    -1.0230  -1.0183  -0.9530  -0.9384  -0.9039  -0.9017  -0.8879  -0.8515
    -0.8338  -0.7958  -0.7809  -0.7412  -0.6721  -0.6258  -0.4684  -0.4116
    -0.3960  -0.3574  -0.3388  -0.2824  -0.2798  -0.2422  -0.2049  -0.1907
    -0.1821  -0.1594  -0.0899  -0.0787  -0.0185   0.0600   0.0602   0.0749
     0.1604   0.2173   0.2738   0.3325   0.3836   0.3888   0.4738   0.5007
     0.5305   0.5637   0.5761   0.5919   0.6396   0.6468   0.6776   0.6817
     0.6969   0.7364   0.7804   0.7859   0.8044   0.8091   0.8192   0.8200
     0.8526   0.8707   0.9112   0.9278   0.9605   0.9695   0.9798   1.0003
     1.0512   1.0632   1.1124   1.1348   1.1935   1.2237   1.2311   1.2460
     1.2766   1.3154   1.3188   1.3563   1.3799   1.4036   1.4101   1.5312
     1.5367   1.5528   1.6138   1.6197   1.6502   1.6785   1.7630   1.7638
     1.8936   2.0559   2.1236   2.1572   2.2443   2.5642   2.6029   2.7112
     2.7992   2.9200   2.9899   3.0989   3.1920   3.2811   3.4079   3.6663
     3.8321   4.1046   4.5904   4.9626   5.3129   5.4544   5.6808   6.0109
     6.1218   6.1224   6.2537   6.2951   6.3345   6.4666   6.5922   6.6127
     6.9075   7.1177   7.3113   7.3477   7.5811   7.6340   7.7027   7.7996
     7.8703   7.9012   8.0304   8.0326   8.1018   8.2342   8.3112   8.3566
     8.4322   8.4667

          k = 0.1250 0.7854 0.0000 ( 76146 PWs)   bands (ev):

   -41.4747 -39.1975 -38.5813 -36.2141 -23.3706 -23.2563 -23.2360 -23.1477
   -23.0016 -22.8813 -22.8673 -22.7817 -21.6641 -21.5108 -21.5000 -20.3300
   -20.2467 -20.2304 -19.1602 -18.9228 -18.8273 -17.5945 -17.4210 -17.3883
   -16.1731 -15.8683 -15.8292 -15.5046 -15.4056 -15.2716 -15.1661 -15.1651
   -15.0802 -15.0255 -15.0041 -15.0022 -14.9825 -14.8576 -14.7018 -14.6901
   -14.6715 -14.6107 -14.5626 -14.5415 -14.4770 -14.4604 -14.4469 -14.4098
   -14.3866 -14.3760 -14.3555 -14.3400 -14.1116 -13.9687  -9.2774  -9.1908
    -8.9737  -8.9082  -8.8988  -8.8659  -8.8395  -8.6784  -8.6297  -8.5847
    -8.5786  -8.5664  -8.5208  -8.5167  -8.4273  -8.2842  -8.2405  -8.2167
    -8.1846  -8.1693  -8.1310  -8.0700  -7.8813  -7.8268  -4.9308  -4.4938
    -4.1222  -4.0608  -3.7742  -3.7243  -3.6021  -3.5493  -3.5034  -3.3633
    -3.3380  -3.3372  -3.3136  -3.3026  -3.2237  -3.1778  -3.1062  -2.9387
    -2.8285  -2.8177  -2.7804  -2.7171  -2.7155  -2.6865  -2.6457  -2.6184
    -2.5601  -2.5224  -2.3828  -2.2992  -2.2167  -2.1686  -2.1248  -2.1160
    -2.0685  -2.0328  -1.9426  -1.9316  -1.8962  -1.7326  -1.7035  -1.6037
    -1.5963  -1.5645  -1.5218  -1.5024  -1.4939  -1.4556  -1.4452  -1.4271
    -1.4033  -1.3746  -1.3311  -1.3186  -1.2831  -1.2515  -1.2417  -1.2189
    -1.2155  -1.1957  -1.1372  -1.1155  -1.1152  -1.1109  -1.1034  -1.0384
    -1.0260  -0.9828  -0.9183  -0.7294  -0.6687  -0.6282  -0.6189  -0.4420
    -0.3874  -0.3280  -0.3126  -0.2365  -0.2355  -0.1887  -0.1420  -0.1356
     0.0192   0.0406   0.0492   0.0669   0.1052   0.2088   0.2298   0.2536
     0.3683   0.3990   0.4828   0.4948   0.5187   0.5751   0.6013   0.6253
     0.6455   0.6994   0.7047   0.7084   0.7406   0.7756   0.8129   0.8245
     0.8653   0.8953   0.9225   0.9438   0.9580   0.9948   1.0139   1.0443
     1.0655   1.1068   1.1187   1.1471   1.1713   1.2012   1.2408   1.2426
     1.2569   1.2759   1.3152   1.3307   1.3350   1.3706   1.3897   1.4254
     1.4611   1.4677   1.4882   1.5059   1.5362   1.6106   1.6225   1.6587
     1.7514   1.7609   1.8049   1.8251   1.8285   1.8619   1.9577   1.9595
     1.9945   2.0205   2.1513   2.4128   2.4816   2.5010   2.5233   2.5716
     2.7531   3.0599   3.4368   3.5527   3.5791   3.8929   3.9056   3.9671
     4.2633   4.3294   4.3677   4.8664   5.1583   5.3805   5.6388   5.6712
     5.8206   6.2666   6.5355   6.6982   6.8407   6.8968   7.0397   7.1216
     7.2923   7.3126   7.4564   7.8358   7.8975   8.0597   8.0946   8.1581
     8.2242   8.3009   8.3327   8.3656   8.3934   8.5111   8.5627   8.6590
     8.6896   8.7155

          k = 0.1250-1.0472 0.0000 ( 76194 PWs)   bands (ev):

   -41.4726 -39.1962 -38.5786 -36.2124 -23.3457 -23.2361 -23.2098 -23.1272
   -22.9766 -22.8612 -22.8406 -22.7613 -21.7007 -21.5070 -21.4954 -20.3510
   -20.2435 -20.2281 -19.2408 -18.9157 -18.7801 -17.6449 -17.4164 -17.3524
   -16.0517 -15.9033 -15.8110 -15.5436 -15.4172 -15.2097 -15.2020 -15.1451
   -15.0494 -15.0225 -14.9314 -14.9027 -14.8607 -14.8187 -14.7670 -14.6930
   -14.6834 -14.6459 -14.5522 -14.5077 -14.4464 -14.4363 -14.4292 -14.3917
   -14.3636 -14.3214 -14.3212 -14.3109 -14.2097 -14.0198  -9.4128  -9.3235
    -9.0928  -9.0480  -9.0292  -8.9706  -8.8814  -8.6998  -8.6967  -8.6542
    -8.6495  -8.5866  -8.5364  -8.5125  -8.4373  -8.2956  -8.2395  -8.1924
    -8.1918  -8.1485  -8.1455  -8.0584  -7.8557  -7.8020  -5.1174  -4.6949
    -4.2483  -4.2413  -3.9485  -3.9121  -3.8116  -3.7491  -3.6528  -3.5964
    -3.5661  -3.5329  -3.4553  -3.4249  -3.3730  -3.3303  -3.1319  -2.9581
    -2.9530  -2.8156  -2.7484  -2.7386  -2.7000  -2.6575  -2.6435  -2.6350
    -2.5349  -2.5139  -2.4469  -2.4399  -2.3737  -2.2067  -2.1854  -2.0797
    -2.0570  -2.0529  -2.0302  -1.9449  -1.9393  -1.8643  -1.7817  -1.7040
    -1.6681  -1.6281  -1.5741  -1.5724  -1.5486  -1.5401  -1.5361  -1.5139
    -1.4266  -1.4124  -1.3707  -1.3556  -1.3530  -1.3371  -1.3194  -1.3030
    -1.2872  -1.2770  -1.2072  -1.2018  -1.1940  -1.1841  -1.1299  -1.0764
    -0.9838  -0.9638  -0.9629  -0.7002  -0.6939  -0.6699  -0.6103  -0.4836
    -0.4601  -0.3253  -0.2903  -0.2435  -0.2335  -0.2023  -0.1325  -0.1039
     0.0595   0.1136   0.1169   0.1239   0.1421   0.2696   0.3065   0.3549
     0.4156   0.4689   0.5375   0.5382   0.5516   0.5646   0.5651   0.7067
     0.7082   0.7522   0.7859   0.7997   0.8110   0.8159   0.8419   0.8765
     0.8939   0.9147   0.9321   0.9345   1.0112   1.0301   1.1022   1.1322
     1.1407   1.1449   1.2202   1.2300   1.2651   1.2744   1.3026   1.3372
     1.3403   1.4084   1.4113   1.4485   1.4596   1.4659   1.4911   1.5162
     1.6070   1.6685   1.6983   1.7220   1.7220   1.7548   1.7774   1.7967
     1.8010   1.8493   1.8563   1.8919   1.9255   1.9520   1.9833   2.0198
     2.0435   2.1224   2.1833   2.1884   2.3560   2.3582   2.6096   2.6315
     2.6768   3.0762   3.4890   3.7116   3.7964   3.9653   4.0874   4.1611
     4.2163   4.3049   4.4639   4.9134   5.0515   5.2768   5.4122   5.5995
     5.8234   6.1569   6.6807   6.9226   6.9413   7.1976   7.2303   7.4111
     7.4125   7.6027   7.7172   7.7252   7.7504   7.8309   8.2238   8.2327
     8.3233   8.3861   8.3874   8.5360   8.5883   8.6319   8.7405   8.7708
     8.7822   8.8325

          k = 0.2500 0.0000 0.0000 ( 76205 PWs)   bands (ev):

   -41.4868 -39.2055 -38.5970 -36.2241 -23.5011 -23.3796 -23.3695 -23.2765
   -23.1329 -23.0043 -23.0031 -22.9112 -21.5985 -21.5310 -21.3662 -20.3026
   -20.2470 -20.1663 -19.0697 -18.9569 -18.6002 -17.5822 -17.4772 -17.2538
   -16.5111 -16.1608 -15.8817 -15.7718 -15.5032 -15.4715 -15.3677 -15.3416
   -15.3058 -15.2177 -15.1996 -15.1429 -15.0860 -15.0507 -14.9370 -14.8067
   -14.6958 -14.6536 -14.5737 -14.5685 -14.5623 -14.5454 -14.4743 -14.4734
   -14.4607 -14.3145 -14.2679 -14.1499 -14.0303 -13.7585  -8.8570  -8.7534
    -8.6317  -8.5279  -8.4581  -8.4170  -8.3892  -8.3517  -8.3407  -8.3099
    -8.2660  -8.2272  -8.1975  -8.1650  -8.1181  -8.0955  -8.0875  -8.0467
    -7.9912  -7.9584  -7.9174  -7.8889  -7.8289  -7.7452  -3.8628  -3.4190
    -3.2686  -3.2646  -3.2547  -2.9119  -2.8145  -2.8041  -2.7583  -2.7344
    -2.7112  -2.6859  -2.5993  -2.5954  -2.5359  -2.5334  -2.4711  -2.3986
    -2.3316  -2.2790  -2.2606  -2.0588  -2.0518  -2.0330  -2.0140  -2.0100
    -1.9318  -1.7602  -1.7227  -1.6582  -1.6351  -1.6090  -1.5422  -1.5304
    -1.5287  -1.5135  -1.5087  -1.4864  -1.4822  -1.4291  -1.4240  -1.4084
    -1.3796  -1.3788  -1.3342  -1.2538  -1.1987  -1.1850  -1.1288  -1.1137
    -1.0882  -1.0805  -1.0202  -0.9597  -0.9118  -0.8753  -0.8672  -0.8332
    -0.7840  -0.7695  -0.7559  -0.6935  -0.6546  -0.6418  -0.6381  -0.6166
    -0.5511  -0.5377  -0.5310  -0.5090  -0.4937  -0.4895  -0.4450  -0.4238
    -0.3747  -0.3744  -0.3236  -0.3169  -0.3087  -0.2924  -0.2714  -0.2582
    -0.2443  -0.2411  -0.2403  -0.2144  -0.2025  -0.1312  -0.0861  -0.0422
    -0.0410  -0.0377  -0.0207  -0.0097  -0.0033   0.0103   0.0540   0.1119
     0.1608   0.1622   0.1698   0.1788   0.2326   0.3528   0.3553   0.3709
     0.4170   0.4511   0.4935   0.5116   0.5188   0.5537   0.5811   0.6232
     0.6686   0.7191   0.7381   0.7723   0.8229   0.8331   0.8740   0.9095
     0.9275   0.9811   1.0176   1.0233   1.0420   1.0700   1.1336   1.1917
     1.1987   1.2311   1.2475   1.2842   1.2912   1.3120   1.3758   1.3803
     1.3870   1.4116   1.4835   1.4890   1.5005   1.5784   1.6420   1.6980
     1.6999   1.7067   1.7355   1.7538   1.8837   1.9048   1.9767   1.9815
     2.0060   2.0968   2.1068   2.1203   2.2667   2.3293   2.5387   2.5536
     3.7385   3.9593   4.8695   4.8990   5.0058   5.0300   5.0993   5.3053
     5.6902   5.9719   6.0118   6.1164   6.1725   6.2594   6.3419   6.4005
     6.6191   6.6719   6.7511   6.8851   6.9036   6.9146   7.1412   7.3732
     7.4654   7.5392   7.6338   7.6425   7.7346   7.8245   7.9035   7.9245
     7.9687   8.0181

          k = 0.2500 0.2618 0.0000 ( 76186 PWs)   bands (ev):

   -41.4848 -39.2041 -38.5943 -36.2224 -23.4783 -23.3601 -23.3457 -23.2564
   -23.1100 -22.9847 -22.9789 -22.8911 -21.5931 -21.5272 -21.4076 -20.2982
   -20.2447 -20.1898 -19.0311 -18.9498 -18.7111 -17.5522 -17.4710 -17.3195
   -16.4610 -16.1201 -15.7781 -15.7678 -15.4519 -15.4118 -15.3686 -15.3061
   -15.2608 -15.1718 -15.1577 -15.1102 -15.0735 -15.0335 -14.8891 -14.7644
   -14.6530 -14.6489 -14.6284 -14.5574 -14.5506 -14.5347 -14.5059 -14.4718
   -14.4422 -14.3533 -14.2809 -14.1988 -14.0363 -13.7846  -8.8641  -8.7427
    -8.6262  -8.5695  -8.5553  -8.5265  -8.5019  -8.4308  -8.4202  -8.3366
    -8.2864  -8.2721  -8.2045  -8.1971  -8.1965  -8.1799  -8.1614  -8.1518
    -8.1117  -8.0486  -7.9267  -7.9038  -7.8577  -7.8190  -3.9789  -3.5202
    -3.5143  -3.3114  -3.1680  -3.0586  -2.9372  -2.9069  -2.8283  -2.7292
    -2.7176  -2.6954  -2.6646  -2.6355  -2.6208  -2.5662  -2.5312  -2.5146
    -2.4280  -2.4063  -2.4022  -2.3758  -2.3545  -2.2198  -2.1653  -2.0093
    -1.9765  -1.9613  -1.9261  -1.9095  -1.8684  -1.8614  -1.8398  -1.8245
    -1.8051  -1.7174  -1.6359  -1.6327  -1.5889  -1.5254  -1.4820  -1.4637
    -1.4275  -1.4057  -1.3699  -1.2765  -1.2499  -1.2443  -1.1970  -1.1727
    -1.1494  -1.1102  -1.0762  -1.0581  -1.0003  -0.9372  -0.8661  -0.8457
    -0.8164  -0.7933  -0.7884  -0.7783  -0.6739  -0.6655  -0.6418  -0.5781
    -0.5616  -0.5478  -0.5413  -0.5352  -0.5028  -0.4978  -0.4939  -0.3907
    -0.3721  -0.3619  -0.3405  -0.3369  -0.3032  -0.2951  -0.2464  -0.2461
    -0.2034  -0.1883  -0.1837  -0.1666  -0.1377  -0.1246  -0.1207  -0.1036
    -0.1024  -0.0636  -0.0013   0.0086   0.0250   0.0834   0.0854   0.0884
     0.1490   0.2113   0.2590   0.3687   0.3978   0.4342   0.4650   0.5227
     0.5622   0.5647   0.5928   0.6049   0.6250   0.6421   0.6455   0.6773
     0.7043   0.7278   0.7580   0.7733   0.8206   0.9004   0.9185   0.9299
     0.9678   0.9969   1.0272   1.0521   1.1141   1.1422   1.1508   1.1527
     1.1665   1.1990   1.2121   1.2256   1.2424   1.2909   1.2994   1.3598
     1.4330   1.4917   1.5202   1.5875   1.6467   1.6959   1.7279   1.7612
     1.8097   1.8184   1.9478   2.0268   2.1197   2.2730   2.3300   2.3557
     2.4256   2.4383   2.4884   2.5024   2.5193   2.6178   2.6562   2.8670
     3.8416   3.9948   4.8547   5.0009   5.0951   5.2382   5.3544   5.3935
     5.8863   5.9599   6.0496   6.1476   6.2681   6.2916   6.3919   6.6513
     6.7812   6.8446   6.9698   6.9766   7.0124   7.0592   7.2826   7.3843
     7.5660   7.6299   7.7040   7.7531   7.9106   8.0144   8.0748   8.1076
     8.1108   8.2074

          k = 0.2500 0.5236 0.0000 ( 76142 PWs)   bands (ev):

   -41.4797 -39.2008 -38.5878 -36.2183 -23.4221 -23.3120 -23.2872 -23.2073
   -23.0536 -22.9367 -22.9192 -22.8419 -21.5999 -21.5181 -21.4846 -20.2966
   -20.2393 -20.2360 -18.9512 -18.9326 -18.9318 -17.4788 -17.4629 -17.4554
   -16.3281 -16.0151 -15.7736 -15.5459 -15.4225 -15.3231 -15.2356 -15.1829
   -15.1729 -15.1467 -15.0865 -15.0772 -15.0118 -14.9443 -14.7800 -14.7389
   -14.6767 -14.6645 -14.5733 -14.5282 -14.5233 -14.4978 -14.4828 -14.4541
   -14.4447 -14.4004 -14.3352 -14.2981 -14.0578 -13.8597  -8.9701  -8.8747
    -8.8301  -8.7011  -8.6940  -8.6216  -8.5965  -8.5843  -8.5397  -8.5289
    -8.5217  -8.4408  -8.4101  -8.3342  -8.2782  -8.2772  -8.2452  -8.1763
    -8.1737  -8.1477  -8.1008  -8.0728  -7.8996  -7.8339  -4.3830  -3.9101
    -3.8722  -3.5531  -3.3915  -3.2902  -3.2185  -3.1259  -3.0834  -3.0674
    -3.0441  -2.9522  -2.9140  -2.8216  -2.8100  -2.7966  -2.7471  -2.6932
    -2.6744  -2.6243  -2.6195  -2.6151  -2.5926  -2.5342  -2.4973  -2.4958
    -2.4742  -2.4366  -2.3673  -2.3496  -2.1466  -2.1204  -2.1097  -2.0447
    -1.9327  -1.9041  -1.8142  -1.7824  -1.6535  -1.6201  -1.5660  -1.5539
    -1.5368  -1.5062  -1.4413  -1.4201  -1.4100  -1.3945  -1.3624  -1.3349
    -1.2939  -1.2466  -1.1996  -1.1701  -1.1382  -1.0988  -1.0794  -1.0408
    -1.0225  -1.0046  -0.9536  -0.9320  -0.9271  -0.9159  -0.8793  -0.8299
    -0.8271  -0.8002  -0.7705  -0.7385  -0.6445  -0.6065  -0.5430  -0.4528
    -0.4273  -0.3518  -0.3452  -0.3339  -0.3031  -0.2663  -0.2307  -0.1542
    -0.1264  -0.1058  -0.0695  -0.0190   0.0333   0.0340   0.0595   0.0915
     0.2165   0.2544   0.2748   0.3043   0.3359   0.3651   0.4266   0.4718
     0.4876   0.5588   0.5804   0.5993   0.6039   0.6064   0.6351   0.6660
     0.7262   0.7329   0.7368   0.7375   0.7705   0.8185   0.8705   0.8927
     0.9061   0.9362   0.9524   0.9656   0.9778   0.9873   1.0330   1.0536
     1.0572   1.0824   1.0893   1.0989   1.1654   1.1934   1.2252   1.2509
     1.2528   1.2916   1.3306   1.3497   1.4134   1.4644   1.5275   1.5287
     1.5783   1.6067   1.6083   1.6498   1.7057   1.7076   1.8132   1.8597
     2.0255   2.0837   2.1763   2.2670   2.4902   2.5669   2.6090   2.7180
     2.8008   2.8239   2.8903   3.1012   3.1390   3.1835   3.3176   3.5763
     3.9712   4.1776   4.5928   4.9446   5.2858   5.4996   5.6346   6.0514
     6.1401   6.1656   6.2758   6.3079   6.3275   6.5234   6.5305   6.6684
     6.8862   6.9290   7.4311   7.4808   7.6416   7.7323   7.7512   7.8468
     7.8614   7.9068   8.0207   8.0814   8.1544   8.2725   8.3413   8.3698
     8.4021   8.4542

          k = 0.2500 0.7854 0.0000 ( 76172 PWs)   bands (ev):

   -41.4747 -39.1975 -38.5813 -36.2141 -23.3645 -23.2628 -23.2271 -23.1569
   -22.9957 -22.8875 -22.8578 -22.7916 -21.6641 -21.5090 -21.5001 -20.3300
   -20.2466 -20.2334 -19.1601 -18.9155 -18.8261 -17.5945 -17.4434 -17.3935
   -16.1578 -15.8947 -15.8180 -15.5032 -15.3658 -15.2212 -15.1778 -15.1460
   -15.0649 -15.0225 -15.0196 -15.0013 -14.9828 -14.8580 -14.7722 -14.7223
   -14.6557 -14.5941 -14.5597 -14.5227 -14.4791 -14.4734 -14.4496 -14.4031
   -14.3923 -14.3841 -14.3649 -14.3487 -14.1092 -13.9688  -9.2345  -9.1509
    -8.9079  -8.8545  -8.8378  -8.8017  -8.7897  -8.7422  -8.6694  -8.6480
    -8.5683  -8.5235  -8.4954  -8.4543  -8.4265  -8.3843  -8.3021  -8.2894
    -8.2276  -8.2252  -8.1279  -8.0758  -7.9365  -7.8829  -4.8293  -4.3912
    -4.1836  -3.9667  -3.8177  -3.7199  -3.6084  -3.5308  -3.4805  -3.3562
    -3.3352  -3.3182  -3.3097  -3.2434  -3.2257  -3.1857  -3.0620  -2.9461
    -2.8999  -2.7433  -2.7339  -2.7218  -2.7179  -2.6896  -2.6409  -2.6182
    -2.4980  -2.4888  -2.3809  -2.3677  -2.3108  -2.2713  -2.2178  -2.1121
    -2.0846  -2.0356  -1.9234  -1.8922  -1.8810  -1.8800  -1.7484  -1.7164
    -1.6329  -1.5929  -1.5626  -1.5358  -1.5234  -1.4766  -1.4716  -1.4547
    -1.4297  -1.3709  -1.3211  -1.2813  -1.2740  -1.2646  -1.2431  -1.2355
    -1.2058  -1.1771  -1.1447  -1.1251  -1.1153  -1.1145  -1.0858  -1.0176
    -0.9951  -0.9643  -0.9466  -0.7632  -0.6508  -0.6427  -0.5932  -0.4932
    -0.3594  -0.3524  -0.3241  -0.2504  -0.1877  -0.1396  -0.1216  -0.1036
    -0.0443   0.0237   0.0775   0.1451   0.1854   0.1900   0.1968   0.2081
     0.4035   0.4258   0.4614   0.4875   0.4964   0.5680   0.6265   0.6318
     0.6517   0.6684   0.6880   0.6910   0.7227   0.7435   0.8105   0.8506
     0.8546   0.8947   0.9172   0.9410   0.9799   0.9924   1.0052   1.0433
     1.0479   1.0758   1.1225   1.1792   1.1900   1.1997   1.2456   1.2541
     1.2563   1.2827   1.2943   1.3226   1.3302   1.3789   1.3843   1.4205
     1.4269   1.4741   1.5144   1.5602   1.5720   1.6130   1.7140   1.7737
     1.7762   1.8038   1.8161   1.8684   1.8848   1.9342   1.9509   2.0036
     2.0103   2.2346   2.3548   2.4187   2.4319   2.5383   2.5617   2.5859
     2.8242   3.0127   3.3778   3.4483   3.5023   3.7056   3.7959   4.0098
     4.0903   4.3303   4.4597   4.8450   5.2445   5.3251   5.6240   5.7953
     5.9785   6.3348   6.4585   6.6521   6.7708   6.7972   6.9359   7.0156
     7.1852   7.2548   7.4800   7.7018   7.9783   8.0916   8.1793   8.2105
     8.2634   8.3566   8.3697   8.4277   8.5262   8.5321   8.6745   8.6922
     8.7378   8.7721

          k = 0.2500-1.0472 0.0000 ( 76172 PWs)   bands (ev):

   -41.4726 -39.1962 -38.5786 -36.2124 -23.3402 -23.2420 -23.2017 -23.1357
   -22.9713 -22.8667 -22.8318 -22.7703 -21.7006 -21.5052 -21.4955 -20.3510
   -20.2434 -20.2311 -19.2407 -18.9084 -18.7789 -17.6450 -17.4381 -17.3573
   -16.0442 -15.8927 -15.8195 -15.5529 -15.3848 -15.1800 -15.1512 -15.1374
   -15.0600 -15.0146 -14.9675 -14.8944 -14.8616 -14.8174 -14.7478 -14.7240
   -14.6954 -14.6630 -14.5863 -14.5221 -14.4448 -14.4317 -14.4258 -14.3848
   -14.3617 -14.3342 -14.3241 -14.3162 -14.1974 -14.0299  -9.3285  -9.2367
    -9.0072  -8.9647  -8.9405  -8.8851  -8.8753  -8.7446  -8.6766  -8.6346
    -8.6069  -8.6000  -8.5761  -8.5210  -8.4422  -8.3864  -8.3240  -8.2902
    -8.2658  -8.2144  -8.1409  -8.0665  -7.9622  -7.9226  -5.0107  -4.5898
    -4.3095  -4.1546  -3.9827  -3.9220  -3.8174  -3.6861  -3.6846  -3.5900
    -3.5614  -3.5406  -3.4579  -3.3866  -3.3673  -3.2966  -3.0787  -2.9126
    -2.8768  -2.8034  -2.7595  -2.7561  -2.7458  -2.6979  -2.6428  -2.6354
    -2.6081  -2.4950  -2.4824  -2.4320  -2.2908  -2.2314  -2.1820  -2.1639
    -2.1194  -2.0036  -1.9982  -1.9883  -1.9805  -1.9547  -1.9475  -1.8034
    -1.7068  -1.6324  -1.6022  -1.5815  -1.5647  -1.5381  -1.4935  -1.4838
    -1.4665  -1.3881  -1.3866  -1.3513  -1.3384  -1.3281  -1.3259  -1.3059
    -1.2874  -1.2337  -1.2238  -1.2076  -1.1815  -1.1657  -1.1189  -1.0930
    -1.0014  -0.9604  -0.9433  -0.7394  -0.6701  -0.6400  -0.6053  -0.5030
    -0.3630  -0.3317  -0.3173  -0.2809  -0.1700  -0.1526  -0.1312  -0.0988
     0.0338   0.0883   0.1651   0.1964   0.2285   0.2475   0.2529   0.2812
     0.4758   0.4901   0.5409   0.5462   0.5651   0.5753   0.6454   0.6551
     0.6979   0.7184   0.7310   0.7452   0.7645   0.7940   0.8200   0.8870
     0.9034   0.9271   0.9355   0.9903   1.0360   1.0552   1.0836   1.1143
     1.1294   1.1561   1.1590   1.2198   1.2313   1.2583   1.2695   1.2965
     1.3523   1.3973   1.4152   1.4345   1.4498   1.4751   1.5582   1.6354
     1.6860   1.7031   1.7067   1.7254   1.7312   1.7590   1.7712   1.7772
     1.8408   1.8700   1.9181   1.9199   1.9713   2.0391   2.0758   2.1019
     2.1036   2.1734   2.1972   2.2246   2.3896   2.4338   2.5520   2.6966
     2.7154   3.0708   3.4669   3.5565   3.7170   3.8598   3.9490   4.0196
     4.2386   4.2530   4.4045   4.8837   5.1416   5.2254   5.6049   5.7632
     5.7933   6.2377   6.6289   6.6659   6.8794   6.9816   7.1680   7.1710
     7.4175   7.4417   7.6337   7.7008   7.7292   7.8009   8.3183   8.3576
     8.3926   8.4907   8.4947   8.6690   8.7229   8.7255   8.8018   8.8302
     8.9197   8.9369

          k = 0.3750 0.0000 0.0000 ( 76246 PWs)   bands (ev):

   -41.4868 -39.2055 -38.5970 -36.2241 -23.4905 -23.3909 -23.3514 -23.2954
   -23.1227 -23.0151 -22.9832 -22.9319 -21.5986 -21.5291 -21.3662 -20.3023
   -20.2504 -20.1663 -19.0679 -18.9489 -18.6002 -17.5893 -17.5048 -17.2538
   -16.4759 -16.2198 -15.7867 -15.7406 -15.4769 -15.4486 -15.3834 -15.3468
   -15.2840 -15.2460 -15.2136 -15.1511 -15.1173 -15.0729 -14.9074 -14.7782
   -14.7680 -14.6377 -14.5771 -14.5704 -14.5595 -14.5095 -14.4814 -14.4771
   -14.4691 -14.3685 -14.2719 -14.1629 -13.9881 -13.7768  -8.8620  -8.7633
    -8.6358  -8.5335  -8.4417  -8.4204  -8.3491  -8.3463  -8.3224  -8.3211
    -8.2559  -8.2311  -8.2301  -8.1709  -8.1330  -8.1247  -8.0528  -8.0110
    -7.9685  -7.9607  -7.9110  -7.8793  -7.8616  -7.7862  -3.7779  -3.3642
    -3.2638  -3.2497  -3.1211  -2.8892  -2.8653  -2.8111  -2.7932  -2.7441
    -2.7166  -2.6825  -2.6341  -2.6017  -2.5894  -2.5694  -2.4351  -2.3903
    -2.3097  -2.2800  -2.2755  -2.0674  -2.0613  -2.0413  -2.0175  -1.9912
    -1.9455  -1.7620  -1.7171  -1.6580  -1.6310  -1.5797  -1.5466  -1.5036
    -1.4965  -1.4844  -1.4808  -1.4384  -1.4218  -1.4211  -1.4148  -1.4048
    -1.3920  -1.3243  -1.3226  -1.2992  -1.2322  -1.2319  -1.1467  -1.0983
    -1.0758  -1.0751  -1.0249  -0.9981  -0.9844  -0.9410  -0.9038  -0.8933
    -0.8807  -0.8655  -0.7818  -0.7550  -0.7382  -0.6903  -0.6883  -0.5950
    -0.5853  -0.5506  -0.5396  -0.5185  -0.4911  -0.4558  -0.4479  -0.4453
    -0.3832  -0.3500  -0.3332  -0.3174  -0.3041  -0.2858  -0.2720  -0.2351
    -0.2208  -0.1922  -0.1740  -0.1682  -0.1542  -0.0932  -0.0791  -0.0719
    -0.0420  -0.0333  -0.0297  -0.0083   0.0279   0.0383   0.0475   0.0990
     0.1421   0.1500   0.1891   0.2235   0.2384   0.2918   0.3408   0.3535
     0.4239   0.4369   0.4552   0.4876   0.5133   0.5588   0.6189   0.6363
     0.6649   0.6944   0.7315   0.7848   0.8280   0.8496   0.8930   0.9348
     0.9430   0.9795   1.0185   1.0235   1.0363   1.0857   1.1394   1.1704
     1.2152   1.2236   1.2442   1.3028   1.3187   1.3218   1.3695   1.3717
     1.4045   1.4106   1.4310   1.4545   1.4561   1.5607   1.6327   1.6400
     1.6667   1.7306   1.7718   1.8894   1.9162   1.9420   1.9739   1.9997
     2.0000   2.0927   2.1017   2.1434   2.2834   2.3327   2.3440   2.5195
     3.7857   4.2206   4.7108   4.9699   5.1045   5.1089   5.2186   5.4415
     5.6641   5.7684   5.8419   5.9988   6.1358   6.2989   6.4178   6.5868
     6.6452   6.6823   6.8457   6.8863   6.9153   7.0208   7.2439   7.3056
     7.3201   7.5494   7.5844   7.6340   7.6366   7.8521   7.9196   8.0005
     8.0611   8.1046

          k = 0.3750 0.2618 0.0000 ( 76194 PWs)   bands (ev):

   -41.4848 -39.2041 -38.5943 -36.2224 -23.4683 -23.3707 -23.3285 -23.2743
   -23.1004 -22.9949 -22.9599 -22.9108 -21.5931 -21.5253 -21.4076 -20.2979
   -20.2480 -20.1898 -19.0294 -18.9419 -18.7111 -17.5590 -17.4973 -17.3194
   -16.4277 -16.1762 -15.7404 -15.6838 -15.4272 -15.3952 -15.3626 -15.3241
   -15.2211 -15.2118 -15.1903 -15.1205 -15.1048 -15.0500 -14.8522 -14.7389
   -14.7173 -14.6440 -14.6331 -14.5585 -14.5548 -14.5137 -14.4942 -14.4688
   -14.4524 -14.3934 -14.2894 -14.2028 -14.0008 -13.7995  -8.8673  -8.7602
    -8.6361  -8.5908  -8.5807  -8.5645  -8.5286  -8.4462  -8.4396  -8.3604
    -8.2515  -8.2474  -8.2351  -8.2144  -8.2021  -8.1682  -8.1521  -8.1209
    -8.1124  -8.0594  -7.8842  -7.8595  -7.8049  -7.7804  -3.8776  -3.5897
    -3.3558  -3.1829  -3.1625  -3.0999  -3.0016  -2.8745  -2.8142  -2.7170
    -2.7076  -2.6959  -2.6836  -2.6544  -2.6252  -2.5808  -2.5710  -2.5340
    -2.4295  -2.4155  -2.4054  -2.3935  -2.2477  -2.1843  -2.1590  -2.0022
    -1.9595  -1.9453  -1.9406  -1.9200  -1.9141  -1.8689  -1.8536  -1.8444
    -1.8146  -1.7188  -1.7132  -1.6626  -1.5902  -1.5457  -1.4998  -1.4717
    -1.4608  -1.4285  -1.3831  -1.3666  -1.2985  -1.2438  -1.2362  -1.1852
    -1.1705  -1.1464  -1.1103  -1.0422  -0.9800  -0.9456  -0.8999  -0.8779
    -0.8661  -0.8129  -0.7940  -0.7709  -0.6844  -0.6501  -0.6385  -0.6314
    -0.5952  -0.5734  -0.5596  -0.5437  -0.5232  -0.5198  -0.4668  -0.4516
    -0.3933  -0.3756  -0.3227  -0.3213  -0.2937  -0.2835  -0.2183  -0.2171
    -0.1718  -0.1577  -0.1434  -0.1366  -0.1249  -0.1243  -0.1110  -0.0801
    -0.0788  -0.0415  -0.0007   0.0092   0.0437   0.0751   0.0779   0.1065
     0.1176   0.1834   0.2105   0.3417   0.4061   0.4356   0.4886   0.5367
     0.5427   0.5638   0.5746   0.6000   0.6205   0.6551   0.6955   0.7067
     0.7337   0.7350   0.7577   0.7678   0.8068   0.8742   0.9351   0.9631
     0.9690   0.9958   1.0309   1.0713   1.0896   1.0992   1.1228   1.1493
     1.1690   1.1917   1.1953   1.2184   1.2405   1.2792   1.3294   1.4214
     1.4461   1.4921   1.5100   1.5813   1.6847   1.7094   1.7338   1.7866
     1.8714   1.9244   1.9832   2.0732   2.1944   2.2435   2.3712   2.4057
[...]
    -3.1838  -3.1714  -3.1671  -3.1166  -3.0293  -2.9654  -2.7361  -2.7211
    -2.7073  -2.7048  -2.6942  -2.6660  -2.6220  -2.6057  -2.5941  -2.5665
    -2.4128  -2.4096  -2.4026  -2.2935  -2.2181  -2.1595  -2.1432  -2.0474
    -1.9986  -1.9702  -1.9317  -1.9184  -1.9155  -1.9094  -1.8758  -1.8540
    -1.8519  -1.7906  -1.7310  -1.5786  -1.5660  -1.5306  -1.4768  -1.4419
    -1.4369  -1.4238  -1.4077  -1.3866  -1.3814  -1.3391  -1.2850  -1.2156
    -1.1651  -1.1114  -1.0971  -0.9941  -0.9591  -0.9379  -0.9357  -0.8892
    -0.8785  -0.8761  -0.7915  -0.7434  -0.7176  -0.6976  -0.6155  -0.6081
    -0.5963  -0.5929  -0.5846  -0.5808  -0.5103  -0.5079  -0.4799  -0.4513
    -0.3969  -0.3822  -0.3167  -0.3110  -0.2931  -0.2838  -0.2192  -0.1937
    -0.1622  -0.1448  -0.1420  -0.1397  -0.1228  -0.0838  -0.0775  -0.0556
    -0.0484  -0.0328  -0.0294  -0.0059   0.0710   0.0742   0.0752   0.0902
     0.1137   0.1501   0.2060   0.3290   0.4138   0.4423   0.4492   0.5302
     0.5373   0.5554   0.5600   0.6098   0.6257   0.6318   0.6601   0.7259
     0.7327   0.7532   0.8025   0.8527   0.8612   0.9111   0.9158   0.9507
     0.9522   0.9586   1.0381   1.0530   1.0796   1.0858   1.0873   1.1115
     1.1693   1.2044   1.2066   1.2277   1.2685   1.2692   1.3739   1.4044
     1.4555   1.4828   1.4829   1.5206   1.7001   1.7582   1.7808   1.7918
     1.8861   1.8903   2.0815   2.1356   2.1975   2.2765   2.3111   2.3899
     2.4006   2.4302   2.4953   2.5023   2.5126   2.5154   2.6094   2.7871
     3.8804   4.4866   4.5327   4.9693   5.0588   5.5364   5.6098   5.6273
     5.7191   5.7334   5.9102   6.0783   6.1774   6.3173   6.4759   6.5418
     6.6178   6.8450   7.1899   7.2438   7.3083   7.3508   7.4062   7.4675
     7.4914   7.5102   7.6020   7.6611   7.7160   7.9978   8.0859   8.2053
     8.2541   8.3301

          k =-0.5000 0.5236 0.0000 ( 76162 PWs)   bands (ev):

   -41.4797 -39.2008 -38.5878 -36.2183 -23.4095 -23.3252 -23.2623 -23.2329
   -23.0417 -22.9492 -22.8883 -22.8736 -21.6000 -21.5154 -21.4846 -20.2963
   -20.2437 -20.2362 -18.9510 -18.9298 -18.9217 -17.4906 -17.4860 -17.4624
   -16.2862 -16.0818 -15.7498 -15.4159 -15.4030 -15.3261 -15.2104 -15.1985
   -15.1682 -15.1187 -15.1036 -15.0902 -15.0386 -15.0151 -14.7885 -14.7139
   -14.6569 -14.6453 -14.6322 -14.5492 -14.5179 -14.5050 -14.4766 -14.4550
   -14.4297 -14.4196 -14.3501 -14.2962 -14.0317 -13.8690  -8.9221  -8.9014
    -8.8389  -8.8113  -8.8097  -8.7011  -8.5831  -8.5455  -8.5191  -8.5157
    -8.4906  -8.4707  -8.4221  -8.3873  -8.2646  -8.2607  -8.2398  -8.2289
    -8.1076  -8.1046  -8.0140  -7.9263  -7.9002  -7.8833  -4.1659  -4.0327
    -3.6403  -3.5627  -3.3007  -3.2857  -3.2769  -3.1629  -3.1121  -3.0723
    -2.9102  -2.8827  -2.8620  -2.8426  -2.7402  -2.7380  -2.7162  -2.7032
    -2.6754  -2.6545  -2.6124  -2.6069  -2.5886  -2.5818  -2.5587  -2.5165
    -2.4882  -2.4719  -2.4008  -2.2785  -2.1342  -2.1083  -2.0854  -2.0193
    -1.9981  -1.9897  -1.9709  -1.8978  -1.8442  -1.8057  -1.7537  -1.5779
    -1.5754  -1.5242  -1.5010  -1.4753  -1.4229  -1.3740  -1.3725  -1.3563
    -1.2965  -1.2891  -1.2109  -1.1970  -1.1908  -1.1827  -1.0830  -1.0000
    -0.9902  -0.9844  -0.9663  -0.9550  -0.9132  -0.9025  -0.8397  -0.8178
    -0.7937  -0.7871  -0.7680  -0.7431  -0.7358  -0.5558  -0.5427  -0.5323
    -0.5093  -0.4633  -0.4233  -0.3206  -0.3010  -0.2450  -0.1543  -0.0594
    -0.0398  -0.0364  -0.0344  -0.0042   0.0176   0.0819   0.0886   0.2266
     0.2300   0.2400   0.2646   0.2898   0.3240   0.3458   0.4089   0.4326
     0.4714   0.4765   0.5228   0.5365   0.5575   0.5584   0.6367   0.6451
     0.6453   0.6777   0.6793   0.7530   0.8102   0.8690   0.8830   0.8864
     0.9317   0.9494   0.9711   0.9906   1.0327   1.0421   1.0513   1.0605
     1.1008   1.1134   1.1318   1.1518   1.1694   1.2099   1.2257   1.2477
     1.2491   1.3918   1.4016   1.4362   1.4405   1.4457   1.4503   1.5372
     1.5488   1.6034   1.6382   1.6623   1.6686   1.7749   1.8310   1.8724
     2.2981   2.4233   2.4976   2.5366   2.5678   2.5719   2.7146   2.7152
     2.7240   2.7673   2.8682   2.9521   3.1037   3.1317   3.1391   3.2486
     4.0685   4.4242   4.5488   4.8402   5.2692   5.5522   5.6201   6.1257
     6.1537   6.2681   6.2797   6.2856   6.3295   6.5462   6.6126   6.6714
     6.7176   6.8880   7.5272   7.6712   7.7132   7.7828   7.8051   7.8094
     7.9769   7.9778   8.0217   8.1049   8.2300   8.2493   8.2951   8.4223
     8.5557   8.5697

          k =-0.5000 0.7854 0.0000 ( 76134 PWs)   bands (ev):

   -41.4747 -39.1975 -38.5813 -36.2141 -23.3543 -23.2735 -23.2070 -23.1775
   -22.9862 -22.8975 -22.8323 -22.8176 -21.6641 -21.5063 -21.5003 -20.3300
   -20.2462 -20.2379 -19.1600 -18.9048 -18.8242 -17.5944 -17.4746 -17.4008
   -16.1316 -15.9300 -15.8085 -15.5014 -15.2744 -15.2481 -15.1008 -15.0860
   -15.0816 -15.0280 -15.0100 -14.9990 -14.9728 -14.9211 -14.8217 -14.8051
   -14.6009 -14.5991 -14.5451 -14.5301 -14.4638 -14.4635 -14.4583 -14.4539
   -14.3915 -14.3791 -14.3731 -14.3624 -14.1061 -13.9690  -9.0735  -8.9815
    -8.9655  -8.9270  -8.8605  -8.7333  -8.6597  -8.6356  -8.6113  -8.6096
    -8.5916  -8.5627  -8.5482  -8.5113  -8.4690  -8.4684  -8.4001  -8.2719
    -8.2210  -8.1616  -8.1485  -8.1074  -8.0928  -8.0777  -4.5918  -4.3649
    -4.1521  -3.9720  -3.7547  -3.7340  -3.6167  -3.6159  -3.3586  -3.3531
    -3.3333  -3.3324  -3.2449  -3.2218  -3.2088  -3.1553  -3.0136  -2.9029
    -2.8271  -2.8226  -2.7571  -2.7415  -2.6633  -2.6417  -2.6209  -2.6035
    -2.5969  -2.5583  -2.4491  -2.3206  -2.3092  -2.2504  -2.2128  -2.2039
    -2.1427  -2.0721  -2.0475  -2.0413  -1.9515  -1.8938  -1.8643  -1.7329
    -1.7192  -1.6475  -1.6222  -1.5602  -1.5488  -1.5450  -1.4997  -1.4912
    -1.4286  -1.3840  -1.3573  -1.2884  -1.2737  -1.2575  -1.2401  -1.2388
    -1.2274  -1.1815  -1.1517  -1.1471  -1.0602  -1.0550  -1.0379  -0.9726
    -0.9547  -0.9168  -0.8490  -0.8180  -0.7009  -0.6147  -0.5766  -0.4923
    -0.4778  -0.3555  -0.3350  -0.2307  -0.2008  -0.1271  -0.0547  -0.0121
    -0.0043   0.0099   0.0642   0.1101   0.1664   0.2446   0.3077   0.3336
     0.4156   0.4334   0.4675   0.4704   0.4921   0.5124   0.5419   0.5806
     0.6498   0.6566   0.6774   0.7239   0.7297   0.7731   0.7989   0.8535
     0.8568   0.8907   0.9064   0.9195   0.9881   1.0276   1.0409   1.0749
     1.0964   1.0964   1.1054   1.1307   1.1645   1.2053   1.2314   1.2392
     1.2478   1.2491   1.2852   1.2858   1.2981   1.3215   1.3569   1.3958
     1.4402   1.4691   1.4926   1.5729   1.5980   1.6452   1.6707   1.6720
     1.7361   1.8515   1.8619   1.8878   1.9347   1.9354   2.0414   2.1920
     2.4039   2.4287   2.5505   2.5846   2.6069   2.6367   2.7480   2.9582
     2.9854   3.0070   3.1476   3.1662   3.4268   3.4318   3.4804   3.4880
     4.1895   4.2590   4.6955   4.7046   5.1803   5.5331   5.5767   6.1516
     6.2746   6.3154   6.4582   6.5131   6.5562   6.5893   6.6617   6.9154
     7.0794   7.1642   7.5584   7.6209   8.1340   8.1978   8.2040   8.2687
     8.2694   8.3270   8.4138   8.4608   8.4751   8.5233   8.5895   8.6783
     8.7360   8.8666

          k =-0.5000-1.0472 0.0000 ( 76140 PWs)   bands (ev):

   -41.4726 -39.1962 -38.5786 -36.2124 -23.3309 -23.2516 -23.1837 -23.1541
   -22.9627 -22.8757 -22.8086 -22.7939 -21.7006 -21.5025 -21.4958 -20.3510
   -20.2430 -20.2356 -19.2406 -18.8978 -18.7772 -17.6451 -17.4683 -17.3641
   -16.0331 -15.8692 -15.8400 -15.5666 -15.2969 -15.2318 -15.0786 -15.0780
   -15.0722 -14.9974 -14.9508 -14.8926 -14.8639 -14.8158 -14.8062 -14.7900
   -14.6904 -14.6652 -14.6027 -14.5768 -14.4392 -14.4384 -14.3908 -14.3702
   -14.3674 -14.3643 -14.3305 -14.3235 -14.1767 -14.0476  -9.0950  -8.9866
    -8.9689  -8.9183  -8.8676  -8.7648  -8.7291  -8.6694  -8.6442  -8.6387
    -8.6326  -8.6203  -8.6050  -8.5881  -8.5415  -8.5389  -8.4246  -8.3817
    -8.2948  -8.2905  -8.2230  -8.2048  -8.1237  -8.0713  -4.7652  -4.4993
    -4.3534  -4.1331  -3.9518  -3.9318  -3.8227  -3.7852  -3.5788  -3.5662
    -3.5655  -3.5617  -3.4518  -3.4234  -3.2089  -3.1440  -3.0907  -3.0187
    -2.9088  -2.7993  -2.7651  -2.7366  -2.6865  -2.6555  -2.6362  -2.6204
    -2.5777  -2.5335  -2.4995  -2.4673  -2.3781  -2.3264  -2.2688  -2.2287
    -2.1713  -2.0913  -2.0788  -1.9895  -1.9825  -1.9203  -1.8981  -1.8505
    -1.8473  -1.6971  -1.6739  -1.6071  -1.6050  -1.5916  -1.5888  -1.5744
    -1.4587  -1.4106  -1.3444  -1.3393  -1.3373  -1.3289  -1.3285  -1.2724
    -1.2444  -1.2429  -1.2293  -1.1425  -1.1255  -1.1193  -1.0731  -0.9869
    -0.9833  -0.9461  -0.8704  -0.8463  -0.6527  -0.6394  -0.5936  -0.4749
    -0.4652  -0.3044  -0.2904  -0.2011  -0.1561  -0.0978  -0.0225  -0.0065
     0.0042   0.0241   0.0421   0.1957   0.2186   0.3626   0.4168   0.4697
     0.4835   0.4886   0.5223   0.5338   0.5685   0.6156   0.6442   0.6601
     0.6919   0.6949   0.7534   0.7947   0.8203   0.8457   0.8646   0.8648
     0.8729   0.8937   0.9118   0.9280   0.9375   0.9397   0.9453   1.0156
     1.0739   1.1364   1.1563   1.2229   1.2485   1.2698   1.2718   1.3203
     1.3294   1.3811   1.4112   1.4211   1.4495   1.4521   1.4993   1.5091
     1.5401   1.5629   1.6254   1.6834   1.6873   1.7534   1.7622   1.8218
     1.8338   1.9095   2.0312   2.0401   2.0991   2.1040   2.1910   2.2017
     2.2166   2.3825   2.4065   2.4315   2.6368   2.6776   2.8101   2.9734
     3.0569   3.1552   3.1560   3.2548   3.4272   3.4837   3.5685   3.6924
     4.1687   4.1941   4.5481   4.8429   5.0320   5.5071   5.6765   6.1253
     6.2149   6.2624   6.4088   6.4806   6.4835   6.5903   6.7230   7.0993
     7.2964   7.4150   7.6867   7.6924   7.7293   7.7392   8.2845   8.4150
     8.4640   8.5999   8.7111   8.8802   8.9025   8.9297   8.9400   8.9705
     9.0737   9.0934

     the Fermi energy is     2.2114 ev

!    total energy              =   -3711.04017465 Ry
     Harris-Foulkes estimate   =   -3711.04017466 Ry
     estimated scf accuracy    <          1.8E-09 Ry

     The total energy is the sum of the following terms:

     one-electron contribution =  -58819.47554779 Ry
     hartree contribution      =   29704.98203130 Ry
     xc contribution           =   -1263.17419057 Ry
     ewald contribution        =   26666.64253029 Ry
     smearing contrib. (-TS)   =      -0.01499788 Ry

     convergence has been achieved in  52 iterations

     negative rho (up, down):  9.153E-02 0.000E+00

     Forces acting on atoms (cartesian axes, Ry/au):

     atom    1 type  4   force =    -0.00000877    0.00000000   -0.00011200
     atom    2 type  4   force =     0.00000877    0.00000000   -0.00011200
     atom    3 type  3   force =    -0.00001915    0.00000000   -0.00012168
     atom    4 type  3   force =     0.00001915    0.00000000   -0.00012168
     atom    5 type  4   force =    -0.00000110    0.00000000   -0.00006514
     atom    6 type  4   force =     0.00000110    0.00000000   -0.00006514
     atom    7 type  1   force =     0.00000000    0.00000000   -0.00010716
     atom    8 type  1   force =     0.00000000    0.00000000   -0.00009842
     atom    9 type  3   force =     0.00001731    0.00000000    0.00001610
     atom   10 type  3   force =    -0.00001731    0.00000000    0.00001610
     atom   11 type  4   force =     0.00000000    0.00000000    0.00011785
     atom   12 type  4   force =    -0.00000714    0.00000000    0.00003884
     atom   13 type  4   force =     0.00000714    0.00000000    0.00003884
     atom   14 type  4   force =     0.00000000    0.00000000    0.00015933
     atom   15 type  2   force =     0.00000000    0.00000000   -0.00044649
     atom   16 type  5   force =     0.00000000    0.00000000   -0.00067989
     atom   17 type  4   force =     0.00007584    0.00000000    0.00072338
     atom   18 type  4   force =    -0.00007584    0.00000000    0.00072338
     atom   19 type  4   force =     0.00000000    0.00000000    0.00080133
     atom   20 type  4   force =     0.00000000    0.00000000    0.00102845
     atom   21 type  3   force =    -0.00004060    0.00000000   -0.00115220
     atom   22 type  3   force =     0.00004060    0.00000000   -0.00115220
     atom   23 type  1   force =     0.00000000    0.00000000   -0.00190432
     atom   24 type  1   force =     0.00000000    0.00000000   -0.00198635
     atom   25 type  4   force =    -0.00021854    0.00000000    0.00366708
     atom   26 type  4   force =     0.00021854    0.00000000    0.00366708
     atom   27 type  4   force =    -0.00037256    0.00000000    0.00432536
     atom   28 type  4   force =     0.00037256    0.00000000    0.00432536
     atom   29 type  3   force =     0.00157289    0.00000000   -0.00836234
     atom   30 type  3   force =    -0.00157289    0.00000000   -0.00836234
     atom   31 type  4   force =    -0.00058189    0.00000000    0.01225868
     atom   32 type  4   force =     0.00058189    0.00000000    0.01225868
     atom   33 type  1   force =     0.00000000    0.00000000   -0.02189914
     atom   34 type  1   force =     0.00000000    0.00000000   -0.01692511
     atom   35 type  3   force =     0.00106166    0.00000000    0.00802349
     atom   36 type  3   force =    -0.00106166    0.00000000    0.00802349
     atom   37 type  4   force =     0.00000000    0.00000000    0.05180083
     atom   38 type  4   force =     0.00000000    0.00000000    0.06288144
     atom   39 type  4   force =     0.01862053    0.00000000    0.06179815
     atom   40 type  4   force =    -0.01862053    0.00000000    0.06179815
     atom   41 type  5   force =     0.00000000    0.00000000   -0.14433146
     atom   42 type  2   force =     0.00000000    0.00000000   -0.08553014
     atom   43 type  4   force =     0.00000000    0.00000000    0.03062939
     atom   44 type  4   force =    -0.00296077    0.00000000    0.01853275
     atom   45 type  4   force =     0.00296077    0.00000000    0.01853275
     atom   46 type  4   force =     0.00000000    0.00000000    0.02652141
     atom   47 type  3   force =    -0.00128196    0.00000000   -0.01927180
     atom   48 type  3   force =     0.00128196    0.00000000   -0.01927180
     atom   49 type  1   force =     0.00000000    0.00000000   -0.02451390
     atom   50 type  1   force =     0.00000000    0.00000000   -0.02935720
     atom   51 type  4   force =     0.00136349    0.00000000   -0.00466936
     atom   52 type  4   force =    -0.00136349    0.00000000   -0.00466936
     atom   53 type  3   force =    -0.00030261    0.00000000    0.00134114
     atom   54 type  3   force =     0.00030261    0.00000000    0.00134114
     atom   55 type  4   force =     0.00015859    0.00000000   -0.00005066
     atom   56 type  4   force =    -0.00015859    0.00000000   -0.00005066

     Total force =     0.221683     Total SCF correction =     0.000223


     Computing stress (Cartesian axis) and pressure


     negative rho (up, down):  9.153E-02 0.000E+00
          total   stress  (Ry/bohr**3)                   (kbar)     P=       -7.71
  -0.00003970   0.00000000   0.00000000           -5.84        0.00        0.00
   0.00000000  -0.00002523   0.00000000            0.00       -3.71        0.00
   0.00000000   0.00000000  -0.00009227            0.00        0.00      -13.57

 
     init_run     :     26.86s CPU     28.20s WALL (       1 calls)
     electrons    :   2535.99s CPU   2661.06s WALL (       1 calls)
     forces       :     11.24s CPU     12.01s WALL (       1 calls)
     stress       :    105.05s CPU    107.41s WALL (       1 calls)

     Called by init_run:
     wfcinit      :     21.77s CPU     22.41s WALL (       1 calls)
     potinit      :      1.02s CPU      1.08s WALL (       1 calls)
     hinit0       :      1.67s CPU      1.93s WALL (       1 calls)

     Called by electrons:
     c_bands      :   2072.45s CPU   2133.00s WALL (      52 calls)
     sum_band     :    349.11s CPU    386.04s WALL (      52 calls)
     v_of_rho     :      6.68s CPU      6.78s WALL (      53 calls)
     newd         :     55.08s CPU     82.12s WALL (      53 calls)
     mix_rho      :     53.34s CPU     54.03s WALL (      52 calls)

     Called by c_bands:
     init_us_2    :     12.82s CPU     12.94s WALL (    2675 calls)
     cegterg      :   1960.45s CPU   2019.13s WALL (    1300 calls)

     Called by sum_band:
     sum_band:bec :      1.47s CPU      1.48s WALL (    1300 calls)
     addusdens    :     51.30s CPU     83.89s WALL (      52 calls)

     Called by *egterg:
     h_psi        :   1038.62s CPU   1062.25s WALL (    4807 calls)
     s_psi        :    149.53s CPU    150.82s WALL (    4807 calls)
     g_psi        :      2.23s CPU      2.27s WALL (    3482 calls)
     cdiaghg      :    321.19s CPU    323.64s WALL (    4782 calls)

     Called by h_psi:
     h_psi:calbec :    165.92s CPU    167.20s WALL (    4807 calls)
     vloc_psi     :    719.25s CPU    731.56s WALL (    4807 calls)
     add_vuspsi   :    149.38s CPU    150.62s WALL (    4807 calls)

     General routines
     calbec       :    264.42s CPU    266.43s WALL (    6232 calls)
     fft          :      5.94s CPU      6.10s WALL (     712 calls)
     ffts         :     30.11s CPU     30.52s WALL (   29340 calls)
     fftw         :    834.57s CPU    848.73s WALL ( 1815806 calls)
     interpolate  :      0.52s CPU      0.53s WALL (      53 calls)
 
     Parallel routines
     fft_scatt_xy :     92.06s CPU     93.66s WALL ( 1845858 calls)
     fft_scatt_yz :    565.61s CPU    575.20s WALL ( 1845858 calls)
 
     PWSCF        :  44m40.15s CPU  46m50.64s WALL

 
   This run was terminated on:  16: 8:53   1Jun2021            

=------------------------------------------------------------------------------=
   JOB DONE.
=------------------------------------------------------------------------------=
[1622578133.122071] [holy7c04102:199748:0]          mpool.c:43   UCX  WARN  object 0x3ec5900 was not returned to mpool ucp_requests
[1622578133.127911] [holy7c02501:3580 :0]          mpool.c:43   UCX  WARN  object 0x428d6c0 was not returned to mpool ucp_requests
[1622578133.141037] [holy7c04101:205011:0]          mpool.c:43   UCX  WARN  object 0x3eed740 was not returned to mpool ucp_requests
[1622578133.142381] [holy7c04101:205014:0]          mpool.c:43   UCX  WARN  object 0x3c20fc0 was not returned to mpool ucp_requests
[1622578133.142403] [holy7c04101:205014:0]          mpool.c:43   UCX  WARN  object 0x3c21180 was not returned to mpool ucp_requests
[1622578133.144036] [holy7c02502:188305:0]          mpool.c:43   UCX  WARN  object 0x2b32a40 was not returned to mpool ucp_requests
[1622578133.144845] [holy7c02502:188311:0]          mpool.c:43   UCX  WARN  object 0x476af00 was not returned to mpool ucp_requests
[1622578133.144869] [holy7c02502:188311:0]          mpool.c:43   UCX  WARN  object 0x476b280 was not returned to mpool ucp_requests
[1622578133.142767] [holy7c04101:205016:0]          mpool.c:43   UCX  WARN  object 0x2de5f00 was not returned to mpool ucp_requests
[1622578133.150099] [holy7c02502:188306:0]          mpool.c:43   UCX  WARN  object 0x3f58280 was not returned to mpool ucp_requests
[1622578133.150123] [holy7c02502:188306:0]          mpool.c:43   UCX  WARN  object 0x3f587c0 was not returned to mpool ucp_requests
[1622578133.150033] [holy7c02502:188310:0]          mpool.c:43   UCX  WARN  object 0x2c38640 was not returned to mpool ucp_requests
[1622578133.142341] [holy7c04101:205012:0]          mpool.c:43   UCX  WARN  object 0x44e3440 was not returned to mpool ucp_requests
[1622578133.141177] [holy7c02502:188314:0]          mpool.c:43   UCX  WARN  object 0x30c4600 was not returned to mpool ucp_requests
[1622578133.147690] [holy7c02502:188309:0]          mpool.c:43   UCX  WARN  object 0x392c740 was not returned to mpool ucp_requests
[1622578133.150533] [holy7c02502:188316:0]          mpool.c:43   UCX  WARN  object 0x46e0640 was not returned to mpool ucp_requests
[1622578133.150554] [holy7c02502:188316:0]          mpool.c:43   UCX  WARN  object 0x46e1280 was not returned to mpool ucp_requests
