
     Program PWSCF v.6.5 starts on 28May2021 at 10: 0:21 

     This program is part of the open-source Quantum ESPRESSO suite
     for quantum simulation of materials; please cite
         "P. Giannozzi et al., J. Phys.:Condens. Matter 21 395502 (2009);
         "P. Giannozzi et al., J. Phys.:Condens. Matter 29 465901 (2017);
          URL http://www.quantum-espresso.org", 
     in publications or presentations arising from this work. More details at
     http://www.quantum-espresso.org/quote

     Parallel version (MPI), running on    32 processors

     MPI processes distributed on     5 nodes
     R & G space division:  proc/nbgrp/npool/nimage =      32
     Reading input from YCBCO50_212_CuO_cleave_2.75_sep.pwi
Warning: card &IONS ignored
Warning: card     ION_DYNAMICS = 'BFGS' ignored
Warning: card / ignored
Warning: card &CELL ignored
Warning: card     CELL_DYNAMICS = 'BFGS' ignored
Warning: card     PRESS_CONV_THR = 5 ignored
Warning: card / ignored

     Current dimensions of program PWSCF are:
     Max number of different atomic species (ntypx) = 10
     Max number of k-points (npk) =  40000
     Max angular momentum in pseudopotentials (lmaxx) =  3

     Subspace diagonalization in iterative solution of the eigenvalue problem:
     one sub-group per band group will be used
     scalapack distributed-memory algorithm (size of sub-group:  5*  5 procs)

     Message from routine setup:
     using ibrav=0 with symmetry is DISCOURAGED, use correct ibrav instead
 
     Parallelization info
     --------------------
     sticks:   dense  smooth     PW     G-vecs:    dense   smooth      PW
     Min         188      62     17                94408    18160    2709
     Max         189      63     18                94440    18207    2752
     Sum        6019    2003    565              3021637   581865   87551
 


     bravais-lattice index     =            0
     lattice parameter (alat)  =      14.8133  a.u.
     unit-cell volume          =    9261.7184 (a.u.)^3
     number of atoms/cell      =           56
     number of atomic types    =            5
     number of electrons       =       456.00
     number of Kohn-Sham states=          274
     kinetic-energy cutoff     =      60.0000  Ry
     charge density cutoff     =     720.0000  Ry
     convergence threshold     =      1.0E-08
     mixing beta               =       0.5000
     number of iterations used =           10  local-TF  mixing
     Exchange-correlation= SLA PW PBE PBE
                           (   1   4   3   4   0   0   0)

     celldm(1)=  14.813271  celldm(2)=   0.000000  celldm(3)=   0.000000
     celldm(4)=   0.000000  celldm(5)=   0.000000  celldm(6)=   0.000000

     crystal axes: (cart. coord. in units of alat)
               a(1) = (   1.000000   0.000000   0.000000 )  
               a(2) = (   0.000000   0.477453   0.000000 )  
               a(3) = (   0.000000   0.000000   5.967718 )  

     reciprocal axes: (cart. coord. in units 2 pi/alat)
               b(1) = (  1.000000  0.000000  0.000000 )  
               b(2) = (  0.000000  2.094448  0.000000 )  
               b(3) = (  0.000000  0.000000  0.167568 )  


     PseudoPot. # 1 for Ba read from file:
     ./pseudo/Ba.pbe-nsp-van.UPF
     MD5 check sum: 2b9c31dd849566dd297d80989662b7a0
     Pseudo is Ultrasoft + core correction, Zval = 10.0
     Generated by new atomic code, or converted to UPF format
     Using radial grid of  907 points,  6 beta functions with: 
                l(1) =   0
                l(2) =   0
                l(3) =   1
                l(4) =   1
                l(5) =   2
                l(6) =   2
     Q(r) pseudized with  6 coefficients,  rinner =    1.200   1.200   1.200
                                                       1.200   1.200

     PseudoPot. # 2 for Ca read from file:
     ./pseudo/Ca.pbe-nsp-van.UPF
     MD5 check sum: 6471098428ff4fa451746d08035ff179
     Pseudo is Ultrasoft + core correction, Zval = 10.0
     Generated by new atomic code, or converted to UPF format
     Using radial grid of  845 points,  6 beta functions with: 
                l(1) =   0
                l(2) =   0
                l(3) =   1
                l(4) =   1
                l(5) =   2
                l(6) =   2
     Q(r) pseudized with  6 coefficients,  rinner =    1.200   1.200   1.200
                                                       1.200   1.200

     PseudoPot. # 3 for Cu read from file:
     ./pseudo/Cu.pbe-n-van_ak.UPF
     MD5 check sum: 34e3282627ffb533726feb647e090d62
     Pseudo is Ultrasoft + core correction, Zval = 11.0
     Generated by new atomic code, or converted to UPF format
     Using radial grid of  867 points,  6 beta functions with: 
                l(1) =   0
                l(2) =   0
                l(3) =   1
                l(4) =   1
                l(5) =   2
                l(6) =   2
     Q(r) pseudized with  8 coefficients,  rinner =    1.400   1.400   1.400
                                                       1.400   1.400

     PseudoPot. # 4 for O  read from file:
     ./pseudo/O.pbe-van_ak.UPF
     MD5 check sum: 783ce7fe4c79b6a4916957118fed0856
     Pseudo is Ultrasoft, Zval =  6.0
     Generated by new atomic code, or converted to UPF format
     Using radial grid of  737 points,  4 beta functions with: 
                l(1) =   0
                l(2) =   0
                l(3) =   1
                l(4) =   1
     Q(r) pseudized with  8 coefficients,  rinner =    0.800   0.800   0.800


     PseudoPot. # 5 for Y  read from file:
     ./pseudo/Y.pbe-nsp-van.UPF
     MD5 check sum: 4412fed3ab108fed87a1b7d6a69a4a38
     Pseudo is Ultrasoft + core correction, Zval = 11.0
     Generated by new atomic code, or converted to UPF format
     Using radial grid of  885 points,  6 beta functions with: 
                l(1) =   0
                l(2) =   0
                l(3) =   1
                l(4) =   1
                l(5) =   2
                l(6) =   2
     Q(r) pseudized with  6 coefficients,  rinner =    1.200   1.200   1.200
                                                       1.200   1.200

     atomic species   valence    mass     pseudopotential
        Ba            10.00   137.32700     Ba( 1.00)
        Ca            10.00    40.07800     Ca( 1.00)
        Cu            11.00    63.54600     Cu( 1.00)
        O              6.00    15.99900     O ( 1.00)
        Y             11.00    88.90584     Y ( 1.00)

      4 Sym. Ops. (no inversion) found ( 2 have fractional translation)



   Cartesian axes

     site n.     atom                  positions (alat units)
         1           O   tau(   1) = (  -0.0008343   0.2387265  -0.0222443  )
         2           O   tau(   2) = (   0.5008340   0.2387265  -0.0222443  )
         3           Cu  tau(   3) = (   0.5017257   0.0000000   0.0109608  )
         4           Cu  tau(   4) = (  -0.0017260   0.0000000   0.0109608  )
         5           O   tau(   5) = (  -0.0028933   0.0000000   0.2506504  )
         6           O   tau(   6) = (   0.5028929   0.0000000   0.2506504  )
         7           Ba  tau(   7) = (   0.7499995   0.2387265   0.2749435  )
         8           Ba  tau(   8) = (   0.2499998   0.2387265   0.2755214  )
         9           Cu  tau(   9) = (   0.4980963   0.0000000   0.5208446  )
        10           Cu  tau(  10) = (   0.0019033   0.0000000   0.5208446  )
        11           O   tau(  11) = (   0.2499998   0.0000000   0.5341884  )
        12           O   tau(  12) = (   0.5083351   0.2387265   0.5569851  )
        13           O   tau(  13) = (  -0.0083354   0.2387265   0.5569851  )
        14           O   tau(  14) = (   0.7499995   0.0000000   0.5573831  )
        15           Ca  tau(  15) = (   0.2499998   0.2387265   0.7436937  )
        16           Y   tau(  16) = (   0.7499995   0.2387265   0.7469544  )
        17           O   tau(  17) = (  -0.0063798   0.2387265   0.9248530  )
        18           O   tau(  18) = (   0.5063794   0.2387265   0.9248530  )
        19           O   tau(  19) = (   0.7499995   0.0000000   0.9338544  )
        20           O   tau(  20) = (   0.2499998   0.0000000   0.9461329  )
        21           Cu  tau(  21) = (   0.0015717   0.0000000   0.9686860  )
        22           Cu  tau(  22) = (   0.4984280   0.0000000   0.9686860  )
        23           Ba  tau(  23) = (   0.2499998   0.2387265   1.2085224  )
        24           Ba  tau(  24) = (   0.7499995   0.2387265   1.2233294  )
        25           O   tau(  25) = (   0.0063772   0.0000000   1.2547537  )
        26           O   tau(  26) = (   0.4936224   0.0000000   1.2547537  )
        27           O   tau(  27) = (   0.5384045   0.2387265   1.4952521  )
        28           O   tau(  28) = (  -0.0384049   0.2387265   1.4952521  )
        29           Cu  tau(  29) = (   0.5006120   0.0000000   1.4952546  )
        30           Cu  tau(  30) = (  -0.0006123   0.0000000   1.4952546  )
        31           O   tau(  31) = (   0.4936212   0.0000000   2.0865700  )
        32           O   tau(  32) = (   0.0063785   0.0000000   2.0865700  )
        33           Ba  tau(  33) = (   0.7499995   0.2387265   2.1179994  )
        34           Ba  tau(  34) = (   0.2499998   0.2387265   2.1328090  )
        35           Cu  tau(  35) = (   0.4984280   0.0000000   2.3726402  )
        36           Cu  tau(  36) = (   0.0015717   0.0000000   2.3726402  )
        37           O   tau(  37) = (   0.2499998   0.0000000   2.3951984  )
        38           O   tau(  38) = (   0.7499995   0.0000000   2.4074680  )
        39           O   tau(  39) = (   0.5063781   0.2387265   2.4164732  )
        40           O   tau(  40) = (  -0.0063785   0.2387265   2.4164732  )
        41           Y   tau(  41) = (   0.7499995   0.2387265   2.5943667  )
        42           Ca  tau(  42) = (   0.2499998   0.2387265   2.5976364  )
        43           O   tau(  43) = (   0.7499995   0.0000000   2.7839342  )
        44           O   tau(  44) = (  -0.0083354   0.2387265   2.7843360  )
        45           O   tau(  45) = (   0.5083351   0.2387265   2.7843360  )
        46           O   tau(  46) = (   0.2499998   0.0000000   2.8071340  )
        47           Cu  tau(  47) = (   0.0019059   0.0000000   2.8204676  )
        48           Cu  tau(  48) = (   0.4980938   0.0000000   2.8204676  )
        49           Ba  tau(  49) = (   0.2499998   0.2387265   3.0658073  )
        50           Ba  tau(  50) = (   0.7499995   0.2387265   3.0663495  )
        51           O   tau(  51) = (  -0.0028895   0.0000000   3.0906567  )
        52           O   tau(  52) = (   0.5028891   0.0000000   3.0906567  )
        53           Cu  tau(  53) = (   0.5017844   0.0000000   3.3303412  )
        54           Cu  tau(  54) = (  -0.0017847   0.0000000   3.3303412  )
        55           O   tau(  55) = (   0.5008990   0.2387265   3.3635476  )
        56           O   tau(  56) = (  -0.0008994   0.2387265   3.3635476  )

     number of k points=    25  Gaussian smearing, width (Ry)=  0.0100
                       cart. coord. in units 2pi/alat
        k(    1) = (   0.0000000   0.0000000   0.0000000), wk =   0.0312500
        k(    2) = (   0.0000000   0.2618060   0.0000000), wk =   0.0625000
        k(    3) = (   0.0000000   0.5236121   0.0000000), wk =   0.0625000
        k(    4) = (   0.0000000   0.7854181   0.0000000), wk =   0.0625000
        k(    5) = (   0.0000000  -1.0472241   0.0000000), wk =   0.0312500
        k(    6) = (   0.1250000   0.0000000   0.0000000), wk =   0.0625000
        k(    7) = (   0.1250000   0.2618060   0.0000000), wk =   0.1250000
        k(    8) = (   0.1250000   0.5236121   0.0000000), wk =   0.1250000
        k(    9) = (   0.1250000   0.7854181   0.0000000), wk =   0.1250000
        k(   10) = (   0.1250000  -1.0472241   0.0000000), wk =   0.0625000
        k(   11) = (   0.2500000   0.0000000   0.0000000), wk =   0.0625000
        k(   12) = (   0.2500000   0.2618060   0.0000000), wk =   0.1250000
        k(   13) = (   0.2500000   0.5236121   0.0000000), wk =   0.1250000
        k(   14) = (   0.2500000   0.7854181   0.0000000), wk =   0.1250000
        k(   15) = (   0.2500000  -1.0472241   0.0000000), wk =   0.0625000
        k(   16) = (   0.3750000   0.0000000   0.0000000), wk =   0.0625000
        k(   17) = (   0.3750000   0.2618060   0.0000000), wk =   0.1250000
        k(   18) = (   0.3750000   0.5236121   0.0000000), wk =   0.1250000
        k(   19) = (   0.3750000   0.7854181   0.0000000), wk =   0.1250000
        k(   20) = (   0.3750000  -1.0472241   0.0000000), wk =   0.0625000
        k(   21) = (  -0.5000000   0.0000000   0.0000000), wk =   0.0312500
        k(   22) = (  -0.5000000   0.2618060   0.0000000), wk =   0.0625000
        k(   23) = (  -0.5000000   0.5236121   0.0000000), wk =   0.0625000
        k(   24) = (  -0.5000000   0.7854181   0.0000000), wk =   0.0625000
        k(   25) = (  -0.5000000  -1.0472241   0.0000000), wk =   0.0312500

     Dense  grid:  3021637 G-vectors     FFT dimensions: ( 128,  64, 768)

     Smooth grid:   581865 G-vectors     FFT dimensions: (  80,  36, 450)

     Estimated max dynamical RAM per process >     874.36 MB

     Estimated total dynamical RAM >      27.32 GB

     Initial potential from superposition of free atoms

     starting charge  455.69457, renormalised to  456.00000

     negative rho (up, down):  9.313E-02 0.000E+00
     Starting wfcs are  396 randomized atomic wfcs

     total cpu time spent up to now is       27.3 secs

     Self-consistent Calculation

     iteration #  1     ecut=    60.00 Ry     beta= 0.50
     Davidson diagonalization with overlap
     ethr =  1.00E-02,  avg # of iterations =  2.0

     negative rho (up, down):  8.606E-02 0.000E+00

     total cpu time spent up to now is       75.9 secs

     total energy              =   -3708.24127577 Ry
     Harris-Foulkes estimate   =   -3716.44142654 Ry
     estimated scf accuracy    <      31.51898220 Ry

     iteration #  2     ecut=    60.00 Ry     beta= 0.50
     Davidson diagonalization with overlap
     ethr =  6.91E-03,  avg # of iterations =  2.0

     negative rho (up, down):  8.580E-02 0.000E+00

     total cpu time spent up to now is      124.6 secs

     total energy              =   -3710.98319686 Ry
     Harris-Foulkes estimate   =   -3712.29012687 Ry
     estimated scf accuracy    <       6.81696376 Ry

     iteration #  3     ecut=    60.00 Ry     beta= 0.50
     Davidson diagonalization with overlap
     ethr =  1.49E-03,  avg # of iterations =  2.0

     negative rho (up, down):  8.615E-02 0.000E+00

     total cpu time spent up to now is      173.0 secs

     total energy              =   -3711.57185287 Ry
     Harris-Foulkes estimate   =   -3711.93936303 Ry
     estimated scf accuracy    <      10.77116281 Ry

     iteration #  4     ecut=    60.00 Ry     beta= 0.50
     Davidson diagonalization with overlap
     ethr =  1.49E-03,  avg # of iterations =  1.0

     negative rho (up, down):  8.694E-02 0.000E+00

     total cpu time spent up to now is      217.6 secs

     total energy              =   -3711.60150424 Ry
     Harris-Foulkes estimate   =   -3711.73575261 Ry
     estimated scf accuracy    <       2.81173253 Ry

     iteration #  5     ecut=    60.00 Ry     beta= 0.50
     Davidson diagonalization with overlap
     ethr =  6.17E-04,  avg # of iterations =  1.3

     negative rho (up, down):  8.790E-02 0.000E+00

     total cpu time spent up to now is      262.9 secs

     total energy              =   -3711.56518447 Ry
     Harris-Foulkes estimate   =   -3711.67487675 Ry
     estimated scf accuracy    <       2.93378069 Ry

     iteration #  6     ecut=    60.00 Ry     beta= 0.50
     Davidson diagonalization with overlap
     ethr =  6.17E-04,  avg # of iterations =  1.1

     negative rho (up, down):  8.903E-02 0.000E+00

     total cpu time spent up to now is      307.5 secs

     total energy              =   -3711.55279050 Ry
     Harris-Foulkes estimate   =   -3711.60424807 Ry
     estimated scf accuracy    <       1.18271348 Ry

     iteration #  7     ecut=    60.00 Ry     beta= 0.50
     Davidson diagonalization with overlap
     ethr =  2.59E-04,  avg # of iterations =  7.0

     negative rho (up, down):  8.992E-02 0.000E+00

     total cpu time spent up to now is      369.7 secs

     total energy              =   -3711.54894273 Ry
     Harris-Foulkes estimate   =   -3711.57142078 Ry
     estimated scf accuracy    <       0.53735404 Ry

     iteration #  8     ecut=    60.00 Ry     beta= 0.50
     Davidson diagonalization with overlap
     ethr =  1.18E-04,  avg # of iterations =  6.4

     negative rho (up, down):  9.045E-02 0.000E+00

     total cpu time spent up to now is      429.4 secs

     total energy              =   -3711.54452380 Ry
     Harris-Foulkes estimate   =   -3711.56166233 Ry
     estimated scf accuracy    <       0.55305083 Ry

     iteration #  9     ecut=    60.00 Ry     beta= 0.50
     Davidson diagonalization with overlap
     ethr =  1.18E-04,  avg # of iterations =  1.4

     negative rho (up, down):  9.057E-02 0.000E+00

     total cpu time spent up to now is      474.4 secs

     total energy              =   -3711.54140382 Ry
     Harris-Foulkes estimate   =   -3711.55059373 Ry
     estimated scf accuracy    <       0.22943051 Ry

     iteration # 10     ecut=    60.00 Ry     beta= 0.50
     Davidson diagonalization with overlap
     c_bands:  2 eigenvalues not converged
     ethr =  5.03E-05,  avg # of iterations =  6.2

     negative rho (up, down):  9.044E-02 0.000E+00

     total cpu time spent up to now is      533.5 secs

     total energy              =   -3711.53381191 Ry
     Harris-Foulkes estimate   =   -3711.54486881 Ry
     estimated scf accuracy    <       0.21713955 Ry

     iteration # 11     ecut=    60.00 Ry     beta= 0.50
     Davidson diagonalization with overlap
     ethr =  4.76E-05,  avg # of iterations =  7.3

     negative rho (up, down):  9.025E-02 0.000E+00

     total cpu time spent up to now is      595.5 secs

     total energy              =   -3711.53451782 Ry
     Harris-Foulkes estimate   =   -3711.53770132 Ry
     estimated scf accuracy    <       0.15540017 Ry

     iteration # 12     ecut=    60.00 Ry     beta= 0.50
     Davidson diagonalization with overlap
     ethr =  3.41E-05,  avg # of iterations =  3.7

     negative rho (up, down):  9.003E-02 0.000E+00

     total cpu time spent up to now is      646.3 secs

     total energy              =   -3711.53424908 Ry
     Harris-Foulkes estimate   =   -3711.53554250 Ry
     estimated scf accuracy    <       0.12415308 Ry

     iteration # 13     ecut=    60.00 Ry     beta= 0.50
     Davidson diagonalization with overlap
     ethr =  2.72E-05,  avg # of iterations =  1.3

     negative rho (up, down):  8.960E-02 0.000E+00

     total cpu time spent up to now is      690.9 secs

     total energy              =   -3711.53243165 Ry
     Harris-Foulkes estimate   =   -3711.53460654 Ry
     estimated scf accuracy    <       0.11278394 Ry

     iteration # 14     ecut=    60.00 Ry     beta= 0.50
     Davidson diagonalization with overlap
     ethr =  2.47E-05,  avg # of iterations =  2.4

     negative rho (up, down):  9.182E-02 0.000E+00

     total cpu time spent up to now is      738.5 secs

     total energy              =   -3711.52970892 Ry
     Harris-Foulkes estimate   =   -3711.53268177 Ry
     estimated scf accuracy    <       0.11064318 Ry

     iteration # 15     ecut=    60.00 Ry     beta= 0.50
     Davidson diagonalization with overlap
     ethr =  2.43E-05,  avg # of iterations =  2.2

     negative rho (up, down):  9.865E-02 0.000E+00

     total cpu time spent up to now is      785.6 secs

     total energy              =   -3711.52814553 Ry
     Harris-Foulkes estimate   =   -3711.53001122 Ry
     estimated scf accuracy    <       0.11036446 Ry

     iteration # 16     ecut=    60.00 Ry     beta= 0.50
     Davidson diagonalization with overlap
     ethr =  2.42E-05,  avg # of iterations =  6.6

     negative rho (up, down):  1.070E-01 0.000E+00

     total cpu time spent up to now is      844.4 secs

     total energy              =   -3711.52617030 Ry
     Harris-Foulkes estimate   =   -3711.52836381 Ry
     estimated scf accuracy    <       0.08592165 Ry

     iteration # 17     ecut=    60.00 Ry     beta= 0.50
     Davidson diagonalization with overlap
     ethr =  1.88E-05,  avg # of iterations =  7.9

     negative rho (up, down):  1.287E-01 0.000E+00

     total cpu time spent up to now is      908.8 secs

     total energy              =   -3711.52371096 Ry
     Harris-Foulkes estimate   =   -3711.52650292 Ry
     estimated scf accuracy    <       0.06052479 Ry

     iteration # 18     ecut=    60.00 Ry     beta= 0.50
     Davidson diagonalization with overlap
     ethr =  1.33E-05,  avg # of iterations =  9.6

     negative rho (up, down):  1.269E-01 0.000E+00

     total cpu time spent up to now is      981.4 secs

     total energy              =   -3711.52369905 Ry
     Harris-Foulkes estimate   =   -3711.52424760 Ry
     estimated scf accuracy    <       0.01675224 Ry

     iteration # 19     ecut=    60.00 Ry     beta= 0.50
     Davidson diagonalization with overlap
     ethr =  3.67E-06,  avg # of iterations = 10.5

     negative rho (up, down):  1.113E-01 0.000E+00

     total cpu time spent up to now is     1054.2 secs

     total energy              =   -3711.52342684 Ry
     Harris-Foulkes estimate   =   -3711.52388680 Ry
     estimated scf accuracy    <       0.00497513 Ry

     iteration # 20     ecut=    60.00 Ry     beta= 0.50
     Davidson diagonalization with overlap
     c_bands:  1 eigenvalues not converged
     c_bands:  1 eigenvalues not converged
     c_bands:  1 eigenvalues not converged
     c_bands:  1 eigenvalues not converged
     c_bands:  1 eigenvalues not converged
     c_bands:  1 eigenvalues not converged
     c_bands:  1 eigenvalues not converged
     c_bands:  1 eigenvalues not converged
     ethr =  1.09E-06,  avg # of iterations = 12.5

     negative rho (up, down):  9.675E-02 0.000E+00

     total cpu time spent up to now is     1132.5 secs

     total energy              =   -3711.52320595 Ry
     Harris-Foulkes estimate   =   -3711.52356057 Ry
     estimated scf accuracy    <       0.00269809 Ry

     iteration # 21     ecut=    60.00 Ry     beta= 0.50
     Davidson diagonalization with overlap
     c_bands:  1 eigenvalues not converged
     c_bands:  1 eigenvalues not converged
     c_bands:  2 eigenvalues not converged
     c_bands:  1 eigenvalues not converged
     c_bands:  1 eigenvalues not converged
     c_bands:  1 eigenvalues not converged
     c_bands:  1 eigenvalues not converged
     ethr =  5.92E-07,  avg # of iterations = 12.0

     negative rho (up, down):  9.173E-02 0.000E+00

     total cpu time spent up to now is     1209.0 secs

     total energy              =   -3711.52328895 Ry
     Harris-Foulkes estimate   =   -3711.52325149 Ry
     estimated scf accuracy    <       0.00144673 Ry

     iteration # 22     ecut=    60.00 Ry     beta= 0.50
     Davidson diagonalization with overlap
     c_bands:  1 eigenvalues not converged
     c_bands:  1 eigenvalues not converged
     ethr =  3.17E-07,  avg # of iterations = 10.0

     negative rho (up, down):  9.129E-02 0.000E+00

     total cpu time spent up to now is     1277.2 secs

     total energy              =   -3711.52332375 Ry
     Harris-Foulkes estimate   =   -3711.52331312 Ry
     estimated scf accuracy    <       0.00030646 Ry

     iteration # 23     ecut=    60.00 Ry     beta= 0.50
     Davidson diagonalization with overlap
     c_bands:  2 eigenvalues not converged
     c_bands:  1 eigenvalues not converged
     ethr =  6.72E-08,  avg # of iterations =  4.8

     negative rho (up, down):  9.109E-02 0.000E+00

     total cpu time spent up to now is     1330.6 secs

     total energy              =   -3711.52335971 Ry
     Harris-Foulkes estimate   =   -3711.52333246 Ry
     estimated scf accuracy    <       0.00007976 Ry

     iteration # 24     ecut=    60.00 Ry     beta= 0.50
     Davidson diagonalization with overlap
     c_bands:  1 eigenvalues not converged
     c_bands:  1 eigenvalues not converged
     c_bands:  1 eigenvalues not converged
     ethr =  1.75E-08,  avg # of iterations =  6.8

     negative rho (up, down):  9.127E-02 0.000E+00

     total cpu time spent up to now is     1390.9 secs

     total energy              =   -3711.52336481 Ry
     Harris-Foulkes estimate   =   -3711.52336603 Ry
     estimated scf accuracy    <       0.00006860 Ry

     iteration # 25     ecut=    60.00 Ry     beta= 0.50
     Davidson diagonalization with overlap
     c_bands:  1 eigenvalues not converged
     ethr =  1.50E-08,  avg # of iterations =  2.2

     negative rho (up, down):  9.126E-02 0.000E+00

     total cpu time spent up to now is     1437.6 secs

     total energy              =   -3711.52336829 Ry
     Harris-Foulkes estimate   =   -3711.52336729 Ry
     estimated scf accuracy    <       0.00004078 Ry

     iteration # 26     ecut=    60.00 Ry     beta= 0.50
     Davidson diagonalization with overlap
     ethr =  8.94E-09,  avg # of iterations =  1.3

     negative rho (up, down):  9.133E-02 0.000E+00

     total cpu time spent up to now is     1481.8 secs

     total energy              =   -3711.52336957 Ry
     Harris-Foulkes estimate   =   -3711.52336877 Ry
     estimated scf accuracy    <       0.00002096 Ry

     iteration # 27     ecut=    60.00 Ry     beta= 0.50
     Davidson diagonalization with overlap
     ethr =  4.60E-09,  avg # of iterations =  1.1

     negative rho (up, down):  9.146E-02 0.000E+00

     total cpu time spent up to now is     1525.7 secs

     total energy              =   -3711.52336963 Ry
     Harris-Foulkes estimate   =   -3711.52337001 Ry
     estimated scf accuracy    <       0.00001107 Ry

     iteration # 28     ecut=    60.00 Ry     beta= 0.50
     Davidson diagonalization with overlap
     ethr =  2.43E-09,  avg # of iterations =  1.1

     negative rho (up, down):  9.164E-02 0.000E+00

     total cpu time spent up to now is     1569.5 secs

     total energy              =   -3711.52336914 Ry
     Harris-Foulkes estimate   =   -3711.52336992 Ry
     estimated scf accuracy    <       0.00000602 Ry

     iteration # 29     ecut=    60.00 Ry     beta= 0.50
     Davidson diagonalization with overlap
     ethr =  1.32E-09,  avg # of iterations =  1.1

     negative rho (up, down):  9.173E-02 0.000E+00

     total cpu time spent up to now is     1613.7 secs

     total energy              =   -3711.52336918 Ry
     Harris-Foulkes estimate   =   -3711.52336929 Ry
     estimated scf accuracy    <       0.00000325 Ry

     iteration # 30     ecut=    60.00 Ry     beta= 0.50
     Davidson diagonalization with overlap
     ethr =  7.13E-10,  avg # of iterations =  1.3

     negative rho (up, down):  9.183E-02 0.000E+00

     total cpu time spent up to now is     1658.1 secs

     total energy              =   -3711.52336908 Ry
     Harris-Foulkes estimate   =   -3711.52336923 Ry
     estimated scf accuracy    <       0.00000137 Ry

     iteration # 31     ecut=    60.00 Ry     beta= 0.50
     Davidson diagonalization with overlap
     ethr =  3.00E-10,  avg # of iterations =  2.5

     negative rho (up, down):  9.191E-02 0.000E+00

     total cpu time spent up to now is     1705.9 secs

     total energy              =   -3711.52336896 Ry
     Harris-Foulkes estimate   =   -3711.52336913 Ry
     estimated scf accuracy    <       0.00000021 Ry

     iteration # 32     ecut=    60.00 Ry     beta= 0.50
     Davidson diagonalization with overlap
     ethr =  4.56E-11,  avg # of iterations =  3.4

     negative rho (up, down):  9.192E-02 0.000E+00

     total cpu time spent up to now is     1758.2 secs

     total energy              =   -3711.52336895 Ry
     Harris-Foulkes estimate   =   -3711.52336899 Ry
     estimated scf accuracy    <       0.00000025 Ry

     iteration # 33     ecut=    60.00 Ry     beta= 0.50
     Davidson diagonalization with overlap
     ethr =  4.56E-11,  avg # of iterations =  1.0

     negative rho (up, down):  9.191E-02 0.000E+00

     total cpu time spent up to now is     1802.2 secs

     total energy              =   -3711.52336897 Ry
     Harris-Foulkes estimate   =   -3711.52336895 Ry
     estimated scf accuracy    <       0.00000004 Ry

     iteration # 34     ecut=    60.00 Ry     beta= 0.50
     Davidson diagonalization with overlap
     ethr =  8.22E-12,  avg # of iterations =  1.2

     negative rho (up, down):  9.194E-02 0.000E+00

     total cpu time spent up to now is     1846.5 secs

     total energy              =   -3711.52336893 Ry
     Harris-Foulkes estimate   =   -3711.52336897 Ry
     estimated scf accuracy    <       0.00000003 Ry

     iteration # 35     ecut=    60.00 Ry     beta= 0.50
     Davidson diagonalization with overlap
     ethr =  5.83E-12,  avg # of iterations =  1.0

     negative rho (up, down):  9.194E-02 0.000E+00

     total cpu time spent up to now is     1889.4 secs

     End of self-consistent calculation

          k = 0.0000 0.0000 0.0000 ( 72781 PWs)   bands (ev):

   -38.4334 -38.3701 -36.0685 -35.9966 -23.1861 -23.1772 -23.1663 -23.0488
   -23.0380 -23.0283 -22.8629 -22.6322 -18.9066 -18.8524 -18.8064 -18.7447
   -18.4375 -18.3727 -17.4145 -17.3455 -17.2809 -17.2133 -17.0998 -17.0246
   -15.8107 -15.7694 -15.3515 -15.3324 -15.1439 -15.0237 -14.9708 -14.9589
   -14.9150 -14.8852 -14.8254 -14.8151 -14.8034 -14.7995 -14.6745 -14.6619
   -14.4970 -14.4536 -14.3847 -14.3525 -14.3446 -14.3414 -14.3370 -14.3273
   -14.3003 -14.2268 -14.1646 -14.1099 -13.2106 -12.7402  -8.5197  -8.4160
    -8.4020  -8.3087  -8.2951  -8.2648  -8.2263  -8.2160  -8.1326  -8.0882
    -8.0776  -8.0394  -8.0358  -7.9916  -7.9815  -7.9326  -7.9136  -7.9082
    -7.8634  -7.8503  -7.8396  -7.6811  -7.4726  -7.3700  -3.3563  -3.3326
    -3.2442  -3.1468  -2.5302  -2.5241  -2.4436  -2.4413  -2.4368  -2.4068
    -2.2976  -2.2467  -2.2362  -2.2111  -2.2064  -2.1869  -2.1453  -2.1427
    -2.0792  -2.0422  -2.0354  -1.9818  -1.9295  -1.8733  -1.7363  -1.7076
    -1.5515  -1.5010  -1.4891  -1.4614  -1.3981  -1.3264  -1.2986  -1.2833
    -1.2756  -1.2741  -1.2669  -1.2646  -1.2439  -1.2422  -1.1798  -1.1059
    -1.0505  -1.0433  -0.8028  -0.7623  -0.6877  -0.6246  -0.6145  -0.6046
    -0.6043  -0.5867  -0.5787  -0.5607  -0.5467  -0.5293  -0.4920  -0.4873
    -0.4854  -0.4850  -0.4742  -0.4368  -0.4058  -0.3353  -0.3107  -0.3001
    -0.2992  -0.2902  -0.2765  -0.2306  -0.2277  -0.2147  -0.2086  -0.1811
    -0.1795  -0.1783  -0.1757  -0.0993  -0.0805  -0.0728  -0.0616  -0.0409
    -0.0344  -0.0335   0.0086   0.0412   0.0532   0.0701   0.1211   0.1647
     0.1954   0.1995   0.2287   0.2299   0.2376   0.2531   0.2571   0.2598
     0.4173   0.4457   0.5161   0.5681   0.5935   0.6337   0.6821   0.6944
     0.7054   0.7272   0.7325   0.7664   0.8402   0.8751   0.8879   0.9103
     0.9155   0.9192   0.9203   0.9212   1.0006   1.0248   1.0372   1.0714
     1.0749   1.0805   1.0965   1.1250   1.1567   1.1819   1.2460   1.2998
     1.3088   1.3415   1.4105   1.4151   1.4195   1.4827   1.4849   1.4924
     1.5106   1.5439   1.5544   1.6049   1.6447   1.7531   1.7666   1.8182
     1.9242   1.9318   2.0502   2.0973   2.0988   2.1758   2.1929   2.2791
     2.2877   2.3100   2.3133   2.3613   2.5565   2.6109   4.6240   4.9321
     4.9446   5.5867   5.6751   6.2820   6.3211   6.3877   6.5650   6.6013
     6.6221   6.9720   6.9824   7.0697   7.0770   7.1442   7.2425   7.4159
     7.7254   7.7788   7.7885   7.8468   7.8493   8.0015   8.0728   8.1400
     8.1746   8.2258   8.2735   8.3562   8.6036   8.6628   8.7662   8.7810
     8.8360   8.9370

          k = 0.0000 0.2618 0.0000 ( 72741 PWs)   bands (ev):

   -38.4307 -38.3674 -36.0668 -35.9949 -23.1673 -23.1526 -23.1417 -23.0297
   -23.0189 -23.0045 -22.8439 -22.6118 -18.8680 -18.8136 -18.7991 -18.7374
   -18.5482 -18.4840 -17.3851 -17.3161 -17.2766 -17.2090 -17.1657 -17.0907
   -15.7045 -15.6636 -15.2957 -15.2766 -15.0885 -14.9855 -14.9546 -14.9270
   -14.9109 -14.8134 -14.7952 -14.7948 -14.7690 -14.7392 -14.6401 -14.6268
   -14.4918 -14.4493 -14.4453 -14.3995 -14.3641 -14.3313 -14.3303 -14.3280
   -14.3191 -14.2635 -14.1564 -14.1493 -13.1632 -12.8052  -8.5104  -8.4093
    -8.3964  -8.3210  -8.3084  -8.2772  -8.1826  -8.1723  -8.1318  -8.1235
    -8.1234  -8.1201  -8.1133  -8.0575  -8.0490  -8.0469  -8.0347  -8.0287
    -7.9597  -7.9433  -7.9235  -7.8919  -7.5559  -7.4894  -3.4670  -3.4299
    -3.2978  -3.2020  -2.6574  -2.6435  -2.6249  -2.5535  -2.5438  -2.5369
    -2.4198  -2.4131  -2.4059  -2.3574  -2.2931  -2.2360  -2.1787  -2.1547
    -2.0923  -2.0718  -2.0441  -2.0146  -1.9822  -1.9630  -1.8580  -1.8091
    -1.8049  -1.7939  -1.7256  -1.7170  -1.7124  -1.6919  -1.6895  -1.6794
    -1.6490  -1.5711  -1.3704  -1.2150  -1.1857  -1.1432  -1.0754  -1.0609
    -1.0144  -0.9408  -0.9291  -0.9250  -0.8605  -0.8573  -0.7030  -0.6962
    -0.6744  -0.6510  -0.6380  -0.6262  -0.6177  -0.6052  -0.5547  -0.5293
    -0.5282  -0.5161  -0.4494  -0.4427  -0.3608  -0.3354  -0.3155  -0.2923
    -0.2843  -0.2197  -0.2071  -0.2014  -0.1892  -0.1621  -0.1608  -0.1429
    -0.1423  -0.1184  -0.1127  -0.1122  -0.0749  -0.0221  -0.0163  -0.0108
     0.0262   0.0274   0.0362   0.0760   0.0863   0.0990   0.1104   0.1298
     0.1343   0.1487   0.1708   0.1874   0.3197   0.3624   0.3703   0.4214
     0.4398   0.4630   0.5287   0.5484   0.6315   0.6511   0.6649   0.7026
     0.7607   0.8292   0.8479   0.8727   0.8884   0.8988   0.9050   0.9234
     0.9682   0.9756   0.9985   1.0094   1.0295   1.0574   1.0860   1.1002
     1.1618   1.1808   1.1982   1.2027   1.2234   1.2308   1.2455   1.3618
     1.3669   1.3771   1.4262   1.4337   1.4385   1.4576   1.4924   1.5304
     1.5336   1.5426   1.5677   1.6133   1.6225   1.6929   1.7525   1.8015
     2.0477   2.0710   2.3189   2.3268   2.4063   2.4840   2.5112   2.5283
     2.5803   2.5892   2.6279   2.6565   2.8389   2.8680   4.9065   5.3095
     5.3188   5.8651   5.9429   6.5755   6.6096   6.6504   6.6894   6.8085
     6.8176   6.8383   6.8925   7.2586   7.3014   7.3325   7.4448   7.4594
     7.4769   7.5663   7.9118   7.9459   8.0195   8.1271   8.2379   8.3418
     8.3610   8.4242   8.4769   8.5754   8.6121   8.7918   8.8581   8.9628
     8.9965   9.0111

          k = 0.0000 0.5236 0.0000 ( 72651 PWs)   bands (ev):

   -38.4242 -38.3609 -36.0626 -35.9908 -23.1212 -23.0921 -23.0812 -22.9829
   -22.9721 -22.9460 -22.7973 -22.5614 -18.7890 -18.7816 -18.7676 -18.7258
   -18.7198 -18.7127 -17.3192 -17.3014 -17.2662 -17.2449 -17.2319 -17.1985
   -15.4629 -15.4244 -15.1490 -15.1294 -15.0053 -14.9665 -14.9516 -14.8928
   -14.8257 -14.8053 -14.7880 -14.7200 -14.5960 -14.5924 -14.5712 -14.5566
   -14.5413 -14.5157 -14.4644 -14.4402 -14.4359 -14.3407 -14.3178 -14.3044
   -14.2793 -14.2678 -14.2228 -14.1507 -13.0418 -12.9577  -8.5959  -8.5852
    -8.4901  -8.4361  -8.4292  -8.4259  -8.3725  -8.3604  -8.3445  -8.3017
    -8.2900  -8.2756  -8.2483  -8.1949  -8.1923  -8.1843  -8.0974  -8.0658
    -8.0554  -8.0367  -7.9464  -7.8696  -7.6518  -7.6411  -3.8732  -3.8183
    -3.5350  -3.4448  -3.1542  -3.1304  -3.0120  -2.9477  -2.7722  -2.7589
    -2.6857  -2.6387  -2.5772  -2.5738  -2.5702  -2.5366  -2.5293  -2.4549
    -2.3924  -2.3845  -2.3821  -2.3742  -2.3066  -2.2664  -2.1766  -2.1256
    -2.1125  -2.0864  -2.0232  -1.9729  -1.9534  -1.9499  -1.8999  -1.8980
    -1.5655  -1.5139  -1.4386  -1.3145  -1.2987  -1.2714  -1.2228  -1.1812
    -1.1443  -1.1338  -1.1116  -1.0993  -0.9646  -0.9559  -0.9543  -0.9234
    -0.8802  -0.8727  -0.8724  -0.8529  -0.8150  -0.8067  -0.7748  -0.7412
    -0.7326  -0.6978  -0.6840  -0.6438  -0.6358  -0.5800  -0.5666  -0.5645
    -0.4983  -0.3945  -0.3800  -0.3363  -0.2854  -0.2432  -0.1890  -0.1780
    -0.0949  -0.0929  -0.0640  -0.0356   0.0072   0.0081   0.0154   0.0514
     0.0977   0.1027   0.1146   0.1945   0.2944   0.3312   0.3467   0.3650
     0.4607   0.5172   0.5209   0.5383   0.5443   0.7075   0.7371   0.7480
     0.7534   0.7679   0.7709   0.7998   0.8721   0.9049   0.9421   0.9550
     0.9663   0.9677   0.9730   0.9972   0.9989   1.0558   1.0754   1.0762
     1.0960   1.1212   1.1261   1.1517   1.1654   1.1768   1.1876   1.2572
     1.2829   1.3252   1.3620   1.3725   1.3798   1.3937   1.4221   1.4433
     1.5053   1.5060   1.5119   1.5158   1.5426   1.5598   1.5693   1.6195
     1.6306   1.6702   1.6989   1.7508   1.7760   1.7852   1.8677   1.8735
     1.9362   1.9496   2.2688   2.4437   2.7151   2.7325   2.7985   2.8288
     2.8342   2.8433   3.4966   3.5192   3.5843   3.6157   5.4340   6.2092
     6.2172   6.3248   6.3355   6.5316   6.6253   6.6618   6.7382   6.8218
     7.3350   7.4158   7.5056   7.5214   7.7463   7.7815   7.9270   8.0328
     8.1184   8.1334   8.2266   8.2822   8.3101   8.3936   8.4245   8.4483
     8.4663   8.6023   8.6618   8.7839   8.7890   8.9707   8.9881   9.0152
     9.1289   9.1293

          k = 0.0000 0.7854 0.0000 ( 72634 PWs)   bands (ev):

   -38.4177 -38.3544 -36.0585 -35.9867 -23.0742 -23.0298 -23.0188 -22.9350
   -22.9241 -22.8859 -22.7495 -22.5097 -18.9970 -18.9342 -18.7642 -18.7023
   -18.6627 -18.6074 -17.4407 -17.3656 -17.2558 -17.2287 -17.1881 -17.1601
   -15.2295 -15.2071 -15.1225 -15.0701 -14.9755 -14.9529 -14.9137 -14.8538
   -14.8260 -14.8054 -14.7558 -14.6366 -14.6252 -14.6186 -14.5022 -14.4782
   -14.4719 -14.4581 -14.4297 -14.4102 -14.4012 -14.3286 -14.2690 -14.2627
   -14.2517 -14.2333 -14.2212 -14.1866 -13.1023 -12.9085  -8.9908  -8.9802
    -8.8156  -8.7312  -8.7209  -8.6878  -8.5358  -8.4682  -8.4507  -8.3763
    -8.3637  -8.3084  -8.2951  -8.2878  -8.2640  -8.2534  -8.1429  -8.0492
    -7.9704  -7.9447  -7.9342  -7.7570  -7.7294  -7.6079  -4.3593  -4.3050
    -3.9386  -3.8550  -3.5563  -3.5370  -3.3773  -3.3076  -3.1518  -3.1422
    -3.1226  -3.0855  -3.0758  -3.0204  -2.9103  -2.9025  -2.8157  -2.7583
    -2.6743  -2.6319  -2.4993  -2.4943  -2.4323  -2.4277  -2.2154  -2.1628
    -2.1435  -2.1380  -2.1317  -2.0835  -1.9901  -1.9557  -1.8224  -1.7910
    -1.7706  -1.5375  -1.5358  -1.4962  -1.4490  -1.3882  -1.3776  -1.3377
    -1.3164  -1.3036  -1.2650  -1.2579  -1.2277  -1.1806  -1.1804  -1.1055
    -1.0942  -1.0826  -1.0749  -1.0357  -1.0263  -1.0210  -1.0156  -0.9958
    -0.9159  -0.8964  -0.8929  -0.8847  -0.8630  -0.8348  -0.7184  -0.5039
    -0.4956  -0.4348  -0.3823  -0.3734  -0.3622  -0.2985  -0.2926  -0.1122
    -0.0962  -0.0720  -0.0607  -0.0546  -0.0232   0.0129   0.0210   0.0275
     0.1812   0.2031   0.2390   0.2816   0.4968   0.5081   0.5780   0.6204
     0.6683   0.7124   0.7481   0.7585   0.7707   0.7769   0.8682   0.9221
     0.9264   0.9643   0.9837   0.9870   0.9990   1.0293   1.0376   1.0797
     1.0831   1.1012   1.1374   1.1784   1.2450   1.2794   1.2827   1.2930
     1.3171   1.3872   1.3992   1.4023   1.4067   1.4349   1.4361   1.4573
     1.4639   1.5066   1.5111   1.5310   1.5420   1.5452   1.5781   1.5851
     1.6135   1.6433   1.6497   1.6938   1.7106   1.7119   1.7285   1.8559
     1.8751   1.8928   1.9544   1.9588   1.9653   1.9666   2.0907   2.1803
     2.1897   2.2823   2.2890   2.4052   2.5905   2.6566   2.6599   2.7581
     2.7631   2.8030   4.1245   4.1577   4.1972   4.2140   5.5840   5.7966
     5.8041   6.3804   6.4838   6.8620   7.1312   7.1435   7.4444   7.5055
     7.8344   7.8764   7.9602   8.1037   8.1777   8.2485   8.2570   8.3564
     8.3977   8.4434   8.5317   8.5650   8.5781   8.6297   8.7148   8.7970
     8.8382   8.8989   8.9131   8.9729   8.9912   9.0719   9.1016   9.1661
     9.2767   9.3222

          k = 0.0000-1.0472 0.0000 ( 72746 PWs)   bands (ev):

   -38.4150 -38.3517 -36.0568 -35.9850 -23.0544 -23.0034 -22.9924 -22.9147
   -22.9039 -22.8605 -22.7294 -22.4878 -19.0775 -19.0149 -18.7569 -18.6950
   -18.6155 -18.5600 -17.4910 -17.4160 -17.2516 -17.1931 -17.1838 -17.1245
   -15.2309 -15.2060 -15.0540 -15.0214 -14.9920 -14.9124 -14.8868 -14.8569
   -14.8128 -14.7864 -14.7824 -14.6339 -14.6197 -14.5231 -14.4860 -14.4835
   -14.4696 -14.4267 -14.4267 -14.4065 -14.3325 -14.2802 -14.2650 -14.2384
   -14.2344 -14.2218 -14.2157 -14.2032 -13.1594 -12.8489  -9.1441  -9.1334
    -8.9696  -8.8500  -8.8396  -8.8247  -8.6407  -8.5722  -8.4614  -8.3825
    -8.3680  -8.3052  -8.2938  -8.2915  -8.2886  -8.2811  -8.1720  -8.0409
    -7.9805  -7.8921  -7.8816  -7.7513  -7.7077  -7.5798  -4.5610  -4.5080
    -4.1249  -4.0430  -3.7104  -3.6934  -3.5272  -3.4531  -3.3865  -3.3761
    -3.3312  -3.3156  -3.3058  -3.2369  -2.9388  -2.9311  -2.8365  -2.7996
    -2.7757  -2.7577  -2.5214  -2.5168  -2.4194  -2.4150  -2.2765  -2.2305
    -2.2269  -2.1853  -2.1549  -2.1108  -1.9183  -1.9025  -1.8728  -1.6631
    -1.6377  -1.6115  -1.6099  -1.6028  -1.5324  -1.4938  -1.4904  -1.4417
    -1.3746  -1.3722  -1.3435  -1.3387  -1.3378  -1.3294  -1.2134  -1.1893
    -1.1880  -1.1641  -1.1358  -1.1354  -1.1246  -1.1147  -1.1012  -1.0892
    -0.9948  -0.9820  -0.9813  -0.9736  -0.8367  -0.8314  -0.7717  -0.4679
    -0.4595  -0.4072  -0.4050  -0.3875  -0.3747  -0.3534  -0.3177  -0.2619
    -0.0989  -0.0798  -0.0646  -0.0334  -0.0142  -0.0006   0.0147   0.0351
     0.2109   0.2546   0.2983   0.3033   0.5760   0.5809   0.6010   0.6831
     0.7342   0.7604   0.7677   0.7904   0.8802   0.8858   0.8873   0.9430
     0.9442   0.9882   1.0467   1.0600   1.0651   1.0791   1.0798   1.0874
     1.0995   1.1320   1.1543   1.1646   1.3142   1.3318   1.3636   1.3690
     1.4113   1.4387   1.4436   1.4606   1.4938   1.5371   1.5891   1.6028
     1.6043   1.6300   1.6310   1.6352   1.6640   1.6700   1.6882   1.6898
     1.7313   1.8038   1.8505   1.8691   1.8748   1.8972   1.9146   1.9269
     1.9363   1.9394   2.0462   2.1288   2.1594   2.1685   2.1893   2.2968
     2.3437   2.3522   2.3530   2.4172   2.4430   2.4539   2.4898   2.6108
     2.6194   2.6809   4.3207   4.3568   4.4175   4.4318   5.5142   5.5574
     5.5649   6.2597   6.3754   7.3544   7.5342   7.5440   7.6740   7.7913
     7.8588   7.9936   8.0423   8.0506   8.1116   8.2170   8.4842   8.5022
     8.5261   8.5548   8.5926   8.6678   8.6852   8.8311   8.8362   8.8391
     8.8457   8.9350   8.9519   9.0251   9.0563   9.0915   9.1130   9.2131
     9.3413   9.4003

          k = 0.1250 0.0000 0.0000 ( 72743 PWs)   bands (ev):

   -38.4334 -38.3701 -36.0685 -35.9966 -23.1855 -23.1727 -23.1618 -23.0536
   -23.0428 -23.0252 -22.8664 -22.6330 -18.9058 -18.8516 -18.8031 -18.7414
   -18.4375 -18.3727 -17.4175 -17.3486 -17.2929 -17.2256 -17.0998 -17.0246
   -15.7831 -15.7416 -15.3357 -15.3176 -15.1357 -15.0154 -14.9764 -14.9538
   -14.9268 -14.9256 -14.8740 -14.8241 -14.8114 -14.8076 -14.6516 -14.6300
   -14.4890 -14.4472 -14.3864 -14.3540 -14.3466 -14.3444 -14.3381 -14.3288
   -14.3060 -14.2308 -14.1700 -14.1092 -13.1942 -12.7595  -8.5198  -8.4183
    -8.4043  -8.3128  -8.2994  -8.2694  -8.2125  -8.2021  -8.1455  -8.0799
    -8.0694  -8.0361  -8.0205  -7.9982  -7.9881  -7.9270  -7.9062  -7.9061
    -7.8641  -7.8597  -7.8490  -7.6896  -7.4763  -7.3726  -3.3216  -3.2977
    -3.2110  -3.1134  -2.5269  -2.5200  -2.4608  -2.4553  -2.4396  -2.4031
    -2.3278  -2.2599  -2.2446  -2.2228  -2.2090  -2.1942  -2.1615  -2.1493
    -2.0873  -2.0558  -2.0495  -2.0218  -1.9111  -1.8535  -1.7775  -1.7469
    -1.5242  -1.4848  -1.4417  -1.4073  -1.3992  -1.3287  -1.3192  -1.2744
    -1.2729  -1.2657  -1.2645  -1.2634  -1.2577  -1.2173  -1.1398  -1.0579
    -1.0305  -1.0235  -0.7806  -0.7570  -0.6974  -0.6802  -0.6541  -0.6242
    -0.5935  -0.5857  -0.5685  -0.5657  -0.5440  -0.5410  -0.5385  -0.5150
    -0.5064  -0.5044  -0.4988  -0.4713  -0.4657  -0.3432  -0.3148  -0.3069
    -0.2983  -0.2975  -0.2784  -0.2690  -0.2523  -0.2053  -0.1701  -0.1493
    -0.1437  -0.1388  -0.1323  -0.1283  -0.0788  -0.0712  -0.0701  -0.0426
    -0.0345  -0.0002   0.0241   0.0560   0.0751   0.0773   0.1226   0.1768
     0.1967   0.2071   0.2230   0.2252   0.2373   0.2621   0.2651   0.2682
     0.4021   0.4238   0.5150   0.5752   0.5865   0.6042   0.6341   0.6375
     0.7069   0.7299   0.7599   0.7719   0.8030   0.8370   0.8381   0.8717
     0.8744   0.9025   0.9279   0.9401   0.9615   0.9695   1.0570   1.0832
     1.0859   1.1283   1.1395   1.1573   1.1804   1.2078   1.2378   1.2893
     1.3479   1.3975   1.4270   1.4296   1.4315   1.4824   1.4942   1.5156
     1.5208   1.5260   1.5586   1.6204   1.6408   1.7396   1.7539   1.8043
     1.9135   1.9237   2.0600   2.1008   2.1030   2.1428   2.1999   2.2597
     2.2861   2.3138   2.3175   2.3640   2.5510   2.6055   4.6672   4.9805
     4.9911   5.6384   5.7239   6.2301   6.3363   6.3800   6.4379   6.6100
     6.6173   6.6251   6.9272   7.1959   7.2398   7.4026   7.4395   7.4567
     7.6778   7.7897   7.7909   7.8505   7.8551   7.9295   8.0496   8.1459
     8.2088   8.2868   8.3343   8.3833   8.5255   8.6650   8.7418   8.7939
     8.8389   8.9212

          k = 0.1250 0.2618 0.0000 ( 72721 PWs)   bands (ev):

   -38.4307 -38.3674 -36.0668 -35.9949 -23.1667 -23.1484 -23.1374 -23.0343
   -23.0234 -23.0015 -22.8472 -22.6125 -18.8673 -18.8129 -18.7959 -18.7342
   -18.5482 -18.4840 -17.3879 -17.3190 -17.2880 -17.2207 -17.1656 -17.0906
   -15.6777 -15.6366 -15.2818 -15.2637 -15.0818 -14.9780 -14.9613 -14.9197
   -14.9172 -14.8446 -14.8150 -14.8010 -14.7985 -14.7776 -14.6135 -14.5888
   -14.4846 -14.4463 -14.4442 -14.4022 -14.3689 -14.3343 -14.3318 -14.3277
   -14.3210 -14.2663 -14.1703 -14.1383 -13.1502 -12.8192  -8.5104  -8.4112
    -8.3984  -8.3268  -8.3145  -8.2814  -8.2386  -8.2282  -8.1660  -8.1555
    -8.1378  -8.0681  -8.0627  -8.0576  -8.0574  -8.0370  -8.0131  -8.0106
    -8.0004  -7.9231  -7.8791  -7.8609  -7.5443  -7.4778  -3.4312  -3.3937
    -3.2620  -3.1664  -2.6668  -2.6518  -2.6273  -2.5551  -2.5362  -2.5287
    -2.4307  -2.4208  -2.4063  -2.3615  -2.3096  -2.2525  -2.1969  -2.1588
    -2.1065  -2.1010  -2.0972  -2.0509  -2.0072  -1.9519  -1.8441  -1.8042
    -1.7921  -1.7904  -1.7178  -1.7074  -1.6953  -1.6856  -1.6818  -1.6605
    -1.6267  -1.5481  -1.3633  -1.2143  -1.2000  -1.1533  -1.0631  -1.0438
    -0.9973  -0.9738  -0.9361  -0.9295  -0.8852  -0.8803  -0.7519  -0.7314
    -0.6811  -0.6679  -0.6647  -0.6461  -0.6412  -0.6154  -0.5981  -0.5436
    -0.4755  -0.4730  -0.4307  -0.4287  -0.3660  -0.3374  -0.3096  -0.2960
    -0.2884  -0.2487  -0.2253  -0.2043  -0.2005  -0.1841  -0.1521  -0.1397
    -0.1338  -0.1268  -0.1011  -0.0966  -0.0663  -0.0340  -0.0162  -0.0042
     0.0032   0.0406   0.0551   0.0859   0.0886   0.1000   0.1112   0.1191
     0.1587   0.1631   0.1881   0.1955   0.3335   0.3429   0.3498   0.4175
     0.4495   0.4646   0.5426   0.5645   0.6233   0.6457   0.6762   0.7339
     0.7688   0.7896   0.8168   0.8675   0.8943   0.8985   0.9076   0.9211
     0.9293   0.9746   0.9761   0.9933   0.9985   1.0571   1.0879   1.1027
     1.1046   1.1119   1.1888   1.2053   1.2254   1.2821   1.3044   1.3570
     1.3615   1.4048   1.4143   1.4156   1.4222   1.4570   1.4783   1.4912
     1.4984   1.5344   1.5614   1.6553   1.6962   1.7986   1.8555   1.8974
     1.9025   2.1872   2.3184   2.3385   2.4083   2.4805   2.5092   2.5275
     2.5815   2.5910   2.6270   2.6557   2.8310   2.8601   4.9378   5.3464
     5.3556   5.9056   5.9820   6.3534   6.6389   6.6447   6.6524   6.7003
     6.7321   6.9479   7.0694   7.2715   7.3203   7.3837   7.4502   7.5402
     7.5946   7.6402   7.9105   7.9550   8.0248   8.0899   8.2018   8.3279
     8.3706   8.4672   8.5145   8.6069   8.6263   8.7211   8.8573   8.8941
     8.9106   8.9941

          k = 0.1250 0.5236 0.0000 ( 72666 PWs)   bands (ev):

   -38.4242 -38.3609 -36.0627 -35.9908 -23.1207 -23.0884 -23.0774 -22.9868
   -22.9760 -22.9435 -22.8001 -22.5620 -18.7890 -18.7785 -18.7670 -18.7257
   -18.7166 -18.7122 -17.3205 -17.3026 -17.2762 -17.2468 -17.2326 -17.2087
   -15.4380 -15.3995 -15.1403 -15.1220 -15.0034 -14.9647 -14.9490 -14.8870
   -14.8260 -14.8040 -14.7882 -14.7222 -14.6531 -14.6301 -14.5988 -14.5500
   -14.5181 -14.4784 -14.4630 -14.4428 -14.4388 -14.3381 -14.3164 -14.3027
   -14.2809 -14.2693 -14.2225 -14.1516 -13.0381 -12.9603  -8.6296  -8.6190
    -8.4900  -8.4582  -8.3914  -8.3803  -8.3629  -8.3597  -8.3480  -8.3078
    -8.2966  -8.2665  -8.2623  -8.2525  -8.2052  -8.1866  -8.1157  -8.0791
    -8.0137  -8.0034  -7.9481  -7.8334  -7.6991  -7.5812  -3.8376  -3.7829
    -3.4978  -3.4078  -3.1650  -3.1396  -3.0141  -2.9500  -2.7665  -2.7535
    -2.6841  -2.6362  -2.5784  -2.5713  -2.5703  -2.5362  -2.5289  -2.4578
    -2.3931  -2.3852  -2.3810  -2.3732  -2.2739  -2.2335  -2.1913  -2.1610
    -2.1253  -2.1073  -2.0234  -1.9969  -1.9795  -1.9490  -1.9385  -1.8884
    -1.5713  -1.5212  -1.4489  -1.3220  -1.3114  -1.2765  -1.2315  -1.2052
    -1.1594  -1.1371  -1.1033  -1.0734  -1.0257  -1.0118  -1.0069  -0.9498
    -0.9418  -0.9017  -0.8702  -0.8362  -0.8162  -0.8003  -0.7977  -0.7521
    -0.7387  -0.6918  -0.6674  -0.6346  -0.6317  -0.5824  -0.5607  -0.5550
    -0.4975  -0.3961  -0.3782  -0.3308  -0.2401  -0.2050  -0.1912  -0.1677
    -0.1330  -0.1280  -0.0625  -0.0527  -0.0180   0.0169   0.0233   0.0439
     0.1139   0.1384   0.1416   0.1925   0.3278   0.3424   0.3507   0.3803
     0.4499   0.5158   0.5338   0.5541   0.5575   0.6810   0.7324   0.7453
     0.7594   0.7801   0.7866   0.8097   0.8482   0.8653   0.9001   0.9128
     0.9302   0.9701   0.9741   1.0225   1.0288   1.0433   1.0594   1.0663
     1.1011   1.1193   1.1240   1.1517   1.1700   1.1868   1.2185   1.2521
     1.2718   1.3118   1.3371   1.3434   1.3832   1.4021   1.4308   1.4431
     1.4554   1.4852   1.5077   1.5271   1.5336   1.5374   1.5458   1.6169
     1.6237   1.6801   1.7416   1.7659   1.7764   1.8560   1.9418   2.0131
     2.0577   2.0730   2.2777   2.4590   2.7141   2.7340   2.7995   2.8266
     2.8358   2.8460   3.4639   3.4869   3.5563   3.5880   5.4535   6.2246
     6.2327   6.3315   6.3431   6.5142   6.6274   6.6806   6.7694   6.8406
     7.3590   7.4131   7.5541   7.5689   7.7757   7.8257   7.9080   8.0678
     8.1027   8.1139   8.2038   8.2406   8.2549   8.4131   8.4245   8.4653
     8.4766   8.5984   8.6631   8.7764   8.7865   8.9662   8.9939   9.0328
     9.0799   9.1034

          k = 0.1250 0.7854 0.0000 ( 72652 PWs)   bands (ev):

   -38.4177 -38.3544 -36.0585 -35.9867 -23.0738 -23.0266 -23.0156 -22.9383
   -22.9274 -22.8838 -22.7518 -22.5101 -18.9970 -18.9341 -18.7611 -18.6992
   -18.6622 -18.6069 -17.4407 -17.3656 -17.2652 -17.2308 -17.1976 -17.1623
   -15.2113 -15.1905 -15.1088 -15.0537 -14.9728 -14.9519 -14.9067 -14.8504
   -14.8296 -14.8058 -14.7567 -14.6392 -14.6281 -14.6192 -14.5147 -14.5025
   -14.4901 -14.4806 -14.4272 -14.4056 -14.3930 -14.3226 -14.2675 -14.2613
   -14.2506 -14.2342 -14.2220 -14.1883 -13.0954 -12.9163  -8.9811  -8.9705
    -8.8043  -8.6891  -8.6805  -8.6786  -8.4982  -8.4682  -8.4214  -8.3755
    -8.3631  -8.3117  -8.3083  -8.3003  -8.2962  -8.2873  -8.1805  -8.0526
    -7.9701  -7.9596  -7.9491  -7.7760  -7.7755  -7.6060  -4.3222  -4.2685
    -3.9038  -3.8206  -3.5722  -3.5514  -3.3853  -3.3153  -3.1492  -3.1396
    -3.1195  -3.0880  -3.0783  -3.0228  -2.8966  -2.8886  -2.8036  -2.7447
    -2.6449  -2.6031  -2.5010  -2.4959  -2.4313  -2.4266  -2.2086  -2.1551
    -2.1547  -2.1365  -2.1104  -2.0707  -2.0216  -1.9757  -1.9081  -1.8628
    -1.7555  -1.5615  -1.5280  -1.5197  -1.4562  -1.4069  -1.3716  -1.3457
    -1.3436  -1.3398  -1.3188  -1.2846  -1.2839  -1.2669  -1.1633  -1.1139
    -1.1062  -1.0857  -1.0754  -1.0438  -1.0262  -1.0128  -1.0125  -1.0047
    -0.8996  -0.8898  -0.8890  -0.8700  -0.8521  -0.8027  -0.7225  -0.5145
    -0.5074  -0.4437  -0.3821  -0.3473  -0.3020  -0.2398  -0.2326  -0.1253
    -0.1200  -0.1155  -0.0824  -0.0354  -0.0229   0.0050   0.0433   0.0444
     0.1735   0.2441   0.2747   0.2848   0.4821   0.5148   0.5871   0.5957
     0.6685   0.7078   0.7342   0.7624   0.7938   0.8044   0.8863   0.9170
     0.9324   0.9460   0.9657   0.9667   1.0013   1.0045   1.0349   1.0628
     1.0826   1.1008   1.1173   1.1704   1.2334   1.2520   1.2761   1.2859
     1.3258   1.3692   1.3881   1.3917   1.4071   1.4178   1.4487   1.4655
     1.5005   1.5069   1.5099   1.5254   1.5334   1.5623   1.5749   1.5863
     1.6279   1.6596   1.6928   1.6941   1.7166   1.8033   1.8221   1.8733
     1.8904   1.9537   1.9654   1.9736   1.9783   2.0704   2.1041   2.1471
     2.1721   2.1814   2.3650   2.4176   2.5917   2.6580   2.6596   2.7581
     2.7652   2.8118   4.0610   4.0936   4.1383   4.1564   5.6215   5.8517
     5.8593   6.4103   6.5097   6.8782   7.0985   7.1110   7.4296   7.4938
     7.7391   7.9197   7.9524   8.0043   8.0799   8.2781   8.2912   8.3589
     8.4100   8.4674   8.5274   8.5666   8.6042   8.6885   8.7453   8.8056
     8.8543   8.8934   8.9378   9.0019   9.0391   9.0900   9.1430   9.1700
     9.2399   9.2609

          k = 0.1250-1.0472 0.0000 ( 72726 PWs)   bands (ev):

   -38.4150 -38.3517 -36.0568 -35.9850 -23.0541 -23.0005 -22.9895 -22.9178
   -22.9070 -22.8587 -22.7314 -22.4882 -19.0775 -19.0148 -18.7539 -18.6920
   -18.6150 -18.5595 -17.4910 -17.4160 -17.2606 -17.1951 -17.1930 -17.1265
   -15.2198 -15.1948 -15.0300 -14.9973 -14.9857 -14.9135 -14.8736 -14.8438
   -14.8351 -14.8002 -14.7829 -14.6289 -14.6156 -14.5341 -14.4982 -14.4948
   -14.4872 -14.4444 -14.4207 -14.4020 -14.3314 -14.2806 -14.2714 -14.2385
   -14.2339 -14.2213 -14.2167 -14.2041 -13.1489 -12.8624  -9.1139  -9.1032
    -8.9410  -8.8195  -8.8091  -8.7977  -8.6120  -8.5462  -8.4609  -8.3786
    -8.3645  -8.3265  -8.3161  -8.3064  -8.2944  -8.2916  -8.2040  -8.0416
    -7.9801  -7.9359  -7.9254  -7.7792  -7.7487  -7.6161  -4.5227  -4.4704
    -4.0904  -4.0090  -3.7280  -3.7095  -3.5376  -3.4630  -3.3840  -3.3737
    -3.3288  -3.3183  -3.3085  -3.2391  -2.9222  -2.9141  -2.8209  -2.7729
    -2.7584  -2.7315  -2.5238  -2.5191  -2.4204  -2.4160  -2.2692  -2.2192
    -2.1909  -2.1648  -2.1500  -2.1122  -1.9737  -1.8965  -1.8249  -1.7644
    -1.7190  -1.6999  -1.6668  -1.6015  -1.5875  -1.5192  -1.4773  -1.4502
    -1.4356  -1.4267  -1.3590  -1.3559  -1.3549  -1.3181  -1.2156  -1.2069
    -1.1795  -1.1656  -1.1482  -1.1302  -1.1203  -1.1104  -1.1017  -1.0656
    -0.9884  -0.9796  -0.9720  -0.9635  -0.8378  -0.8088  -0.7470  -0.4809
    -0.4739  -0.4124  -0.3753  -0.3350  -0.3139  -0.2796  -0.2654  -0.2629
    -0.1166  -0.1126  -0.0855  -0.0495  -0.0299   0.0114   0.0203   0.0388
     0.2032   0.2886   0.3051   0.3533   0.5417   0.6084   0.6287   0.6881
     0.6892   0.7578   0.7737   0.7864   0.8416   0.8942   0.8953   0.9393
     0.9431   0.9778   1.0123   1.0509   1.0756   1.0771   1.0902   1.0991
     1.1044   1.1306   1.1571   1.1977   1.2388   1.3123   1.3362   1.3512
     1.3965   1.4253   1.5004   1.5287   1.5438   1.5451   1.5710   1.6150
     1.6266   1.6299   1.6311   1.6592   1.6715   1.6756   1.6983   1.7072
     1.8390   1.8623   1.8756   1.8761   1.9051   1.9198   1.9201   1.9249
     1.9345   1.9391   2.0438   2.1289   2.1661   2.1753   2.1877   2.2968
     2.3364   2.3458   2.3565   2.3726   2.4082   2.4467   2.4906   2.6118
     2.6258   2.6947   4.2429   4.2788   4.3417   4.3571   5.5657   5.6253
     5.6330   6.2923   6.4039   7.3443   7.4412   7.4518   7.6903   7.7442
     7.8647   7.8664   7.9342   7.9783   8.1021   8.1896   8.5267   8.5557
     8.6145   8.6387   8.6653   8.6973   8.7497   8.7891   8.8766   8.9036
     8.9238   8.9483   8.9857   9.0314   9.1061   9.1145   9.1281   9.2427
     9.3626   9.4589

          k = 0.2500 0.0000 0.0000 ( 72711 PWs)   bands (ev):

   -38.4334 -38.3701 -36.0685 -35.9966 -23.1841 -23.1601 -23.1492 -23.0670
   -23.0562 -23.0169 -22.8753 -22.6350 -18.9041 -18.8499 -18.7952 -18.7334
   -18.4374 -18.3727 -17.4245 -17.3558 -17.3211 -17.2546 -17.0998 -17.0246
   -15.7089 -15.6672 -15.2963 -15.2809 -15.1292 -15.0092 -15.0076 -14.9837
   -14.9778 -14.9375 -14.9253 -14.8485 -14.8316 -14.8292 -14.6187 -14.5878
   -14.4690 -14.4317 -14.3899 -14.3603 -14.3500 -14.3499 -14.3427 -14.3326
   -14.3189 -14.2397 -14.1824 -14.1078 -13.1471 -12.8139  -8.5202  -8.4231
    -8.4092  -8.3202  -8.3071  -8.2799  -8.1795  -8.1691  -8.1667  -8.0563
    -8.0457  -8.0370  -8.0173  -8.0071  -7.9840  -7.9128  -7.9013  -7.8859
    -7.8850  -7.8752  -7.8672  -7.7130  -7.4856  -7.3790  -3.2210  -3.1967
    -3.1165  -3.0180  -2.5485  -2.5372  -2.4984  -2.4916  -2.4296  -2.4275
    -2.3939  -2.3266  -2.2948  -2.2567  -2.2387  -2.2033  -2.1985  -2.1428
    -2.1073  -2.0798  -2.0673  -2.0525  -1.8693  -1.8452  -1.8133  -1.8076
    -1.4679  -1.4514  -1.4033  -1.3618  -1.3418  -1.3257  -1.2977  -1.2714
    -1.2677  -1.2616  -1.2581  -1.2370  -1.1913  -1.1478  -1.0973  -1.0002
    -0.9717  -0.9648  -0.8251  -0.7640  -0.7431  -0.7226  -0.6626  -0.6523
    -0.6448  -0.6351  -0.6271  -0.5934  -0.5928  -0.5913  -0.5742  -0.5655
    -0.5610  -0.5576  -0.5331  -0.4861  -0.4599  -0.3601  -0.3413  -0.3211
    -0.3194  -0.3066  -0.3014  -0.2835  -0.2738  -0.2033  -0.2016  -0.1542
    -0.1282  -0.0765  -0.0689  -0.0596  -0.0595  -0.0563  -0.0504  -0.0363
    -0.0249   0.0582   0.0664   0.0677   0.0868   0.1140   0.1436   0.1892
     0.1988   0.2059   0.2108   0.2232   0.2455   0.2728   0.2737   0.2818
     0.3706   0.3856   0.5130   0.5386   0.5677   0.5827   0.5863   0.6487
     0.6794   0.6913   0.7102   0.7196   0.7227   0.7814   0.7868   0.7983
     0.8771   0.9206   0.9304   0.9582   0.9905   0.9948   1.0593   1.0741
     1.1006   1.1381   1.1393   1.2196   1.2207   1.2417   1.2672   1.2677
     1.3099   1.3692   1.4164   1.4291   1.4660   1.4777   1.5034   1.5185
     1.5197   1.5210   1.7030   1.7066   1.7258   1.7280   1.7322   1.7680
     1.8873   1.9021   2.0291   2.0759   2.1198   2.1242   2.1829   2.2337
     2.2998   2.3199   2.3406   2.3679   2.5300   2.5845   4.7843   5.1157
     5.1244   5.7802   5.8443   5.9081   6.2247   6.2322   6.4915   6.5515
     6.5866   6.7920   7.0591   7.0861   7.2179   7.5821   7.6492   7.6916
     7.7092   7.7848   7.7926   7.8448   7.8533   7.9492   8.0587   8.1365
     8.2007   8.3022   8.4364   8.4709   8.4877   8.6253   8.6917   8.8027
     8.8712   8.9675

          k = 0.2500 0.2618 0.0000 ( 72704 PWs)   bands (ev):

   -38.4307 -38.3674 -36.0668 -35.9949 -23.1654 -23.1363 -23.1254 -23.0470
   -23.0362 -22.9938 -22.8556 -22.6143 -18.8656 -18.8112 -18.7881 -18.7263
   -18.5482 -18.4840 -17.3947 -17.3259 -17.3149 -17.2483 -17.1654 -17.0904
   -15.6051 -15.5638 -15.2468 -15.2317 -15.0744 -14.9818 -14.9630 -14.9447
   -14.9237 -14.8949 -14.8878 -14.8343 -14.8146 -14.7962 -14.5804 -14.5465
   -14.4698 -14.4458 -14.4327 -14.4085 -14.3821 -14.3397 -14.3328 -14.3294
   -14.3260 -14.2715 -14.1871 -14.1286 -13.1129 -12.8589  -8.5104  -8.4175
    -8.4050  -8.3464  -8.3349  -8.2926  -8.2918  -8.2816  -8.2116  -8.2009
    -8.1760  -8.0913  -8.0850  -8.0574  -8.0493  -7.9945  -7.9841  -7.9516
    -7.9413  -7.9232  -7.8179  -7.8047  -7.5174  -7.4520  -3.3275  -3.2894
    -3.1604  -3.0650  -2.7053  -2.6857  -2.6412  -2.5635  -2.5164  -2.5075
    -2.4595  -2.4444  -2.4129  -2.3710  -2.3628  -2.3018  -2.2558  -2.2185
    -2.1968  -2.1578  -2.1400  -2.1173  -2.0052  -1.9409  -1.8209  -1.8002
    -1.7809  -1.7533  -1.7126  -1.7013  -1.6948  -1.6845  -1.6073  -1.5777
    -1.5521  -1.4763  -1.3404  -1.2253  -1.2188  -1.1677  -1.0970  -1.0474
    -1.0255  -0.9857  -0.9802  -0.9504  -0.9082  -0.8921  -0.8727  -0.8585
    -0.7973  -0.7640  -0.6692  -0.6469  -0.6258  -0.6035  -0.5958  -0.5413
    -0.4564  -0.4522  -0.4008  -0.3932  -0.3535  -0.3374  -0.3174  -0.3017
    -0.2968  -0.2874  -0.2637  -0.2529  -0.2117  -0.2026  -0.1538  -0.1471
    -0.1370  -0.1299  -0.1124  -0.0924  -0.0483  -0.0193   0.0058   0.0290
     0.0372   0.0650   0.0660   0.0882   0.0920   0.1021   0.1177   0.1286
     0.1774   0.2012   0.2181   0.2527   0.2960   0.3080   0.3658   0.4116
     0.4483   0.4571   0.5590   0.5884   0.6145   0.6305   0.7170   0.7745
     0.7853   0.7971   0.8161   0.8355   0.8376   0.8621   0.8836   0.9052
     0.9124   0.9142   0.9515   0.9567   1.0132   1.0200   1.0309   1.0591
     1.1353   1.1453   1.1558   1.2003   1.2140   1.3228   1.3464   1.3533
     1.3616   1.3700   1.3701   1.3782   1.4196   1.4311   1.4373   1.4622
     1.4876   1.4900   1.5322   1.7247   1.8042   1.8704   1.9861   2.0541
     2.1149   2.2636   2.3199   2.3737   2.4114   2.4712   2.5005   2.5238
     2.5858   2.5967   2.6198   2.6493   2.8002   2.8296   5.0254   5.4532
     5.4619   6.0162   6.0433   6.1106   6.3608   6.3690   6.7780   6.8627
     6.8770   7.1070   7.1287   7.1825   7.2892   7.5049   7.5646   7.7336
     7.7764   7.7890   7.8996   7.9282   8.0201   8.1121   8.2160   8.2777
     8.3472   8.4780   8.5459   8.6297   8.6348   8.6731   8.7546   8.7868
     8.8838   8.9118

          k = 0.2500 0.5236 0.0000 ( 72642 PWs)   bands (ev):

   -38.4242 -38.3609 -36.0627 -35.9908 -23.1197 -23.0778 -23.0669 -22.9979
   -22.9871 -22.9369 -22.8071 -22.5634 -18.7888 -18.7709 -18.7656 -18.7255
   -18.7109 -18.7090 -17.3244 -17.3056 -17.2996 -17.2521 -17.2363 -17.2306
   -15.3704 -15.3324 -15.1206 -15.1054 -14.9990 -14.9604 -14.9466 -14.8718
   -14.8275 -14.8069 -14.7894 -14.7334 -14.7255 -14.7200 -14.6061 -14.5603
   -14.4942 -14.4804 -14.4559 -14.4495 -14.4247 -14.3277 -14.3126 -14.2981
   -14.2851 -14.2734 -14.2221 -14.1535 -13.0277 -12.9679  -8.6650  -8.6545
    -8.4895  -8.4880  -8.4119  -8.4014  -8.3873  -8.3756  -8.3637  -8.3128
    -8.3013  -8.2670  -8.2313  -8.2281  -8.2207  -8.2060  -8.0973  -8.0788
    -7.9666  -7.9568  -7.9511  -7.7979  -7.6961  -7.5404  -3.7369  -3.6829
    -3.3951  -3.3064  -3.2029  -3.1717  -3.0237  -2.9588  -2.7476  -2.7356
    -2.6759  -2.6246  -2.5836  -2.5764  -2.5617  -2.5339  -2.5265  -2.4654
    -2.4011  -2.3922  -2.3778  -2.3702  -2.2928  -2.2207  -2.2068  -2.1788
    -2.1557  -2.1525  -2.1327  -2.0774  -1.9407  -1.9122  -1.8928  -1.8659
    -1.6035  -1.5558  -1.4731  -1.3568  -1.3551  -1.3025  -1.2718  -1.2428
    -1.2351  -1.2074  -1.1871  -1.1591  -1.1398  -1.1206  -1.0421  -1.0054
    -0.9384  -0.8963  -0.8544  -0.8248  -0.8099  -0.7846  -0.7833  -0.7619
    -0.7237  -0.7006  -0.6777  -0.6142  -0.6117  -0.5924  -0.5553  -0.5293
    -0.4951  -0.4027  -0.3744  -0.3445  -0.3062  -0.2868  -0.1933  -0.1689
    -0.1237  -0.1066  -0.0587  -0.0376   0.0247   0.0425   0.0741   0.0909
     0.1428   0.1977   0.2126   0.2282   0.2933   0.3285   0.4209   0.4356
     0.4677   0.5164   0.5607   0.5830   0.5896   0.6444   0.7066   0.7357
     0.7492   0.7767   0.7807   0.7998   0.8215   0.8294   0.8462   0.8584
     0.9043   0.9262   0.9451   0.9488   0.9602   1.0660   1.0673   1.0979
     1.1253   1.1444   1.1774   1.1832   1.1880   1.1920   1.2154   1.2535
     1.2601   1.2969   1.3074   1.3380   1.3536   1.3828   1.4117   1.4228
     1.4231   1.4284   1.4393   1.4875   1.5248   1.5536   1.5687   1.5902
     1.6066   1.6205   1.7413   1.7494   1.8995   2.1630   2.1906   2.2087
     2.2647   2.2998   2.3579   2.5446   2.7121   2.7378   2.8016   2.8224
     2.8434   2.8547   3.3616   3.3856   3.4668   3.4996   5.5039   6.2649
     6.2732   6.3466   6.3603   6.4501   6.6729   6.7351   6.8231   6.8853
     7.4166   7.4413   7.6898   7.7017   7.8052   7.8407   7.9692   8.0227
     8.0698   8.0923   8.1216   8.1757   8.2519   8.4206   8.4584   8.4892
     8.5224   8.6025   8.7061   8.7727   8.7886   8.9382   8.9769   9.0063
     9.0296   9.0717

          k = 0.2500 0.7854 0.0000 ( 72670 PWs)   bands (ev):

   -38.4177 -38.3544 -36.0585 -35.9867 -23.0730 -23.0177 -23.0067 -22.9475
   -22.9367 -22.8785 -22.7574 -22.5112 -18.9969 -18.9340 -18.7537 -18.6917
   -18.6609 -18.6056 -17.4406 -17.3655 -17.2875 -17.2360 -17.2205 -17.1676
   -15.1663 -15.1486 -15.0662 -15.0042 -14.9775 -14.9606 -14.8849 -14.8378
   -14.8328 -14.7999 -14.7598 -14.6516 -14.6340 -14.6209 -14.5613 -14.5604
   -14.5366 -14.5117 -14.4206 -14.3930 -14.3856 -14.3182 -14.2635 -14.2572
   -14.2473 -14.2370 -14.2243 -14.1925 -13.0753 -12.9383  -8.9412  -8.9306
    -8.7632  -8.6496  -8.5800  -8.5696  -8.4677  -8.4383  -8.4277  -8.4004
    -8.3632  -8.3595  -8.3471  -8.3147  -8.3027  -8.2903  -8.2768  -8.0564
    -8.0157  -8.0053  -7.9696  -7.8548  -7.8351  -7.6350  -4.2187  -4.1670
    -3.8090  -3.7279  -3.6229  -3.5972  -3.4117  -3.3403  -3.1420  -3.1324
    -3.1113  -3.0951  -3.0854  -3.0294  -2.8529  -2.8441  -2.7631  -2.6988
    -2.5582  -2.5219  -2.5111  -2.5017  -2.4270  -2.4219  -2.2402  -2.1821
    -2.1549  -2.1346  -2.1090  -2.0839  -2.0532  -2.0489  -2.0122  -1.9630
    -1.7043  -1.6989  -1.6711  -1.5513  -1.5480  -1.5453  -1.4963  -1.4239
    -1.3963  -1.3704  -1.3701  -1.3438  -1.2803  -1.2600  -1.1559  -1.0852
    -1.0699  -1.0611  -1.0589  -1.0515  -1.0329  -1.0042  -0.9887  -0.9722
    -0.9098  -0.8974  -0.8626  -0.8340  -0.8060  -0.7753  -0.7298  -0.5497
    -0.5434  -0.4719  -0.3847  -0.3655  -0.3549  -0.3271  -0.1591  -0.1124
    -0.0958  -0.0796  -0.0168   0.0146   0.0552   0.0824   0.0968   0.1453
     0.1645   0.2446   0.3680   0.4063   0.4132   0.5068   0.5622   0.6323
     0.6673   0.6765   0.7049   0.7581   0.8343   0.8663   0.8748   0.8831
     0.9022   0.9171   0.9514   0.9646   1.0030   1.0161   1.0296   1.0473
     1.0718   1.0804   1.0987   1.1298   1.1955   1.2228   1.2373   1.2783
     1.2873   1.3174   1.3541   1.3672   1.4086   1.4200   1.4410   1.4601
     1.4616   1.4920   1.5160   1.5283   1.5653   1.5760   1.5894   1.6012
     1.6072   1.6562   1.6693   1.6943   1.7131   1.8624   1.8959   1.9373
     1.9464   1.9902   1.9988   2.1182   2.1473   2.1576   2.1804   2.1867
     2.2509   2.3597   2.3646   2.4982   2.5959   2.6614   2.6633   2.7516
     2.8042   2.8430   3.8715   3.9032   3.9648   3.9859   5.7180   6.0072
     6.0154   6.4921   6.5812   6.9170   6.9890   7.0051   7.3688   7.4406
     7.6082   7.8248   7.8866   7.9084   8.0707   8.2967   8.3142   8.3576
     8.4138   8.4710   8.5413   8.6014   8.6491   8.7360   8.8525   8.8592
     8.9038   8.9435   8.9857   9.0452   9.1023   9.1428   9.1699   9.1899
     9.2486   9.2769

          k = 0.2500-1.0472 0.0000 ( 72644 PWs)   bands (ev):

   -38.4150 -38.3517 -36.0568 -35.9850 -23.0534 -22.9923 -22.9813 -22.9262
   -22.9154 -22.8539 -22.7364 -22.4892 -19.0774 -19.0147 -18.7466 -18.6846
   -18.6139 -18.5583 -17.4911 -17.4161 -17.2822 -17.2151 -17.1999 -17.1314
   -15.1881 -15.1626 -14.9744 -14.9645 -14.9317 -14.9264 -14.8775 -14.8375
   -14.8329 -14.8082 -14.7841 -14.6216 -14.6086 -14.5653 -14.5375 -14.5264
   -14.5255 -14.4947 -14.4036 -14.3899 -14.3322 -14.2894 -14.2814 -14.2387
   -14.2323 -14.2198 -14.2191 -14.2066 -13.1187 -12.8998  -9.0270  -9.0164
    -8.8592  -8.7308  -8.7261  -8.7204  -8.5294  -8.4756  -8.4580  -8.4247
    -8.4143  -8.3680  -8.3547  -8.3130  -8.3003  -8.2938  -8.2934  -8.0563
    -8.0457  -8.0433  -7.9788  -7.8605  -7.8532  -7.7133  -4.4164  -4.3664
    -3.9967  -3.9170  -3.7828  -3.7595  -3.5704  -3.4939  -3.3766  -3.3666
    -3.3260  -3.3222  -3.3163  -3.2452  -2.8699  -2.8608  -2.7697  -2.7012
    -2.6943  -2.6543  -2.5314  -2.5263  -2.4211  -2.4162  -2.2490  -2.2052
    -2.1985  -2.1160  -2.0944  -2.0697  -2.0155  -1.9784  -1.9664  -1.9426
    -1.9027  -1.8340  -1.7585  -1.7256  -1.7123  -1.6288  -1.5865  -1.5034
    -1.4443  -1.4224  -1.3995  -1.3954  -1.3015  -1.2648  -1.2171  -1.1647
    -1.1570  -1.1394  -1.1356  -1.1327  -1.1025  -1.0901  -1.0766  -1.0055
    -0.9987  -0.9880  -0.9500  -0.8872  -0.8500  -0.7875  -0.7430  -0.5245
    -0.5187  -0.4475  -0.3950  -0.3850  -0.3662  -0.3177  -0.1524  -0.1105
    -0.0804  -0.0667  -0.0570   0.0250   0.0514   0.0555   0.0713   0.0867
     0.1820   0.2610   0.4430   0.4557   0.4898   0.5748   0.6846   0.7065
     0.7076   0.7378   0.7626   0.7973   0.8502   0.9086   0.9117   0.9256
     0.9371   0.9563   0.9597   1.0065   1.0644   1.0818   1.0834   1.0901
     1.1017   1.1160   1.1331   1.1331   1.2490   1.2909   1.3297   1.3405
     1.3660   1.4093   1.4691   1.4786   1.4954   1.5156   1.5578   1.5692
     1.5808   1.6008   1.6111   1.6262   1.6559   1.6610   1.7825   1.8162
     1.8622   1.8988   1.9119   1.9136   1.9271   1.9745   2.0352   2.0977
     2.1275   2.1293   2.1626   2.1844   2.1854   2.1946   2.2437   2.2495
     2.2690   2.3158   2.3252   2.3553   2.3728   2.4565   2.5067   2.6089
     2.6992   2.7436   4.0154   4.0507   4.1246   4.1430   5.7027   5.8174
     5.8257   6.3819   6.4825   7.1914   7.2023   7.2958   7.5766   7.6118
     7.6985   7.7325   7.8840   7.9593   8.1291   8.2106   8.5092   8.5955
     8.7038   8.7220   8.8008   8.8061   8.8858   8.9384   8.9431   8.9768
     8.9852   9.0537   9.0788   9.1397   9.1438   9.2483   9.2597   9.2669
     9.3231   9.4452

          k = 0.3750 0.0000 0.0000 ( 72766 PWs)   bands (ev):

   -38.4334 -38.3701 -36.0685 -35.9966 -23.1826 -23.1420 -23.1310 -23.0859
   -23.0751 -23.0074 -22.8855 -22.6369 -18.9023 -18.8481 -18.7871 -18.7253
   -18.4374 -18.3727 -17.4315 -17.3630 -17.3486 -17.2828 -17.0998 -17.0246
   -15.6130 -15.5717 -15.2774 -15.2575 -15.1500 -15.0699 -15.0342 -14.9990
   -14.9859 -14.9355 -14.9182 -14.8836 -14.8565 -14.8557 -14.5990 -14.5631
   -14.4489 -14.4167 -14.3920 -14.3705 -14.3542 -14.3533 -14.3486 -14.3370
   -14.3298 -14.2471 -14.1945 -14.1070 -13.0750 -12.8930  -8.5206  -8.4272
    -8.4135  -8.3257  -8.3128  -8.2898  -8.1820  -8.1392  -8.1290  -8.0461
    -8.0384  -8.0356  -8.0214  -8.0108  -7.9502  -7.9233  -7.9128  -7.8979
    -7.8962  -7.8742  -7.8556  -7.7447  -7.4954  -7.3855  -3.0648  -3.0414
    -2.9768  -2.8773  -2.6814  -2.6670  -2.6006  -2.4865  -2.4708  -2.4503
    -2.4185  -2.3839  -2.3615  -2.3510  -2.2310  -2.1960  -2.1915  -2.1303
    -2.1289  -2.0980  -2.0860  -2.0451  -1.8957  -1.8637  -1.8259  -1.7588
    -1.4471  -1.4111  -1.4049  -1.3565  -1.3088  -1.2690  -1.2654  -1.2595
    -1.2560  -1.1992  -1.1890  -1.1793  -1.1156  -1.0960  -1.0451  -1.0142
    -0.9615  -0.8861  -0.8790  -0.8130  -0.8059  -0.7744  -0.7542  -0.7269
    -0.7136  -0.6915  -0.6531  -0.6458  -0.6449  -0.6199  -0.5963  -0.5804
    -0.5628  -0.5538  -0.4871  -0.4778  -0.4507  -0.4040  -0.3805  -0.3546
    -0.3515  -0.3255  -0.3169  -0.2987  -0.2895  -0.2103  -0.1994  -0.1718
    -0.1461  -0.0694  -0.0620  -0.0557  -0.0484  -0.0119  -0.0046   0.0396
     0.0471   0.0697   0.0755   0.1129   0.1262   0.1293   0.1698   0.1798
     0.1971   0.2010   0.2220   0.2382   0.2599   0.2697   0.2798   0.2818
     0.3988   0.4176   0.4767   0.5114   0.5139   0.5439   0.5666   0.5755
     0.5813   0.5901   0.6579   0.7132   0.7141   0.7192   0.8383   0.8617
     0.8866   0.9563   0.9724   1.0054   1.0336   1.0429   1.0512   1.0527
     1.1192   1.1424   1.1520   1.1833   1.1972   1.2035   1.2061   1.2476
     1.2476   1.3022   1.3404   1.4140   1.4964   1.5117   1.5473   1.5499
     1.5904   1.5981   1.6539   1.6728   1.7249   1.7778   1.8061   1.8428
     1.8731   1.8962   1.9640   2.0780   2.0807   2.1317   2.1677   2.2785
     2.2881   2.3561   2.3634   2.3841   2.4871   2.5412   4.9440   5.3186
     5.3270   5.5721   5.8785   5.8860   6.0103   6.0893   6.7101   6.7951
     6.8083   6.8516   6.9040   7.0507   7.2762   7.4413   7.5186   7.5342
     7.7541   7.7955   7.8181   7.8562   7.9774   8.0458   8.1247   8.1282
     8.2177   8.3063   8.3658   8.5734   8.7113   8.7560   8.7575   8.7971
     8.8376   8.9220

          k = 0.3750 0.2618 0.0000 ( 72708 PWs)   bands (ev):

   -38.4307 -38.3674 -36.0668 -35.9949 -23.1640 -23.1192 -23.1082 -23.0648
   -23.0541 -22.9849 -22.8651 -22.6161 -18.8639 -18.8095 -18.7801 -18.7182
   -18.5482 -18.4840 -17.4014 -17.3412 -17.3328 -17.2752 -17.1653 -17.0902
   -15.5095 -15.4689 -15.2247 -15.2084 -15.0953 -15.0136 -15.0072 -14.9756
   -14.9374 -14.9042 -14.8812 -14.8573 -14.8327 -14.8209 -14.5624 -14.5238
   -14.4638 -14.4397 -14.4245 -14.4149 -14.3941 -14.3430 -14.3335 -14.3321
   -14.3310 -14.2743 -14.1998 -14.1230 -13.0565 -12.9177  -8.5105  -8.4273
    -8.4151  -8.3715  -8.3605  -8.3191  -8.3082  -8.3032  -8.2353  -8.2243
    -8.2137  -8.1156  -8.1013  -8.0775  -8.0640  -7.9424  -7.9322  -7.9242
    -7.9112  -7.9005  -7.7773  -7.7608  -7.4922  -7.4284  -3.1687  -3.1303
    -3.0112  -2.9166  -2.8061  -2.7776  -2.6989  -2.6027  -2.5026  -2.4897
    -2.4889  -2.4703  -2.4410  -2.4054  -2.3880  -2.3605  -2.3501  -2.3305
    -2.2480  -2.1999  -2.1436  -2.1232  -2.0057  -1.9314  -1.8105  -1.7983
    -1.7594  -1.7165  -1.7082  -1.6993  -1.6938  -1.6891  -1.4971  -1.4589
    -1.4224  -1.3583  -1.3044  -1.2423  -1.2412  -1.2248  -1.1670  -1.1570
    -1.0671  -1.0415  -1.0306  -0.9988  -0.9898  -0.9877  -0.9099  -0.9014
    -0.8303  -0.8258  -0.7089  -0.6657  -0.6299  -0.5828  -0.5610  -0.5151
    -0.4586  -0.4463  -0.4232  -0.4085  -0.3663  -0.3604  -0.3278  -0.3246
    -0.2889  -0.2849  -0.2558  -0.2520  -0.2125  -0.2009  -0.1654  -0.1612
    -0.1297  -0.1258  -0.0898  -0.0857  -0.0592   0.0085   0.0201   0.0676
     0.0713   0.0746   0.0854   0.0881   0.1033   0.1219   0.1366   0.1502
     0.1818   0.2153   0.2269   0.2523   0.2660   0.3626   0.3860   0.3996
     0.4203   0.4742   0.5723   0.6007   0.6131   0.6478   0.6819   0.7213
     0.7262   0.7611   0.8022   0.8223   0.8311   0.8803   0.9090   0.9151
     0.9385   0.9532   0.9541   0.9554   0.9873   1.0105   1.0290   1.0502
     1.1232   1.1731   1.1772   1.2023   1.2160   1.2308   1.2692   1.2739
     1.3253   1.3284   1.3371   1.3628   1.3946   1.4450   1.4531   1.4543
     1.4874   1.5238   1.5307   1.5767   1.9241   2.0083   2.1678   2.2250
     2.3053   2.3197   2.3328   2.3989   2.4525   2.4658   2.4776   2.5142
     2.5912   2.6049   2.6074   2.6333   2.7356   2.7651   5.1457   5.6192
     5.6273   5.7911   6.0824   6.0903   6.2026   6.2771   6.9048   6.9535
     6.9924   7.1184   7.1258   7.3343   7.4039   7.5781   7.6058   7.7007
     7.7461   7.7681   7.9200   7.9788   8.1098   8.1608   8.2573   8.2747
     8.3562   8.3901   8.4286   8.5627   8.6791   8.6962   8.7596   8.8499
     8.8805   8.8932

          k = 0.3750 0.5236 0.0000 ( 72641 PWs)   bands (ev):

   -38.4242 -38.3609 -36.0627 -35.9908 -23.1185 -23.0631 -23.0520 -23.0131
   -23.0024 -22.9295 -22.8150 -22.5649 -18.7887 -18.7642 -18.7632 -18.7253
   -18.7095 -18.7012 -17.3292 -17.3241 -17.3059 -17.2595 -17.2564 -17.2335
   -15.2800 -15.2442 -15.1095 -15.0970 -14.9952 -14.9626 -14.9554 -14.8605
   -14.8332 -14.8254 -14.8087 -14.7926 -14.7523 -14.7345 -14.6123 -14.5707
   -14.5123 -14.4803 -14.4754 -14.4362 -14.4072 -14.3144 -14.3079 -14.2937
   -14.2904 -14.2785 -14.2222 -14.1551 -13.0128 -12.9801  -8.6631  -8.6526
    -8.5256  -8.5151  -8.4884  -8.4826  -8.3910  -8.3750  -8.3630  -8.3447
    -8.3074  -8.2960  -8.2592  -8.2579  -8.1202  -8.1097  -8.0909  -7.9782
    -7.9694  -7.9594  -7.9531  -7.8037  -7.6429  -7.5397  -3.5913  -3.5395
    -3.2880  -3.2519  -3.2489  -3.1602  -3.0522  -2.9829  -2.7121  -2.7020
    -2.6496  -2.6007  -2.5967  -2.5852  -2.5542  -2.5271  -2.5190  -2.4746
    -2.4413  -2.4332  -2.4287  -2.3722  -2.3656  -2.3425  -2.3192  -2.3096
    -2.1402  -2.0920  -2.0156  -1.9809  -1.8809  -1.8438  -1.8412  -1.7927
    -1.6720  -1.6244  -1.5566  -1.5218  -1.5114  -1.4305  -1.3770  -1.3173
    -1.2986  -1.2690  -1.2111  -1.2015  -1.1678  -1.1516  -0.9890  -0.9674
    -0.9603  -0.9087  -0.8737  -0.8317  -0.7884  -0.7617  -0.7586  -0.7424
    -0.7205  -0.6887  -0.6818  -0.6241  -0.6154  -0.5929  -0.5546  -0.5018
    -0.4886  -0.4673  -0.4258  -0.4139  -0.3662  -0.3380  -0.1938  -0.1876
    -0.0631  -0.0391   0.0033   0.0110   0.0380   0.0953   0.1230   0.1447
     0.1828   0.2351   0.2711   0.2810   0.2929   0.3506   0.3992   0.4825
     0.4851   0.5711   0.5848   0.6221   0.6380   0.6433   0.6820   0.6852
     0.7204   0.7262   0.7640   0.7812   0.7858   0.7914   0.8052   0.8235
     0.8439   0.8761   0.8827   0.9806   1.0022   1.0179   1.0711   1.0864
     1.1201   1.1327   1.1762   1.1977   1.2113   1.2233   1.2437   1.2475
     1.2570   1.2835   1.2935   1.3219   1.3340   1.3548   1.3619   1.3740
     1.4123   1.4255   1.4618   1.4731   1.5007   1.5112   1.5680   1.6055
     1.6136   1.6186   1.7034   1.7109   2.0855   2.2202   2.3053   2.3159
     2.5513   2.5950   2.6592   2.7110   2.7427   2.7499   2.8029   2.8167
     2.8878   2.8952   3.1812   3.2073   3.3061   3.3418   5.5610   6.3119
     6.3211   6.3519   6.3712   6.3836   6.7509   6.8108   6.8576   6.9179
     7.4855   7.5080   7.7369   7.7943   7.8630   7.8797   7.9008   7.9588
     8.0506   8.0611   8.1579   8.2726   8.3060   8.4276   8.4838   8.5635
     8.5928   8.6889   8.7714   8.7801   8.8052   8.8200   8.8910   8.9136
     8.9590   9.0414

          k = 0.3750 0.7854 0.0000 ( 72690 PWs)   bands (ev):

   -38.4177 -38.3544 -36.0585 -35.9867 -23.0721 -23.0055 -22.9945 -22.9600
   -22.9493 -22.8726 -22.7637 -22.5124 -18.9968 -18.9340 -18.7462 -18.6841
   -18.6596 -18.6043 -17.4406 -17.3655 -17.3096 -17.2431 -17.2411 -17.1728
   -15.1130 -15.0970 -15.0098 -14.9956 -14.9920 -14.9305 -14.8521 -14.8396
   -14.8209 -14.7794 -14.7617 -14.6773 -14.6514 -14.6378 -14.6190 -14.6134
   -14.5654 -14.5510 -14.4116 -14.3866 -14.3763 -14.3234 -14.2582 -14.2521
   -14.2424 -14.2416 -14.2284 -14.1973 -13.0450 -12.9706  -8.8598  -8.8492
    -8.6849  -8.5950  -8.5873  -8.5768  -8.4672  -8.4349  -8.4242  -8.4209
    -8.3506  -8.3407  -8.3381  -8.3209  -8.3094  -8.2896  -8.2580  -8.1207
    -8.1102  -8.0581  -7.9726  -7.9336  -7.8743  -7.7084  -4.0754  -4.0279
    -3.7116  -3.6837  -3.6802  -3.6055  -3.4625  -3.3864  -3.1312  -3.1216
    -3.1058  -3.1015  -3.0962  -3.0375  -2.7748  -2.7644  -2.6830  -2.6073
    -2.5505  -2.5429  -2.4241  -2.4125  -2.4101  -2.3871  -2.3809  -2.2823
    -2.2785  -2.2417  -2.1283  -2.0973  -2.0785  -2.0399  -1.9495  -1.9176
    -1.9059  -1.8812  -1.8418  -1.7578  -1.6268  -1.5811  -1.5491  -1.4222
    -1.4177  -1.3869  -1.3781  -1.3621  -1.2301  -1.1977  -1.1678  -1.1139
    -1.0828  -1.0693  -1.0336  -1.0133  -0.9786  -0.9676  -0.9620  -0.9300
    -0.9249  -0.8839  -0.8491  -0.8120  -0.7709  -0.7654  -0.7129  -0.6055
    -0.5967  -0.5239  -0.5155  -0.5036  -0.3837  -0.3522  -0.1660  -0.1115
    -0.0095   0.0571   0.0818   0.0945   0.1193   0.1832   0.2018   0.2164
     0.2174   0.3192   0.3372   0.3859   0.5006   0.5731   0.5976   0.6207
     0.6814   0.6985   0.7245   0.7289   0.7841   0.7871   0.7972   0.8347
     0.8618   0.9031   0.9630   0.9802   1.0136   1.0211   1.0414   1.0486
     1.0820   1.1013   1.1228   1.1309   1.1575   1.1721   1.1883   1.2012
     1.2792   1.3058   1.3320   1.3606   1.3886   1.3974   1.4126   1.4297
     1.4519   1.4816   1.4926   1.5086   1.5291   1.5331   1.5555   1.6135
     1.6185   1.6494   1.6606   1.7274   1.7329   1.8480   1.8781   1.9029
     1.9294   2.0273   2.0358   2.1131   2.1220   2.1969   2.2442   2.2815
     2.5573   2.5841   2.5998   2.6622   2.6662   2.7144   2.7486   2.7640
     2.9833   3.0000   3.5628   3.5948   3.6875   3.7124   5.8253   6.2365
     6.2462   6.5898   6.6629   6.7981   6.8124   6.9791   7.2622   7.3382
     7.4842   7.7330   7.8254   7.8482   8.1142   8.3309   8.3493   8.3522
     8.3786   8.4807   8.5777   8.5826   8.6183   8.7374   8.8997   8.9313
     9.0015   9.0285   9.0925   9.1263   9.1488   9.1868   9.2581   9.3213
     9.3538   9.4162

          k = 0.3750-1.0472 0.0000 ( 72674 PWs)   bands (ev):

   -38.4150 -38.3517 -36.0568 -35.9850 -23.0526 -22.9812 -22.9702 -22.9376
   -22.9268 -22.8486 -22.7420 -22.4902 -19.0773 -19.0146 -18.7392 -18.6770
   -18.6127 -18.5572 -17.4911 -17.4161 -17.3036 -17.2370 -17.2047 -17.1363
   -15.1415 -15.1143 -14.9930 -14.9697 -14.8937 -14.8770 -14.8469 -14.8447
   -14.7944 -14.7898 -14.7626 -14.6187 -14.6104 -14.6083 -14.6033 -14.5696
   -14.5655 -14.5513 -14.3778 -14.3729 -14.3399 -14.3160 -14.2821 -14.2388
   -14.2296 -14.2225 -14.2171 -14.2100 -13.0721 -12.9536  -8.8956  -8.8850
    -8.7367  -8.6403  -8.5927  -8.5823  -8.5674  -8.5569  -8.4601  -8.4243
    -8.4059  -8.3764  -8.3528  -8.3401  -8.3279  -8.3159  -8.2911  -8.2229
[...]
    -2.9447  -2.9433  -2.8643  -2.8092  -2.7864  -2.6877  -2.5198  -2.5021
    -2.4774  -2.4594  -2.4509  -2.4195  -2.4106  -2.3858  -2.3784  -2.3690
    -2.2579  -2.2143  -2.1412  -2.1272  -2.0060  -1.9275  -1.8050  -1.8013
    -1.7473  -1.7048  -1.7032  -1.7026  -1.6930  -1.6866  -1.3767  -1.3761
    -1.3484  -1.3076  -1.2758  -1.2623  -1.2442  -1.2269  -1.2184  -1.1818
    -1.1592  -1.1408  -1.1380  -1.0727  -1.0288  -0.9959  -0.8968  -0.8829
    -0.7977  -0.7723  -0.7713  -0.7267  -0.6277  -0.5737  -0.5307  -0.5030
    -0.4820  -0.4570  -0.4374  -0.4244  -0.3741  -0.3727  -0.3167  -0.3121
    -0.2992  -0.2838  -0.2452  -0.2327  -0.2125  -0.1937  -0.1720  -0.1660
    -0.1297  -0.1185  -0.0799  -0.0752  -0.0677   0.0170   0.0242   0.0626
     0.0773   0.0792   0.1040   0.1190   0.1255   0.1303   0.1572   0.1592
     0.1770   0.1789   0.1966   0.2615   0.2756   0.3675   0.3779   0.4127
     0.4689   0.4899   0.5711   0.6015   0.6112   0.6286   0.6386   0.6582
     0.7375   0.7511   0.7680   0.7812   0.8205   0.8945   0.9481   0.9600
     0.9642   0.9707   0.9734   0.9751   1.0056   1.0452   1.0677   1.0942
     1.1046   1.1123   1.1204   1.1757   1.1767   1.2186   1.2619   1.2675
     1.2731   1.2818   1.3263   1.3320   1.4359   1.4629   1.4697   1.4769
     1.4789   1.4858   1.5275   1.5321   2.0057   2.0172   2.2715   2.3067
     2.3075   2.3260   2.3592   2.4478   2.4504   2.4706   2.5107   2.5344
     2.5738   2.6166   2.6181   2.6249   2.6719   2.6994   5.2203   5.6735
     5.8239   5.8313   5.8411   5.8490   6.3267   6.3969   6.7648   6.8417
     7.1333   7.2696   7.4041   7.4049   7.4514   7.4650   7.5381   7.6356
     7.7160   7.7546   7.8337   7.9298   8.1329   8.1441   8.2622   8.3047
     8.4105   8.4643   8.4715   8.5921   8.6377   8.6469   8.7426   8.8178
     8.8462   8.8888

          k =-0.5000 0.5236 0.0000 ( 72634 PWs)   bands (ev):

   -38.4242 -38.3609 -36.0627 -35.9908 -23.1181 -23.0530 -23.0419 -23.0234
   -23.0128 -22.9261 -22.8186 -22.5655 -18.7886 -18.7637 -18.7599 -18.7252
   -18.7089 -18.6979 -17.3346 -17.3304 -17.3064 -17.2686 -17.2597 -17.2337
   -15.2201 -15.1877 -15.1224 -15.1073 -14.9930 -14.9819 -14.9519 -14.8792
   -14.8341 -14.8339 -14.8217 -14.7963 -14.7483 -14.7427 -14.6141 -14.5752
   -14.5263 -14.4853 -14.4769 -14.4319 -14.4008 -14.3076 -14.3053 -14.2936
   -14.2934 -14.2805 -14.2225 -14.1556 -12.9984 -12.9933  -8.6291  -8.6187
    -8.6000  -8.5895  -8.4878  -8.4489  -8.4152  -8.3823  -8.3744  -8.3625
    -8.3068  -8.2954  -8.2931  -8.2583  -8.0909  -8.0301  -8.0197  -8.0193
    -8.0087  -7.9537  -7.9145  -7.8305  -7.5889  -7.5702  -3.4675  -3.4185
    -3.3793  -3.3385  -3.1363  -3.1141  -3.0465  -3.0432  -2.6733  -2.6642
    -2.6347  -2.6250  -2.5865  -2.5852  -2.5250  -2.5167  -2.5129  -2.4998
    -2.4881  -2.4857  -2.4789  -2.4623  -2.3676  -2.3601  -2.3460  -2.3384
    -2.1286  -2.0993  -1.8550  -1.8412  -1.8228  -1.8037  -1.7964  -1.7648
    -1.7162  -1.7101  -1.6836  -1.6559  -1.6209  -1.5446  -1.3770  -1.3608
    -1.3015  -1.2751  -1.2337  -1.1853  -1.1618  -1.1430  -1.0033  -0.9860
    -0.9180  -0.9090  -0.8827  -0.8487  -0.7593  -0.7587  -0.7442  -0.7322
    -0.7133  -0.6800  -0.6494  -0.6466  -0.6342  -0.6109  -0.5616  -0.5411
    -0.4818  -0.4800  -0.4764  -0.4261  -0.3631  -0.3474  -0.1931  -0.1915
    -0.0177  -0.0121   0.0030   0.0411   0.0902   0.0933   0.1368   0.1917
     0.1955   0.2251   0.2609   0.2625   0.3344   0.4063   0.4187   0.4782
     0.4963   0.5583   0.6003   0.6470   0.6533   0.6673   0.6755   0.6858
     0.6939   0.7019   0.7491   0.7681   0.7684   0.7710   0.7788   0.7793
     0.8370   0.8540   0.8668   0.9866   1.0227   1.0358   1.0655   1.1252
     1.1418   1.1421   1.1455   1.1502   1.1970   1.2003   1.2069   1.2311
     1.2605   1.2692   1.2853   1.2996   1.3503   1.3663   1.3913   1.3944
     1.4115   1.4326   1.4481   1.4559   1.4853   1.5124   1.5557   1.6025
     1.6561   1.6588   1.6599   1.6682   2.1890   2.2030   2.3223   2.3226
     2.7079   2.7093   2.7657   2.7793   2.8004   2.8089   2.8985   2.9261
     2.9459   2.9790   3.0398   3.0765   3.1119   3.1501   5.5874   6.3259
     6.3418   6.3502   6.3650   6.3748   6.8040   6.8566   6.8623   6.9134
     7.5288   7.5500   7.6760   7.7753   7.8235   7.8972   7.9937   8.0030
     8.0164   8.0258   8.1983   8.3588   8.4431   8.4583   8.4913   8.5883
     8.6439   8.7057   8.7322   8.7781   8.7786   8.7972   8.8060   8.9023
     8.9386   9.0572

          k =-0.5000 0.7854 0.0000 ( 72674 PWs)   bands (ev):

   -38.4177 -38.3544 -36.0585 -35.9867 -23.0718 -22.9977 -22.9865 -22.9680
   -22.9573 -22.8700 -22.7664 -22.5128 -18.9968 -18.9339 -18.7430 -18.6809
   -18.6591 -18.6038 -17.4406 -17.3654 -17.3187 -17.2524 -17.2432 -17.1750
   -15.0732 -15.0551 -15.0402 -15.0283 -14.9518 -14.8837 -14.8588 -14.8294
   -14.8076 -14.7685 -14.7651 -14.7082 -14.6749 -14.6581 -14.6316 -14.6178
   -14.5764 -14.5735 -14.4060 -14.3898 -14.3663 -14.3295 -14.2548 -14.2488
   -14.2455 -14.2385 -14.2319 -14.1995 -13.0116 -13.0048  -8.7558  -8.7453
    -8.7172  -8.7067  -8.5997  -8.5583  -8.5274  -8.4668  -8.3553  -8.3541
    -8.3419  -8.3391  -8.3278  -8.2842  -8.2596  -8.2588  -8.2488  -8.2483
    -8.1707  -8.0546  -8.0180  -7.9741  -7.8178  -7.7929  -3.9758  -3.9332
    -3.7876  -3.7491  -3.5926  -3.5260  -3.5212  -3.4341  -3.1190  -3.1180
    -3.1094  -3.1083  -3.0966  -3.0417  -2.6943  -2.6835  -2.6173  -2.6048
    -2.5639  -2.5449  -2.4712  -2.4519  -2.3912  -2.3801  -2.3612  -2.3485
    -2.2701  -2.2322  -2.1401  -2.1123  -2.0969  -2.0919  -2.0081  -1.9943
    -1.9514  -1.9472  -1.8241  -1.7777  -1.6932  -1.6422  -1.4723  -1.4411
    -1.4305  -1.4167  -1.3787  -1.3664  -1.1837  -1.1685  -1.1512  -1.1326
    -1.0905  -1.0661  -1.0635  -1.0370  -0.9550  -0.9527  -0.9407  -0.9376
    -0.8959  -0.8431  -0.8280  -0.7980  -0.7744  -0.7479  -0.6692  -0.6576
    -0.6339  -0.6087  -0.5712  -0.5499  -0.3862  -0.3570  -0.1542  -0.1244
     0.0644   0.0763   0.1413   0.1482   0.1553   0.1654   0.2339   0.2517
     0.2749   0.3026   0.3502   0.4331   0.4633   0.6551   0.6558   0.6574
     0.6832   0.6868   0.7103   0.7362   0.7436   0.7703   0.7779   0.8060
     0.8256   0.8651   0.9546   0.9915   0.9990   1.0142   1.0368   1.0382
     1.0418   1.0767   1.1034   1.1295   1.1431   1.1974   1.2492   1.2584
     1.2768   1.2887   1.2990   1.3091   1.3588   1.4100   1.4319   1.4547
     1.4595   1.4784   1.4923   1.4943   1.5142   1.5285   1.5300   1.5529
     1.6156   1.6189   1.6466   1.6508   1.7359   1.8428   1.9057   1.9229
     2.0655   2.0733   2.0758   2.0845   2.0936   2.0987   2.2330   2.2524
     2.6025   2.6026   2.6378   2.6683   2.7242   2.7434   3.1383   3.1723
     3.1741   3.2068   3.3115   3.3448   3.3536   3.3775   5.8741   6.4834
     6.4925   6.5053   6.5299   6.7054   6.7660   6.9964   7.1983   7.2795
     7.4299   7.6881   7.8137   7.8354   8.1314   8.3172   8.3549   8.4020
     8.4085   8.4923   8.5032   8.5367   8.6134   8.7478   8.8768   8.9330
     9.0591   9.1689   9.2020   9.2154   9.2517   9.2833   9.2962   9.3039
     9.3989   9.4122

          k =-0.5000-1.0472 0.0000 ( 72660 PWs)   bands (ev):

   -38.4150 -38.3517 -36.0568 -35.9850 -23.0523 -22.9744 -22.9632 -22.9446
   -22.9339 -22.8463 -22.7444 -22.4906 -19.0772 -19.0146 -18.7360 -18.6739
   -18.6122 -18.5567 -17.4912 -17.4161 -17.3124 -17.2459 -17.2066 -17.1384
   -15.1071 -15.0753 -15.0254 -15.0103 -14.8859 -14.8481 -14.8198 -14.8034
   -14.7883 -14.7625 -14.7394 -14.6593 -14.6361 -14.6184 -14.6110 -14.6006
   -14.5961 -14.5622 -14.3564 -14.3530 -14.3491 -14.3451 -14.2824 -14.2388
   -14.2265 -14.2258 -14.2141 -14.2132 -13.0194 -13.0092  -8.7592  -8.7486
    -8.7085  -8.6979  -8.6209  -8.5978  -8.5435  -8.4597  -8.4342  -8.4236
    -8.4107  -8.4001  -8.3330  -8.3306  -8.3219  -8.3204  -8.3185  -8.3052
    -8.2931  -8.1220  -8.0454  -7.9847  -7.9724  -7.9029  -4.1755  -4.1350
    -3.9469  -3.9102  -3.7873  -3.7203  -3.6851  -3.5956  -3.3519  -3.3510
    -3.3422  -3.3412  -3.3099  -3.2567  -2.6990  -2.6891  -2.5957  -2.5811
    -2.5459  -2.4871  -2.4689  -2.4333  -2.4306  -2.4196  -2.3461  -2.3324
    -2.3286  -2.2949  -2.2691  -2.2474  -2.1986  -2.1166  -2.1153  -2.1039
    -2.0852  -2.0566  -1.8411  -1.7968  -1.7210  -1.6722  -1.5088  -1.4827
    -1.4723  -1.4641  -1.4367  -1.4302  -1.2691  -1.2307  -1.1831  -1.1584
    -1.1525  -1.1251  -1.0783  -1.0521  -1.0349  -1.0345  -1.0236  -1.0153
    -0.9367  -0.9007  -0.8823  -0.8574  -0.8563  -0.7543  -0.6740  -0.6715
    -0.6538  -0.6309  -0.5887  -0.5666  -0.3890  -0.3578  -0.1326  -0.0957
     0.0949   0.1008   0.1611   0.1682   0.2052   0.2129   0.2277   0.2473
     0.2473   0.2960   0.3682   0.4812   0.4818   0.6952   0.7030   0.7475
     0.7565   0.7762   0.7961   0.8319   0.8353   0.8623   0.8649   0.9156
     0.9161   0.9199   0.9819   1.0125   1.0247   1.0452   1.0600   1.0844
     1.0949   1.1357   1.1406   1.1580   1.1683   1.1807   1.2057   1.2109
     1.2487   1.2912   1.3051   1.4065   1.4821   1.4976   1.5490   1.5645
     1.5672   1.5983   1.6658   1.6963   1.7117   1.7254   1.7930   1.7944
     1.8220   1.8585   1.8682   1.8967   1.8975   1.9097   1.9112   2.0194
     2.1236   2.1317   2.1705   2.1825   2.2452   2.2541   2.2543   2.2636
     2.3882   2.3986   2.4501   2.4723   2.5754   2.6429   3.1596   3.1934
     3.2233   3.2589   3.3201   3.3540   3.4323   3.4546   5.9532   6.4269
     6.4358   6.4455   6.4766   6.6323   6.6910   7.0895   7.2341   7.2994
     7.5730   7.8032   7.9197   7.9202   8.1179   8.3975   8.4385   8.5292
     8.8336   8.8406   8.8509   8.8751   8.9664   9.0577   9.0908   9.1090
     9.1534   9.1815   9.2198   9.2434   9.4411   9.4694   9.4794   9.4844
     9.4909   9.5016

     the Fermi energy is     2.4255 ev

!    total energy              =   -3711.52336893 Ry
     Harris-Foulkes estimate   =   -3711.52336893 Ry
     estimated scf accuracy    <          3.8E-09 Ry

     The total energy is the sum of the following terms:

     one-electron contribution =  -54334.79889741 Ry
     hartree contribution      =   27468.94614817 Ry
     xc contribution           =   -1263.80522755 Ry
     ewald contribution        =   24418.15482235 Ry
     smearing contrib. (-TS)   =      -0.02021448 Ry

     convergence has been achieved in  35 iterations

     negative rho (up, down):  9.194E-02 0.000E+00

     Forces acting on atoms (cartesian axes, Ry/au):

     atom    1 type  4   force =    -0.00000839    0.00000000   -0.00051860
     atom    2 type  4   force =     0.00000839    0.00000000   -0.00051860
     atom    3 type  3   force =    -0.00000428    0.00000000    0.00007726
     atom    4 type  3   force =     0.00000428    0.00000000    0.00007726
     atom    5 type  4   force =     0.00000537    0.00000000    0.00013209
     atom    6 type  4   force =    -0.00000537    0.00000000    0.00013209
     atom    7 type  1   force =     0.00000000    0.00000000   -0.00037769
     atom    8 type  1   force =     0.00000000    0.00000000   -0.00034459
     atom    9 type  3   force =     0.00010635    0.00000000   -0.00027279
     atom   10 type  3   force =    -0.00010635    0.00000000   -0.00027279
     atom   11 type  4   force =     0.00000000    0.00000000    0.00108867
     atom   12 type  4   force =     0.00005454    0.00000000    0.00136817
     atom   13 type  4   force =    -0.00005454    0.00000000    0.00136817
     atom   14 type  4   force =     0.00000000    0.00000000    0.00142620
     atom   15 type  2   force =     0.00000000    0.00000000   -0.00326023
     atom   16 type  5   force =     0.00000000    0.00000000   -0.00481083
     atom   17 type  4   force =     0.00094242    0.00000000    0.00626220
     atom   18 type  4   force =    -0.00094242    0.00000000    0.00626220
     atom   19 type  4   force =     0.00000000    0.00000000    0.00398927
     atom   20 type  4   force =     0.00000000    0.00000000    0.00518953
     atom   21 type  3   force =     0.00054994    0.00000000   -0.00181752
     atom   22 type  3   force =    -0.00054994    0.00000000   -0.00181752
     atom   23 type  1   force =     0.00000000    0.00000000    0.00734236
     atom   24 type  1   force =     0.00000000    0.00000000    0.01376844
     atom   25 type  4   force =     0.00247426    0.00000000   -0.01841773
     atom   26 type  4   force =    -0.00247426    0.00000000   -0.01841773
     atom   27 type  4   force =    -0.01318724    0.00000000    0.02841256
     atom   28 type  4   force =     0.01318724    0.00000000    0.02841256
     atom   29 type  3   force =     0.01267548    0.00000000   -0.02528565
     atom   30 type  3   force =    -0.01267548    0.00000000   -0.02528565
     atom   31 type  4   force =     0.01503402    0.00000000    0.02637750
     atom   32 type  4   force =    -0.01503402    0.00000000    0.02637750
     atom   33 type  1   force =     0.00000000    0.00000000   -0.00427100
     atom   34 type  1   force =     0.00000000    0.00000000   -0.01525161
     atom   35 type  3   force =    -0.00347867    0.00000000   -0.02094841
     atom   36 type  3   force =     0.00347867    0.00000000   -0.02094841
     atom   37 type  4   force =     0.00000000    0.00000000    0.00305459
     atom   38 type  4   force =     0.00000000    0.00000000    0.00070958
     atom   39 type  4   force =     0.00281483    0.00000000    0.00037458
     atom   40 type  4   force =    -0.00281483    0.00000000    0.00037458
     atom   41 type  5   force =     0.00000000    0.00000000    0.00210005
     atom   42 type  2   force =     0.00000000    0.00000000    0.00042054
     atom   43 type  4   force =     0.00000000    0.00000000    0.00022173
     atom   44 type  4   force =     0.00002958    0.00000000   -0.00139717
     atom   45 type  4   force =    -0.00002958    0.00000000   -0.00139717
     atom   46 type  4   force =     0.00000000    0.00000000   -0.00009522
     atom   47 type  3   force =    -0.00003765    0.00000000    0.00030601
     atom   48 type  3   force =     0.00003765    0.00000000    0.00030601
     atom   49 type  1   force =     0.00000000    0.00000000    0.00017287
     atom   50 type  1   force =     0.00000000    0.00000000    0.00022912
     atom   51 type  4   force =    -0.00004878    0.00000000   -0.00080374
     atom   52 type  4   force =     0.00004878    0.00000000   -0.00080374
     atom   53 type  3   force =    -0.00003690    0.00000000    0.00088021
     atom   54 type  3   force =     0.00003690    0.00000000    0.00088021
     atom   55 type  4   force =     0.00002002    0.00000000   -0.00037985
     atom   56 type  4   force =    -0.00002002    0.00000000   -0.00037985

     Total force =     0.087766     Total SCF correction =     0.000364


     Computing stress (Cartesian axis) and pressure


     negative rho (up, down):  9.194E-02 0.000E+00
          total   stress  (Ry/bohr**3)                   (kbar)     P=       -5.94
  -0.00000210   0.00000000   0.00000000           -0.31        0.00        0.00
   0.00000000  -0.00008929   0.00000000            0.00      -13.14        0.00
   0.00000000   0.00000000  -0.00002978            0.00        0.00       -4.38

 
     init_run     :     25.10s CPU     26.08s WALL (       1 calls)
     electrons    :   1774.15s CPU   1862.16s WALL (       1 calls)
     forces       :     10.55s CPU     11.26s WALL (       1 calls)
     stress       :    105.70s CPU    107.70s WALL (       1 calls)

     Called by init_run:
     wfcinit      :     20.47s CPU     20.88s WALL (       1 calls)
     potinit      :      1.03s CPU      1.05s WALL (       1 calls)
     hinit0       :      1.67s CPU      1.69s WALL (       1 calls)

     Called by electrons:
     c_bands      :   1483.38s CPU   1525.78s WALL (      35 calls)
     sum_band     :    221.47s CPU    246.36s WALL (      35 calls)
     v_of_rho     :      4.38s CPU      4.44s WALL (      36 calls)
     newd         :     30.99s CPU     51.76s WALL (      36 calls)
     mix_rho      :     34.55s CPU     34.90s WALL (      35 calls)

     Called by c_bands:
     init_us_2    :      9.64s CPU      9.69s WALL (    1825 calls)
     cegterg      :   1413.83s CPU   1455.18s WALL (     875 calls)

     Called by sum_band:
     sum_band:bec :      1.11s CPU      1.12s WALL (     875 calls)
     addusdens    :     33.90s CPU     56.58s WALL (      35 calls)

     Called by *egterg:
     h_psi        :    692.98s CPU    707.26s WALL (    4524 calls)
     s_psi        :    105.69s CPU    106.29s WALL (    4524 calls)
     g_psi        :      1.55s CPU      1.57s WALL (    3624 calls)
     cdiaghg      :    318.78s CPU    320.05s WALL (    4499 calls)

     Called by h_psi:
     h_psi:calbec :    111.28s CPU    111.69s WALL (    4524 calls)
     vloc_psi     :    472.50s CPU    479.17s WALL (    4524 calls)
     add_vuspsi   :    106.01s CPU    106.47s WALL (    4524 calls)

     General routines
     calbec       :    171.62s CPU    172.24s WALL (    5524 calls)
     fft          :      3.96s CPU      3.98s WALL (     491 calls)
     ffts         :     19.80s CPU     20.00s WALL (   19667 calls)
     fftw         :    538.66s CPU    546.17s WALL ( 1243586 calls)
     interpolate  :      0.33s CPU      0.33s WALL (      36 calls)
 
     Parallel routines
     fft_scatt_xy :     66.07s CPU     67.05s WALL ( 1263744 calls)
     fft_scatt_yz :    334.81s CPU    339.50s WALL ( 1263744 calls)
 
     PWSCF        :  31m56.56s CPU  33m28.45s WALL

 
   This run was terminated on:  10:33:49  28May2021            

=------------------------------------------------------------------------------=
   JOB DONE.
=------------------------------------------------------------------------------=
[1622212429.986682] [holy7c04306:25372:0]          mpool.c:43   UCX  WARN  object 0x2f1d800 was not returned to mpool ucp_requests
[1622212429.987011] [holy7c04306:25374:0]          mpool.c:43   UCX  WARN  object 0x470dd80 was not returned to mpool ucp_requests
[1622212429.987031] [holy7c04306:25374:0]          mpool.c:43   UCX  WARN  object 0x470e2c0 was not returned to mpool ucp_requests
[1622212429.991450] [holy7c04304:121472:0]          mpool.c:43   UCX  WARN  object 0x3498e80 was not returned to mpool ucp_requests
[1622212429.994451] [holy7c04302:151049:0]          mpool.c:43   UCX  WARN  object 0x348f100 was not returned to mpool ucp_requests
[1622212429.996453] [holy7c04303:216826:0]          mpool.c:43   UCX  WARN  object 0x2e15940 was not returned to mpool ucp_requests
[1622212429.996473] [holy7c04303:216826:0]          mpool.c:43   UCX  WARN  object 0x2e15e80 was not returned to mpool ucp_requests
[1622212429.996047] [holy7c04302:151053:0]          mpool.c:43   UCX  WARN  object 0x2852340 was not returned to mpool ucp_requests
[1622212429.999229] [holy7c04309:31498:0]          mpool.c:43   UCX  WARN  object 0x4114780 was not returned to mpool ucp_requests
[1622212429.999938] [holy7c04302:151047:0]          mpool.c:43   UCX  WARN  object 0x475f300 was not returned to mpool ucp_requests
[1622212430.000165] [holy7c04302:151050:0]          mpool.c:43   UCX  WARN  object 0x2fb0c00 was not returned to mpool ucp_requests
[1622212430.000197] [holy7c04302:151050:0]          mpool.c:43   UCX  WARN  object 0x2fb0f80 was not returned to mpool ucp_requests
[1622212430.000563] [holy7c04303:216825:0]          mpool.c:43   UCX  WARN  object 0x352c780 was not returned to mpool ucp_requests
[1622212430.000941] [holy7c04303:216829:0]          mpool.c:43   UCX  WARN  object 0x3ebe500 was not returned to mpool ucp_requests
[1622212430.000924] [holy7c04303:216831:0]          mpool.c:43   UCX  WARN  object 0x40993c0 was not returned to mpool ucp_requests
[1622212430.000948] [holy7c04303:216831:0]          mpool.c:43   UCX  WARN  object 0x4099ac0 was not returned to mpool ucp_requests
[1622212430.008622] [holy7c04309:31497:0]          mpool.c:43   UCX  WARN  object 0x2ef3300 was not returned to mpool ucp_requests
