
     Program PWSCF v.6.5 starts on 27May2021 at 23:19:29 

     This program is part of the open-source Quantum ESPRESSO suite
     for quantum simulation of materials; please cite
         "P. Giannozzi et al., J. Phys.:Condens. Matter 21 395502 (2009);
         "P. Giannozzi et al., J. Phys.:Condens. Matter 29 465901 (2017);
          URL http://www.quantum-espresso.org", 
     in publications or presentations arising from this work. More details at
     http://www.quantum-espresso.org/quote

     Parallel version (MPI), running on    32 processors

     MPI processes distributed on     6 nodes
     R & G space division:  proc/nbgrp/npool/nimage =      32
     Reading input from YCBCO50_212_BaO_cleave_7.0_sep.pwi
Warning: card &IONS ignored
Warning: card     ION_DYNAMICS = 'BFGS' ignored
Warning: card / ignored
Warning: card &CELL ignored
Warning: card     CELL_DYNAMICS = 'BFGS' ignored
Warning: card     PRESS_CONV_THR = 5 ignored
Warning: card / ignored

     Current dimensions of program PWSCF are:
     Max number of different atomic species (ntypx) = 10
     Max number of k-points (npk) =  40000
     Max angular momentum in pseudopotentials (lmaxx) =  3

     Subspace diagonalization in iterative solution of the eigenvalue problem:
     one sub-group per band group will be used
     scalapack distributed-memory algorithm (size of sub-group:  5*  5 procs)

     Message from routine setup:
     using ibrav=0 with symmetry is DISCOURAGED, use correct ibrav instead
 
     Parallelization info
     --------------------
     sticks:   dense  smooth     PW     G-vecs:    dense   smooth      PW
     Min         188      62     17               102988    19806    2955
     Max         190      63     18               103018    19857    3000
     Sum        6019    2003    565              3296173   634629   95441
 


     bravais-lattice index     =            0
     lattice parameter (alat)  =      14.8133  a.u.
     unit-cell volume          =   10103.1525 (a.u.)^3
     number of atoms/cell      =           56
     number of atomic types    =            5
     number of electrons       =       456.00
     number of Kohn-Sham states=          274
     kinetic-energy cutoff     =      60.0000  Ry
     charge density cutoff     =     720.0000  Ry
     convergence threshold     =      1.0E-08
     mixing beta               =       0.5000
     number of iterations used =           10  local-TF  mixing
     Exchange-correlation= SLA PW PBE PBE
                           (   1   4   3   4   0   0   0)

     celldm(1)=  14.813271  celldm(2)=   0.000000  celldm(3)=   0.000000
     celldm(4)=   0.000000  celldm(5)=   0.000000  celldm(6)=   0.000000

     crystal axes: (cart. coord. in units of alat)
               a(1) = (   1.000000   0.000000   0.000000 )  
               a(2) = (   0.000000   0.477453   0.000000 )  
               a(3) = (   0.000000   0.000000   6.509890 )  

     reciprocal axes: (cart. coord. in units 2 pi/alat)
               b(1) = (  1.000000  0.000000  0.000000 )  
               b(2) = (  0.000000  2.094448  0.000000 )  
               b(3) = (  0.000000  0.000000  0.153612 )  


     PseudoPot. # 1 for Ba read from file:
     ./pseudo/Ba.pbe-nsp-van.UPF
     MD5 check sum: 2b9c31dd849566dd297d80989662b7a0
     Pseudo is Ultrasoft + core correction, Zval = 10.0
     Generated by new atomic code, or converted to UPF format
     Using radial grid of  907 points,  6 beta functions with: 
                l(1) =   0
                l(2) =   0
                l(3) =   1
                l(4) =   1
                l(5) =   2
                l(6) =   2
     Q(r) pseudized with  6 coefficients,  rinner =    1.200   1.200   1.200
                                                       1.200   1.200

     PseudoPot. # 2 for Ca read from file:
     ./pseudo/Ca.pbe-nsp-van.UPF
     MD5 check sum: 6471098428ff4fa451746d08035ff179
     Pseudo is Ultrasoft + core correction, Zval = 10.0
     Generated by new atomic code, or converted to UPF format
     Using radial grid of  845 points,  6 beta functions with: 
                l(1) =   0
                l(2) =   0
                l(3) =   1
                l(4) =   1
                l(5) =   2
                l(6) =   2
     Q(r) pseudized with  6 coefficients,  rinner =    1.200   1.200   1.200
                                                       1.200   1.200

     PseudoPot. # 3 for Cu read from file:
     ./pseudo/Cu.pbe-n-van_ak.UPF
     MD5 check sum: 34e3282627ffb533726feb647e090d62
     Pseudo is Ultrasoft + core correction, Zval = 11.0
     Generated by new atomic code, or converted to UPF format
     Using radial grid of  867 points,  6 beta functions with: 
                l(1) =   0
                l(2) =   0
                l(3) =   1
                l(4) =   1
                l(5) =   2
                l(6) =   2
     Q(r) pseudized with  8 coefficients,  rinner =    1.400   1.400   1.400
                                                       1.400   1.400

     PseudoPot. # 4 for O  read from file:
     ./pseudo/O.pbe-van_ak.UPF
     MD5 check sum: 783ce7fe4c79b6a4916957118fed0856
     Pseudo is Ultrasoft, Zval =  6.0
     Generated by new atomic code, or converted to UPF format
     Using radial grid of  737 points,  4 beta functions with: 
                l(1) =   0
                l(2) =   0
                l(3) =   1
                l(4) =   1
     Q(r) pseudized with  8 coefficients,  rinner =    0.800   0.800   0.800


     PseudoPot. # 5 for Y  read from file:
     ./pseudo/Y.pbe-nsp-van.UPF
     MD5 check sum: 4412fed3ab108fed87a1b7d6a69a4a38
     Pseudo is Ultrasoft + core correction, Zval = 11.0
     Generated by new atomic code, or converted to UPF format
     Using radial grid of  885 points,  6 beta functions with: 
                l(1) =   0
                l(2) =   0
                l(3) =   1
                l(4) =   1
                l(5) =   2
                l(6) =   2
     Q(r) pseudized with  6 coefficients,  rinner =    1.200   1.200   1.200
                                                       1.200   1.200

     atomic species   valence    mass     pseudopotential
        Ba            10.00   137.32700     Ba( 1.00)
        Ca            10.00    40.07800     Ca( 1.00)
        Cu            11.00    63.54600     Cu( 1.00)
        O              6.00    15.99900     O ( 1.00)
        Y             11.00    88.90584     Y ( 1.00)

      4 Sym. Ops. (no inversion) found ( 2 have fractional translation)



   Cartesian axes

     site n.     atom                  positions (alat units)
         1           O   tau(   1) = (  -0.0008343   0.2387265  -0.0222443  )
         2           O   tau(   2) = (   0.5008340   0.2387265  -0.0222443  )
         3           Cu  tau(   3) = (   0.5017257   0.0000000   0.0109608  )
         4           Cu  tau(   4) = (  -0.0017260   0.0000000   0.0109608  )
         5           O   tau(   5) = (  -0.0028933   0.0000000   0.2506504  )
         6           O   tau(   6) = (   0.5028929   0.0000000   0.2506504  )
         7           Ba  tau(   7) = (   0.7499995   0.2387265   0.2749435  )
         8           Ba  tau(   8) = (   0.2499998   0.2387265   0.2755214  )
         9           Cu  tau(   9) = (   0.4980963   0.0000000   0.5208446  )
        10           Cu  tau(  10) = (   0.0019033   0.0000000   0.5208446  )
        11           O   tau(  11) = (   0.2499998   0.0000000   0.5341884  )
        12           O   tau(  12) = (   0.5083351   0.2387265   0.5569851  )
        13           O   tau(  13) = (  -0.0083354   0.2387265   0.5569851  )
        14           O   tau(  14) = (   0.7499995   0.0000000   0.5573831  )
        15           Ca  tau(  15) = (   0.2499998   0.2387265   0.7436937  )
        16           Y   tau(  16) = (   0.7499995   0.2387265   0.7469544  )
        17           O   tau(  17) = (  -0.0063798   0.2387265   0.9248530  )
        18           O   tau(  18) = (   0.5063794   0.2387265   0.9248530  )
        19           O   tau(  19) = (   0.7499995   0.0000000   0.9338544  )
        20           O   tau(  20) = (   0.2499998   0.0000000   0.9461329  )
        21           Cu  tau(  21) = (   0.0015717   0.0000000   0.9686860  )
        22           Cu  tau(  22) = (   0.4984280   0.0000000   0.9686860  )
        23           Ba  tau(  23) = (   0.2499998   0.2387265   1.2085224  )
        24           Ba  tau(  24) = (   0.7499995   0.2387265   1.2233294  )
        25           O   tau(  25) = (   0.0063772   0.0000000   1.2547537  )
        26           O   tau(  26) = (   0.4936224   0.0000000   1.2547537  )
        27           O   tau(  27) = (   0.5384045   0.2387265   1.4952521  )
        28           O   tau(  28) = (  -0.0384049   0.2387265   1.4952521  )
        29           Cu  tau(  29) = (   0.5006120   0.0000000   1.4952546  )
        30           Cu  tau(  30) = (  -0.0006123   0.0000000   1.4952546  )
        31           O   tau(  31) = (   0.4936212   0.0000000   1.7357531  )
        32           O   tau(  32) = (   0.0063785   0.0000000   1.7357531  )
        33           Ba  tau(  33) = (   0.7499995   0.2387265   1.7671824  )
        34           Ba  tau(  34) = (   0.2499998   0.2387265   1.7819920  )
        35           Cu  tau(  35) = (   0.4984280   0.0000000   2.9148119  )
        36           Cu  tau(  36) = (   0.0015717   0.0000000   2.9148119  )
        37           O   tau(  37) = (   0.2499998   0.0000000   2.9373701  )
        38           O   tau(  38) = (   0.7499995   0.0000000   2.9496397  )
        39           O   tau(  39) = (   0.5063781   0.2387265   2.9586449  )
        40           O   tau(  40) = (  -0.0063785   0.2387265   2.9586449  )
        41           Y   tau(  41) = (   0.7499995   0.2387265   3.1365384  )
        42           Ca  tau(  42) = (   0.2499998   0.2387265   3.1398080  )
        43           O   tau(  43) = (   0.7499995   0.0000000   3.3261059  )
        44           O   tau(  44) = (  -0.0083354   0.2387265   3.3265077  )
        45           O   tau(  45) = (   0.5083351   0.2387265   3.3265077  )
        46           O   tau(  46) = (   0.2499998   0.0000000   3.3493057  )
        47           Cu  tau(  47) = (   0.0019059   0.0000000   3.3626393  )
        48           Cu  tau(  48) = (   0.4980938   0.0000000   3.3626393  )
        49           Ba  tau(  49) = (   0.2499998   0.2387265   3.6079790  )
        50           Ba  tau(  50) = (   0.7499995   0.2387265   3.6085212  )
        51           O   tau(  51) = (  -0.0028895   0.0000000   3.6328283  )
        52           O   tau(  52) = (   0.5028891   0.0000000   3.6328283  )
        53           Cu  tau(  53) = (   0.5017844   0.0000000   3.8725129  )
        54           Cu  tau(  54) = (  -0.0017847   0.0000000   3.8725129  )
        55           O   tau(  55) = (   0.5008990   0.2387265   3.9057193  )
        56           O   tau(  56) = (  -0.0008994   0.2387265   3.9057193  )

     number of k points=    25  Gaussian smearing, width (Ry)=  0.0100
                       cart. coord. in units 2pi/alat
        k(    1) = (   0.0000000   0.0000000   0.0000000), wk =   0.0312500
        k(    2) = (   0.0000000   0.2618060   0.0000000), wk =   0.0625000
        k(    3) = (   0.0000000   0.5236121   0.0000000), wk =   0.0625000
        k(    4) = (   0.0000000   0.7854181   0.0000000), wk =   0.0625000
        k(    5) = (   0.0000000  -1.0472241   0.0000000), wk =   0.0312500
        k(    6) = (   0.1250000   0.0000000   0.0000000), wk =   0.0625000
        k(    7) = (   0.1250000   0.2618060   0.0000000), wk =   0.1250000
        k(    8) = (   0.1250000   0.5236121   0.0000000), wk =   0.1250000
        k(    9) = (   0.1250000   0.7854181   0.0000000), wk =   0.1250000
        k(   10) = (   0.1250000  -1.0472241   0.0000000), wk =   0.0625000
        k(   11) = (   0.2500000   0.0000000   0.0000000), wk =   0.0625000
        k(   12) = (   0.2500000   0.2618060   0.0000000), wk =   0.1250000
        k(   13) = (   0.2500000   0.5236121   0.0000000), wk =   0.1250000
        k(   14) = (   0.2500000   0.7854181   0.0000000), wk =   0.1250000
        k(   15) = (   0.2500000  -1.0472241   0.0000000), wk =   0.0625000
        k(   16) = (   0.3750000   0.0000000   0.0000000), wk =   0.0625000
        k(   17) = (   0.3750000   0.2618060   0.0000000), wk =   0.1250000
        k(   18) = (   0.3750000   0.5236121   0.0000000), wk =   0.1250000
        k(   19) = (   0.3750000   0.7854181   0.0000000), wk =   0.1250000
        k(   20) = (   0.3750000  -1.0472241   0.0000000), wk =   0.0625000
        k(   21) = (  -0.5000000   0.0000000   0.0000000), wk =   0.0312500
        k(   22) = (  -0.5000000   0.2618060   0.0000000), wk =   0.0625000
        k(   23) = (  -0.5000000   0.5236121   0.0000000), wk =   0.0625000
        k(   24) = (  -0.5000000   0.7854181   0.0000000), wk =   0.0625000
        k(   25) = (  -0.5000000  -1.0472241   0.0000000), wk =   0.0312500

     Dense  grid:  3296173 G-vectors     FFT dimensions: ( 128,  64, 864)

     Smooth grid:   634629 G-vectors     FFT dimensions: (  80,  36, 480)

     Estimated max dynamical RAM per process >     951.94 MB

     Estimated total dynamical RAM >      29.75 GB

     Initial potential from superposition of free atoms

     starting charge  455.69457, renormalised to  456.00000

     negative rho (up, down):  9.295E-02 0.000E+00
     Starting wfcs are  396 randomized atomic wfcs

     total cpu time spent up to now is       30.4 secs

     Self-consistent Calculation

     iteration #  1     ecut=    60.00 Ry     beta= 0.50
     Davidson diagonalization with overlap
     ethr =  1.00E-02,  avg # of iterations =  2.0

     negative rho (up, down):  8.615E-02 0.000E+00

     total cpu time spent up to now is       82.4 secs

     total energy              =   -3708.11740298 Ry
     Harris-Foulkes estimate   =   -3716.63419883 Ry
     estimated scf accuracy    <      39.83800487 Ry

     iteration #  2     ecut=    60.00 Ry     beta= 0.50
     Davidson diagonalization with overlap
     ethr =  8.74E-03,  avg # of iterations =  2.0

     negative rho (up, down):  8.600E-02 0.000E+00

     total cpu time spent up to now is      133.3 secs

     total energy              =   -3711.14423627 Ry
     Harris-Foulkes estimate   =   -3712.60827945 Ry
     estimated scf accuracy    <      13.39696938 Ry

     iteration #  3     ecut=    60.00 Ry     beta= 0.50
     Davidson diagonalization with overlap
     ethr =  2.94E-03,  avg # of iterations =  1.0

     negative rho (up, down):  8.640E-02 0.000E+00

     total cpu time spent up to now is      181.3 secs

     total energy              =   -3711.72557795 Ry
     Harris-Foulkes estimate   =   -3712.05195414 Ry
     estimated scf accuracy    <       9.26069826 Ry

     iteration #  4     ecut=    60.00 Ry     beta= 0.50
     Davidson diagonalization with overlap
     ethr =  2.03E-03,  avg # of iterations =  1.0

     negative rho (up, down):  8.686E-02 0.000E+00

     total cpu time spent up to now is      229.0 secs

     total energy              =   -3711.80239939 Ry
     Harris-Foulkes estimate   =   -3711.89596208 Ry
     estimated scf accuracy    <       6.98781285 Ry

     iteration #  5     ecut=    60.00 Ry     beta= 0.50
     Davidson diagonalization with overlap
     ethr =  1.53E-03,  avg # of iterations =  1.0

     negative rho (up, down):  8.824E-02 0.000E+00

     total cpu time spent up to now is      276.4 secs

     total energy              =   -3711.68078245 Ry
     Harris-Foulkes estimate   =   -3711.87884144 Ry
     estimated scf accuracy    <       4.96373281 Ry

     iteration #  6     ecut=    60.00 Ry     beta= 0.50
     Davidson diagonalization with overlap
     ethr =  1.09E-03,  avg # of iterations =  1.0

     negative rho (up, down):  8.939E-02 0.000E+00

     total cpu time spent up to now is      323.7 secs

     total energy              =   -3711.67158846 Ry
     Harris-Foulkes estimate   =   -3711.75139567 Ry
     estimated scf accuracy    <       2.59338948 Ry

     iteration #  7     ecut=    60.00 Ry     beta= 0.50
     Davidson diagonalization with overlap
     ethr =  5.69E-04,  avg # of iterations =  3.1

     negative rho (up, down):  9.019E-02 0.000E+00

     total cpu time spent up to now is      376.8 secs

     total energy              =   -3711.66070303 Ry
     Harris-Foulkes estimate   =   -3711.69862197 Ry
     estimated scf accuracy    <       0.92616647 Ry

     iteration #  8     ecut=    60.00 Ry     beta= 0.50
     Davidson diagonalization with overlap
     ethr =  2.03E-04,  avg # of iterations =  7.4

     negative rho (up, down):  9.106E-02 0.000E+00

     total cpu time spent up to now is      445.4 secs

     total energy              =   -3711.62904049 Ry
     Harris-Foulkes estimate   =   -3711.67427163 Ry
     estimated scf accuracy    <       0.99588323 Ry

     iteration #  9     ecut=    60.00 Ry     beta= 0.50
     Davidson diagonalization with overlap
     ethr =  2.03E-04,  avg # of iterations =  2.4

     negative rho (up, down):  9.125E-02 0.000E+00

     total cpu time spent up to now is      496.8 secs

     total energy              =   -3711.59366885 Ry
     Harris-Foulkes estimate   =   -3711.64313557 Ry
     estimated scf accuracy    <       1.16278849 Ry

     iteration # 10     ecut=    60.00 Ry     beta= 0.50
     Davidson diagonalization with overlap
     ethr =  2.03E-04,  avg # of iterations =  6.7

     negative rho (up, down):  9.104E-02 0.000E+00

     total cpu time spent up to now is      561.5 secs

     total energy              =   -3711.58548055 Ry
     Harris-Foulkes estimate   =   -3711.60540999 Ry
     estimated scf accuracy    <       0.46344016 Ry

     iteration # 11     ecut=    60.00 Ry     beta= 0.50
     Davidson diagonalization with overlap
     ethr =  1.02E-04,  avg # of iterations =  3.6

     negative rho (up, down):  9.365E-02 0.000E+00

     total cpu time spent up to now is      616.1 secs

     total energy              =   -3711.57254613 Ry
     Harris-Foulkes estimate   =   -3711.58987373 Ry
     estimated scf accuracy    <       0.36189253 Ry

     iteration # 12     ecut=    60.00 Ry     beta= 0.50
     Davidson diagonalization with overlap
     ethr =  7.94E-05,  avg # of iterations =  9.4

     negative rho (up, down):  1.065E-01 0.000E+00

     total cpu time spent up to now is      689.5 secs

     total energy              =   -3711.56842596 Ry
     Harris-Foulkes estimate   =   -3711.57705944 Ry
     estimated scf accuracy    <       0.18307941 Ry

     iteration # 13     ecut=    60.00 Ry     beta= 0.50
     Davidson diagonalization with overlap
     ethr =  4.01E-05,  avg # of iterations =  8.4

     negative rho (up, down):  9.959E-02 0.000E+00

     total cpu time spent up to now is      758.9 secs

     total energy              =   -3711.56989644 Ry
     Harris-Foulkes estimate   =   -3711.57216889 Ry
     estimated scf accuracy    <       0.08399759 Ry

     iteration # 14     ecut=    60.00 Ry     beta= 0.50
     Davidson diagonalization with overlap
     ethr =  1.84E-05,  avg # of iterations =  4.5

     negative rho (up, down):  1.023E-01 0.000E+00

     total cpu time spent up to now is      816.7 secs

     total energy              =   -3711.56957638 Ry
     Harris-Foulkes estimate   =   -3711.57101690 Ry
     estimated scf accuracy    <       0.02461694 Ry

     iteration # 15     ecut=    60.00 Ry     beta= 0.50
     Davidson diagonalization with overlap
     ethr =  5.40E-06,  avg # of iterations =  9.9

     negative rho (up, down):  9.853E-02 0.000E+00

     total cpu time spent up to now is      896.1 secs

     total energy              =   -3711.56930343 Ry
     Harris-Foulkes estimate   =   -3711.57012847 Ry
     estimated scf accuracy    <       0.01465870 Ry

     iteration # 16     ecut=    60.00 Ry     beta= 0.50
     Davidson diagonalization with overlap
     ethr =  3.21E-06,  avg # of iterations =  8.5

     negative rho (up, down):  9.652E-02 0.000E+00

     total cpu time spent up to now is      968.5 secs

     total energy              =   -3711.56912154 Ry
     Harris-Foulkes estimate   =   -3711.56947779 Ry
     estimated scf accuracy    <       0.00886522 Ry

     iteration # 17     ecut=    60.00 Ry     beta= 0.50
     Davidson diagonalization with overlap
     c_bands:  1 eigenvalues not converged
     ethr =  1.94E-06,  avg # of iterations =  5.4

     negative rho (up, down):  8.974E-02 0.000E+00

     total cpu time spent up to now is     1028.4 secs

     total energy              =   -3711.56857513 Ry
     Harris-Foulkes estimate   =   -3711.56917369 Ry
     estimated scf accuracy    <       0.00730577 Ry

     iteration # 18     ecut=    60.00 Ry     beta= 0.50
     Davidson diagonalization with overlap
     ethr =  1.60E-06,  avg # of iterations =  7.2

     negative rho (up, down):  8.977E-02 0.000E+00

     total cpu time spent up to now is     1096.8 secs

     total energy              =   -3711.56860681 Ry
     Harris-Foulkes estimate   =   -3711.56862691 Ry
     estimated scf accuracy    <       0.00907049 Ry

     iteration # 19     ecut=    60.00 Ry     beta= 0.50
     Davidson diagonalization with overlap
     ethr =  1.60E-06,  avg # of iterations =  3.0

     negative rho (up, down):  8.973E-02 0.000E+00

     total cpu time spent up to now is     1149.7 secs

     total energy              =   -3711.56775886 Ry
     Harris-Foulkes estimate   =   -3711.56862234 Ry
     estimated scf accuracy    <       0.00665160 Ry

     iteration # 20     ecut=    60.00 Ry     beta= 0.50
     Davidson diagonalization with overlap
     ethr =  1.46E-06,  avg # of iterations =  9.9

     negative rho (up, down):  8.967E-02 0.000E+00

     total cpu time spent up to now is     1227.5 secs

     total energy              =   -3711.56687218 Ry
     Harris-Foulkes estimate   =   -3711.56779770 Ry
     estimated scf accuracy    <       0.00687093 Ry

     iteration # 21     ecut=    60.00 Ry     beta= 0.50
     Davidson diagonalization with overlap
     ethr =  1.46E-06,  avg # of iterations =  6.7

     negative rho (up, down):  8.951E-02 0.000E+00

     total cpu time spent up to now is     1291.9 secs

     total energy              =   -3711.56619299 Ry
     Harris-Foulkes estimate   =   -3711.56690154 Ry
     estimated scf accuracy    <       0.00679229 Ry

     iteration # 22     ecut=    60.00 Ry     beta= 0.50
     Davidson diagonalization with overlap
     ethr =  1.46E-06,  avg # of iterations =  6.1

     negative rho (up, down):  9.095E-02 0.000E+00

     total cpu time spent up to now is     1355.2 secs

     total energy              =   -3711.56556042 Ry
     Harris-Foulkes estimate   =   -3711.56627355 Ry
     estimated scf accuracy    <       0.00428565 Ry

     iteration # 23     ecut=    60.00 Ry     beta= 0.50
     Davidson diagonalization with overlap
     c_bands:  1 eigenvalues not converged
     ethr =  9.40E-07,  avg # of iterations = 11.0

     negative rho (up, down):  9.536E-02 0.000E+00

     total cpu time spent up to now is     1439.0 secs

     total energy              =   -3711.56575972 Ry
     Harris-Foulkes estimate   =   -3711.56575590 Ry
     estimated scf accuracy    <       0.00442521 Ry

     iteration # 24     ecut=    60.00 Ry     beta= 0.50
     Davidson diagonalization with overlap
     c_bands:  1 eigenvalues not converged
     ethr =  9.40E-07,  avg # of iterations =  9.5

     negative rho (up, down):  9.361E-02 0.000E+00

     total cpu time spent up to now is     1513.3 secs

     total energy              =   -3711.56583954 Ry
     Harris-Foulkes estimate   =   -3711.56580785 Ry
     estimated scf accuracy    <       0.00189838 Ry

     iteration # 25     ecut=    60.00 Ry     beta= 0.50
     Davidson diagonalization with overlap
     ethr =  4.16E-07,  avg # of iterations =  6.6

     negative rho (up, down):  9.254E-02 0.000E+00

     total cpu time spent up to now is     1577.9 secs

     total energy              =   -3711.56590373 Ry
     Harris-Foulkes estimate   =   -3711.56585636 Ry
     estimated scf accuracy    <       0.00065455 Ry

     iteration # 26     ecut=    60.00 Ry     beta= 0.50
     Davidson diagonalization with overlap
     c_bands:  1 eigenvalues not converged
     ethr =  1.44E-07,  avg # of iterations =  5.7

     negative rho (up, down):  9.092E-02 0.000E+00

     total cpu time spent up to now is     1639.9 secs

     total energy              =   -3711.56591203 Ry
     Harris-Foulkes estimate   =   -3711.56591344 Ry
     estimated scf accuracy    <       0.00040014 Ry

     iteration # 27     ecut=    60.00 Ry     beta= 0.50
     Davidson diagonalization with overlap
     c_bands:  1 eigenvalues not converged
     ethr =  8.78E-08,  avg # of iterations =  8.6

     negative rho (up, down):  9.067E-02 0.000E+00

     total cpu time spent up to now is     1712.3 secs

     total energy              =   -3711.56595303 Ry
     Harris-Foulkes estimate   =   -3711.56591578 Ry
     estimated scf accuracy    <       0.00014469 Ry

     iteration # 28     ecut=    60.00 Ry     beta= 0.50
     Davidson diagonalization with overlap
     c_bands:  1 eigenvalues not converged
     ethr =  3.17E-08,  avg # of iterations =  5.2

     negative rho (up, down):  9.143E-02 0.000E+00

     total cpu time spent up to now is     1772.6 secs

     total energy              =   -3711.56595270 Ry
     Harris-Foulkes estimate   =   -3711.56595629 Ry
     estimated scf accuracy    <       0.00006857 Ry

     iteration # 29     ecut=    60.00 Ry     beta= 0.50
     Davidson diagonalization with overlap
     ethr =  1.50E-08,  avg # of iterations =  1.0

     negative rho (up, down):  9.174E-02 0.000E+00

     total cpu time spent up to now is     1820.2 secs

     total energy              =   -3711.56595236 Ry
     Harris-Foulkes estimate   =   -3711.56595421 Ry
     estimated scf accuracy    <       0.00002091 Ry

     iteration # 30     ecut=    60.00 Ry     beta= 0.50
     Davidson diagonalization with overlap
     ethr =  4.59E-09,  avg # of iterations =  2.0

     negative rho (up, down):  9.194E-02 0.000E+00

     total cpu time spent up to now is     1870.9 secs

     total energy              =   -3711.56595490 Ry
     Harris-Foulkes estimate   =   -3711.56595349 Ry
     estimated scf accuracy    <       0.00001516 Ry

     iteration # 31     ecut=    60.00 Ry     beta= 0.50
     Davidson diagonalization with overlap
     ethr =  3.32E-09,  avg # of iterations =  1.9

     negative rho (up, down):  9.209E-02 0.000E+00

     total cpu time spent up to now is     1920.6 secs

     total energy              =   -3711.56595520 Ry
     Harris-Foulkes estimate   =   -3711.56595542 Ry
     estimated scf accuracy    <       0.00000321 Ry

     iteration # 32     ecut=    60.00 Ry     beta= 0.50
     Davidson diagonalization with overlap
     ethr =  7.04E-10,  avg # of iterations =  2.2

     negative rho (up, down):  9.201E-02 0.000E+00

     total cpu time spent up to now is     1973.4 secs

     total energy              =   -3711.56595568 Ry
     Harris-Foulkes estimate   =   -3711.56595556 Ry
     estimated scf accuracy    <       0.00000079 Ry

     iteration # 33     ecut=    60.00 Ry     beta= 0.50
     Davidson diagonalization with overlap
     ethr =  1.74E-10,  avg # of iterations =  2.7

     negative rho (up, down):  9.203E-02 0.000E+00

     total cpu time spent up to now is     2028.7 secs

     total energy              =   -3711.56595565 Ry
     Harris-Foulkes estimate   =   -3711.56595578 Ry
     estimated scf accuracy    <       0.00000099 Ry

     iteration # 34     ecut=    60.00 Ry     beta= 0.50
     Davidson diagonalization with overlap
     ethr =  1.74E-10,  avg # of iterations =  1.0

     negative rho (up, down):  9.203E-02 0.000E+00

     total cpu time spent up to now is     2077.3 secs

     total energy              =   -3711.56595569 Ry
     Harris-Foulkes estimate   =   -3711.56595568 Ry
     estimated scf accuracy    <       0.00000022 Ry

     iteration # 35     ecut=    60.00 Ry     beta= 0.50
     Davidson diagonalization with overlap
     ethr =  4.92E-11,  avg # of iterations =  1.6

     negative rho (up, down):  9.204E-02 0.000E+00

     total cpu time spent up to now is     2127.0 secs

     total energy              =   -3711.56595571 Ry
     Harris-Foulkes estimate   =   -3711.56595570 Ry
     estimated scf accuracy    <       0.00000016 Ry

     iteration # 36     ecut=    60.00 Ry     beta= 0.50
     Davidson diagonalization with overlap
     ethr =  3.41E-11,  avg # of iterations =  1.0

     negative rho (up, down):  9.205E-02 0.000E+00

     total cpu time spent up to now is     2175.0 secs

     total energy              =   -3711.56595571 Ry
     Harris-Foulkes estimate   =   -3711.56595571 Ry
     estimated scf accuracy    <       0.00000003 Ry

     iteration # 37     ecut=    60.00 Ry     beta= 0.50
     Davidson diagonalization with overlap
     ethr =  6.21E-12,  avg # of iterations =  3.2

     negative rho (up, down):  9.205E-02 0.000E+00

     total cpu time spent up to now is     2230.5 secs

     total energy              =   -3711.56595571 Ry
     Harris-Foulkes estimate   =   -3711.56595571 Ry
     estimated scf accuracy    <       0.00000001 Ry

     iteration # 38     ecut=    60.00 Ry     beta= 0.50
     Davidson diagonalization with overlap
     ethr =  2.64E-12,  avg # of iterations =  2.7

     negative rho (up, down):  9.204E-02 0.000E+00

     total cpu time spent up to now is     2283.2 secs

     End of self-consistent calculation

          k = 0.0000 0.0000 0.0000 ( 79365 PWs)   bands (ev):

   -38.7224 -38.3548 -36.3524 -35.9487 -25.5315 -25.0622 -23.4958 -23.4678
   -23.3948 -23.3674 -23.3402 -23.2507 -19.1975 -19.0927 -18.8028 -18.7503
   -18.7259 -18.3656 -17.7002 -17.5642 -17.3824 -17.2711 -17.1874 -16.9884
   -16.1071 -16.0199 -15.8331 -15.8119 -15.6595 -15.6104 -15.3666 -15.2521
   -15.1863 -15.1802 -15.1774 -15.1432 -15.1336 -14.9851 -14.9515 -14.8731
   -14.7925 -14.7612 -14.6827 -14.6820 -14.6779 -14.6737 -14.6610 -14.6269
   -14.6100 -14.5893 -14.5169 -14.4148 -14.1418 -13.9078 -10.9442 -10.3744
   -10.2586 -10.2406  -9.8462  -9.8271  -8.7347  -8.7003  -8.6772  -8.6238
    -8.5964  -8.5876  -8.5451  -8.5199  -8.4070  -8.3926  -8.3798  -8.3105
    -8.2853  -8.2701  -8.2120  -8.1690  -8.1418  -8.0496  -3.6673  -3.6147
    -3.5183  -3.0317  -2.8762  -2.8524  -2.8372  -2.8309  -2.7633  -2.7564
    -2.7320  -2.5940  -2.5770  -2.5308  -2.5009  -2.4514  -2.4162  -2.3728
    -2.3523  -2.3260  -2.2737  -2.2266  -2.2150  -2.1404  -2.0710  -2.0590
    -2.0174  -1.9416  -1.8871  -1.8565  -1.8252  -1.7932  -1.7718  -1.6822
    -1.6228  -1.5983  -1.5980  -1.5977  -1.5965  -1.5629  -1.5616  -1.5568
    -1.5273  -1.4693  -1.4382  -1.3717  -1.3647  -1.3625  -1.2850  -1.2126
    -1.1546  -1.1360  -1.0586  -0.9323  -0.9260  -0.9055  -0.8807  -0.8786
    -0.8145  -0.8133  -0.8110  -0.8091  -0.8055  -0.8026  -0.6815  -0.6750
    -0.6538  -0.6377  -0.6199  -0.6001  -0.5964  -0.5845  -0.5554  -0.5286
    -0.5050  -0.5024  -0.5010  -0.4877  -0.4538  -0.4443  -0.4197  -0.4044
    -0.4033  -0.3657  -0.3640  -0.3303  -0.3021  -0.2991  -0.2858  -0.2635
    -0.2066  -0.1592  -0.0939  -0.0849  -0.0713  -0.0710  -0.0482   0.0062
     0.0173   0.0457   0.1352   0.1677   0.2589   0.2957   0.3210   0.3612
     0.3732   0.3806   0.3977   0.4036   0.4216   0.5150   0.5606   0.5694
     0.5698   0.5832   0.5924   0.6034   0.6035   0.6124   0.6788   0.6976
     0.7059   0.7155   0.7337   0.7617   0.7822   0.8208   0.8218   0.8420
     0.9465   1.0285   1.0372   1.0536   1.0625   1.0914   1.0974   1.1649
     1.1827   1.1876   1.2797   1.2814   1.3398   1.4080   1.4338   1.4569
     1.5401   1.5647   1.5921   1.6265   1.7089   1.7375   1.7417   1.9012
     1.9318   1.9546   1.9632   2.0617   2.2358   2.2709   2.7779   3.9757
     4.5690   4.6088   4.6164   4.6507   4.9958   5.2154   5.4034   5.8074
     5.9369   6.0167   6.0668   6.2787   6.4212   6.6513   6.6709   6.7335
     6.7469   6.7491   6.9784   7.2135   7.2620   7.3761   7.4031   7.4125
     7.5026   7.5054   7.5211   7.6899   7.8242   7.8416   7.8593   7.8603
     7.8921   8.0461

          k = 0.0000 0.2618 0.0000 ( 79361 PWs)   bands (ev):

   -38.7197 -38.3521 -36.3507 -35.9470 -25.5129 -25.0443 -23.4712 -23.4432
   -23.3712 -23.3483 -23.3211 -23.2320 -19.1588 -19.0855 -18.8368 -18.7640
   -18.7429 -18.4767 -17.6707 -17.5599 -17.4484 -17.2413 -17.1828 -17.0545
   -16.0008 -15.9481 -15.7689 -15.7407 -15.6036 -15.5537 -15.3253 -15.2495
   -15.1511 -15.1471 -15.1433 -15.1272 -15.0893 -14.9539 -14.9387 -14.8902
   -14.7881 -14.7507 -14.7449 -14.6822 -14.6663 -14.6539 -14.6517 -14.6304
   -14.6279 -14.6056 -14.4841 -14.4715 -14.1723 -13.9207 -10.9298 -10.3774
   -10.3096 -10.2818  -9.9777  -9.9066  -8.7276  -8.6942  -8.6871  -8.6379
    -8.6099  -8.5776  -8.5014  -8.4767  -8.4494  -8.4424  -8.4213  -8.4166
    -8.3763  -8.3719  -8.3497  -8.3110  -8.3103  -8.2640  -3.7705  -3.6945
    -3.5792  -3.0769  -2.9833  -2.9624  -2.9239  -2.8647  -2.8500  -2.8461
    -2.8209  -2.7640  -2.7442  -2.7382  -2.7195  -2.6664  -2.5676  -2.5641
    -2.4420  -2.3924  -2.3918  -2.3369  -2.3059  -2.2005  -2.1491  -2.1428
    -2.1087  -2.0558  -2.0435  -2.0414  -2.0121  -2.0113  -1.9983  -1.9718
    -1.9122  -1.8993  -1.8525  -1.8033  -1.6566  -1.5777  -1.5533  -1.4821
    -1.4676  -1.4581  -1.4090  -1.3882  -1.3565  -1.2523  -1.2522  -1.1990
    -1.1944  -1.1697  -1.1328  -1.0243  -1.0149  -0.9815  -0.9594  -0.9586
    -0.9505  -0.9032  -0.9015  -0.8335  -0.8282  -0.7726  -0.7599  -0.7597
    -0.6651  -0.6646  -0.6475  -0.6243  -0.6153  -0.6146  -0.5301  -0.5205
    -0.4691  -0.4686  -0.4524  -0.4473  -0.4401  -0.3862  -0.3430  -0.3378
    -0.3234  -0.2991  -0.2727  -0.2686  -0.2357  -0.2339  -0.1981  -0.1957
    -0.1954  -0.1624  -0.1604  -0.0435  -0.0227   0.0401   0.0401   0.0839
     0.0983   0.1236   0.1368   0.1844   0.2233   0.2501   0.2726   0.3342
     0.3494   0.3689   0.4076   0.4255   0.4337   0.5195   0.5449   0.5505
     0.5894   0.6034   0.6056   0.6215   0.7085   0.7175   0.7341   0.7343
     0.7501   0.7738   0.8490   0.8617   0.8629   0.8676   0.8712   0.8796
     0.9427   0.9438   0.9612   1.0836   1.1193   1.1206   1.1574   1.1885
     1.1946   1.2307   1.2320   1.2573   1.2994   1.3880   1.4014   1.4482
     1.6075   1.6996   1.7445   1.9324   2.0768   2.1588   2.1953   2.2030
     2.2562   2.2603   2.3416   2.4198   2.5441   2.7286   2.9462   4.3150
     4.6957   4.7577   4.9769   4.9936   5.0386   5.4649   5.5535   5.8196
     6.1538   6.3233   6.3698   6.4331   6.4878   6.5024   6.6225   6.7226
     6.9550   6.9752   7.0067   7.1325   7.1495   7.1682   7.3263   7.4770
     7.5811   7.6012   7.6935   7.7106   7.8119   7.8615   8.0332   8.0332
     8.0970   8.1170

          k = 0.0000 0.5236 0.0000 ( 79249 PWs)   bands (ev):

   -38.7132 -38.3455 -36.3465 -35.9429 -25.4674 -25.0005 -23.4107 -23.3826
   -23.3131 -23.3015 -23.2743 -23.1862 -19.0773 -19.0680 -19.0588 -18.7252
   -18.7214 -18.6596 -17.6017 -17.5871 -17.5494 -17.2078 -17.1718 -17.1568
   -15.7598 -15.7497 -15.6601 -15.5475 -15.4559 -15.4025 -15.3065 -15.2250
   -15.1967 -15.1315 -15.0992 -15.0694 -15.0628 -14.9068 -14.8781 -14.8731
   -14.8160 -14.7850 -14.7809 -14.7371 -14.6376 -14.6281 -14.6071 -14.5994
   -14.5967 -14.5965 -14.5792 -14.4016 -14.1945 -13.9437 -10.8900 -10.6736
   -10.4487 -10.3043 -10.1721  -9.9363  -8.9147  -8.8869  -8.8038  -8.7549
    -8.7300  -8.6907  -8.6574  -8.6429  -8.6199  -8.6188  -8.5912  -8.5439
    -8.5137  -8.4869  -8.3978  -8.3845  -8.3588  -8.2354  -4.1668  -4.0297
    -3.8221  -3.5274  -3.4500  -3.3999  -3.3877  -3.3083  -3.2647  -3.0851
    -3.0425  -2.9442  -2.8987  -2.8923  -2.8627  -2.8603  -2.8533  -2.8448
    -2.8420  -2.7144  -2.7108  -2.7040  -2.7031  -2.6315  -2.6145  -2.4588
    -2.4266  -2.4218  -2.3743  -2.3252  -2.2905  -2.2383  -2.1799  -2.0743
    -1.9061  -1.8803  -1.7535  -1.7207  -1.7190  -1.7184  -1.6372  -1.6016
    -1.5957  -1.4958  -1.4884  -1.4650  -1.4555  -1.4545  -1.4462  -1.3954
    -1.3380  -1.2828  -1.2595  -1.2227  -1.1907  -1.1589  -1.1536  -1.1370
    -1.1366  -1.1137  -1.0839  -1.0354  -0.9660  -0.9654  -0.9653  -0.9560
    -0.8927  -0.8830  -0.8702  -0.7681  -0.6727  -0.6157  -0.5796  -0.5676
    -0.4548  -0.4262  -0.4250  -0.4119  -0.3938  -0.3732  -0.3497  -0.3268
    -0.2517  -0.2218  -0.2186  -0.1485  -0.0799  -0.0368  -0.0349  -0.0086
     0.0142   0.0867   0.1499   0.1521   0.1875   0.2105   0.2124   0.2354
     0.2991   0.4134   0.4201   0.4317   0.4748   0.4968   0.5187   0.5354
     0.5825   0.6054   0.6092   0.6285   0.6416   0.6516   0.6695   0.6718
     0.6786   0.6931   0.7309   0.7820   0.7855   0.7906   0.8410   0.8950
     0.9130   0.9157   0.9406   0.9585   0.9625   0.9946   1.0129   1.0801
     1.0906   1.1025   1.1297   1.1324   1.1815   1.1975   1.2124   1.2400
     1.2873   1.3177   1.3577   1.4284   1.4394   1.4551   1.4564   1.5514
     1.6932   1.7648   1.7977   1.9825   2.4531   2.4609   2.4880   2.5080
     2.7414   2.7952   3.2008   3.2452   3.3130   3.3840   3.5768   4.5433
     4.9890   5.0235   5.2275   5.6875   5.8871   5.8923   6.0059   6.0138
     6.0273   6.3155   6.4594   6.5326   6.5438   6.7485   6.9238   7.1117
     7.1922   7.2210   7.2941   7.4748   7.6206   7.7233   7.8021   7.8151
     7.8637   7.9550   7.9807   8.0147   8.0592   8.1095   8.1502   8.1704
     8.3154   8.3490

          k = 0.0000 0.7854 0.0000 ( 79264 PWs)   bands (ev):

   -38.7067 -38.3390 -36.3424 -35.9388 -25.4210 -24.9557 -23.3483 -23.3201
   -23.2536 -23.2533 -23.2265 -23.1393 -19.2858 -19.0506 -18.9532 -18.9285
   -18.7075 -18.5550 -17.7232 -17.5391 -17.5142 -17.3327 -17.1610 -17.0789
   -15.5509 -15.5315 -15.4775 -15.4512 -15.4145 -15.2780 -15.2573 -15.2144
   -15.2097 -15.2064 -15.1317 -15.0435 -15.0062 -14.9953 -14.9199 -14.8512
   -14.7990 -14.7949 -14.7914 -14.7029 -14.6332 -14.6105 -14.5843 -14.5829
   -14.5533 -14.5519 -14.4559 -14.3140 -14.1777 -13.9446 -11.0507 -10.8397
   -10.6934 -10.3000 -10.2324  -9.8831  -9.3096  -9.2818  -9.1757  -9.0500
    -9.0249  -8.8846  -8.7014  -8.6884  -8.6622  -8.6246  -8.5953  -8.5829
    -8.5558  -8.5213  -8.4723  -8.2634  -8.2375  -8.1238  -4.6511  -4.4984
    -4.2254  -4.0659  -3.9192  -3.8613  -3.8129  -3.7174  -3.6229  -3.4731
    -3.4718  -3.4071  -3.4064  -3.2400  -3.2298  -3.2030  -3.0726  -2.9826
    -2.8678  -2.8590  -2.8216  -2.8203  -2.7903  -2.7544  -2.7495  -2.7475
    -2.7466  -2.5235  -2.4405  -2.3957  -2.3405  -2.2859  -2.1685  -2.1424
    -2.1092  -1.9441  -1.8842  -1.8445  -1.8180  -1.7686  -1.7484  -1.7135
    -1.7062  -1.6827  -1.6302  -1.6152  -1.6018  -1.5851  -1.5687  -1.5146
    -1.4990  -1.4328  -1.4092  -1.4020  -1.3696  -1.3564  -1.3556  -1.3447
    -1.3389  -1.3222  -1.2149  -1.2143  -1.1941  -1.1051  -1.0918  -0.9780
    -0.9734  -0.9510  -0.9376  -0.8648  -0.8253  -0.8194  -0.6289  -0.5789
    -0.4537  -0.4262  -0.4251  -0.3998  -0.3947  -0.3339  -0.3320  -0.3251
    -0.2713  -0.2325  -0.1562  -0.1051   0.0026   0.0373   0.1495   0.2395
     0.2467   0.2822   0.3404   0.3785   0.3925   0.4461   0.4462   0.4756
     0.5082   0.5091   0.5245   0.6334   0.6376   0.6407   0.6489   0.6971
     0.7014   0.7222   0.7525   0.7732   0.7769   0.7966   0.8395   0.8901
     0.9076   0.9093   0.9658   0.9896   1.0098   1.0700   1.0714   1.1063
     1.1168   1.1265   1.1329   1.1599   1.1748   1.1983   1.2175   1.2638
     1.2774   1.2781   1.2794   1.3181   1.3896   1.4102   1.4256   1.4396
     1.4766   1.4813   1.5336   1.6345   1.6348   1.6617   1.6724   1.7391
     1.8593   1.8602   1.8889   1.9896   2.3023   2.3070   2.4025   2.4226
     3.0056   3.1164   3.8456   3.8911   3.9025   3.9056   4.1682   4.2238
     5.1550   5.2902   5.4706   5.4889   5.4909   6.1077   6.1461   6.2467
     6.4567   6.7113   6.8117   6.8327   7.0182   7.0707   7.1946   7.3208
     7.6126   7.8231   7.8697   7.9512   8.0329   8.1184   8.1275   8.1843
     8.1868   8.2658   8.3464   8.3882   8.3969   8.4172   8.4706   8.4936
     8.6063   8.6094

          k = 0.0000-1.0472 0.0000 ( 79346 PWs)   bands (ev):

   -38.7040 -38.3363 -36.3407 -35.9370 -25.4015 -24.9368 -23.3219 -23.2936
   -23.2333 -23.2280 -23.2063 -23.1195 -19.3664 -19.0434 -19.0092 -18.9059
   -18.7002 -18.5074 -17.7736 -17.5349 -17.4785 -17.3830 -17.1565 -17.0425
   -15.5436 -15.5008 -15.4780 -15.3580 -15.2999 -15.2747 -15.2641 -15.1788
   -15.1453 -15.1421 -15.1086 -15.1002 -15.0559 -15.0099 -14.9910 -14.8865
   -14.8120 -14.8071 -14.7530 -14.6608 -14.6190 -14.6136 -14.5544 -14.5542
   -14.5356 -14.5348 -14.3694 -14.2760 -14.1964 -13.9293 -11.2033 -10.8146
   -10.8021 -10.3275 -10.2213  -9.8531  -9.4629  -9.4350  -9.3283  -9.1687
    -9.1435  -8.9906  -8.7154  -8.6906  -8.6676  -8.6186  -8.6105  -8.5883
    -8.5834  -8.5140  -8.4971  -8.2108  -8.1848  -8.0752  -4.8530  -4.7003
    -4.4123  -4.2720  -4.1244  -4.0180  -3.9744  -3.9075  -3.7677  -3.7070
    -3.7064  -3.6372  -3.6367  -3.3881  -3.2584  -3.2322  -3.1089  -3.0965
    -2.9171  -2.8775  -2.8713  -2.8582  -2.8437  -2.8368  -2.7646  -2.7415
    -2.7338  -2.5899  -2.5033  -2.4590  -2.4549  -2.2270  -2.1999  -2.0696
    -2.0247  -1.9754  -1.9322  -1.9294  -1.9134  -1.8926  -1.8499  -1.8052
    -1.7893  -1.7474  -1.6776  -1.6722  -1.6652  -1.6527  -1.5937  -1.5679
    -1.5639  -1.5216  -1.4599  -1.4596  -1.4469  -1.4448  -1.4446  -1.4318
    -1.3403  -1.3340  -1.3039  -1.3036  -1.2143  -1.1473  -1.1260  -1.0734
    -0.9848  -0.9724  -0.9714  -0.9329  -0.7892  -0.7857  -0.7036  -0.6475
    -0.5663  -0.4173  -0.4114  -0.3929  -0.3877  -0.3662  -0.3313  -0.3090
    -0.2867  -0.2360  -0.1592  -0.0486   0.0565   0.1593   0.2316   0.2683
     0.2729   0.2984   0.4310   0.4487   0.4808   0.4954   0.4987   0.5358
     0.6026   0.6075   0.6311   0.6361   0.6630   0.7267   0.7269   0.7451
     0.7603   0.7728   0.7842   0.8023   0.8189   0.8298   0.8548   0.9007
     0.9677   1.0103   1.0164   1.0670   1.0832   1.1465   1.1615   1.1982
     1.2033   1.2311   1.2997   1.3390   1.3412   1.3443   1.3567   1.3578
     1.3645   1.4141   1.4630   1.5087   1.5669   1.5778   1.5778   1.5917
     1.6097   1.6098   1.6103   1.6103   1.7017   1.7245   1.7339   1.8382
     1.8404   2.0226   2.0233   2.0705   2.0735   2.1278   2.2332   2.2532
     2.9959   3.1821   4.0212   4.0493   4.1070   4.1183   4.3642   4.5373
     4.7807   5.2357   5.2494   5.4033   5.7496   5.9907   6.0112   6.1719
     6.7014   6.8610   6.8707   7.2143   7.2291   7.4549   7.4638   7.6343
     7.7627   7.9497   8.0159   8.0264   8.0725   8.1798   8.2201   8.3320
     8.3353   8.3882   8.4091   8.4261   8.4440   8.4961   8.5151   8.6290
     8.6698   8.6968

          k = 0.1250 0.0000 0.0000 ( 79371 PWs)   bands (ev):

   -38.7224 -38.3548 -36.3524 -35.9487 -25.5309 -25.0630 -23.4913 -23.4633
   -23.3913 -23.3722 -23.3450 -23.2546 -19.1968 -19.0895 -18.8020 -18.7471
   -18.7259 -18.3656 -17.7031 -17.5762 -17.3824 -17.2744 -17.2001 -16.9884
   -16.0797 -16.0094 -15.8170 -15.8075 -15.6448 -15.5962 -15.3584 -15.2648
   -15.2258 -15.1924 -15.1620 -15.1539 -15.1419 -14.9600 -14.9534 -14.8849
   -14.7861 -14.7660 -14.6873 -14.6848 -14.6746 -14.6733 -14.6633 -14.6284
   -14.6065 -14.5947 -14.5218 -14.4244 -14.1403 -13.9070 -10.9467 -10.3905
   -10.2384 -10.2375  -9.8474  -9.8298  -8.7369  -8.7026  -8.6807  -8.6281
    -8.6008  -8.5956  -8.5312  -8.5060  -8.3987  -8.3780  -8.3714  -8.3171
    -8.2918  -8.2624  -8.2144  -8.1784  -8.1512  -8.0582  -3.6325  -3.5796
    -3.4857  -2.9960  -2.8827  -2.8498  -2.8328  -2.8319  -2.7821  -2.7725
    -2.7283  -2.5981  -2.5913  -2.5286  -2.5142  -2.4593  -2.4467  -2.3743
    -2.3688  -2.3599  -2.2583  -2.2250  -2.2074  -2.1379  -2.0607  -2.0545
    -2.0487  -1.9179  -1.8855  -1.8760  -1.8352  -1.8016  -1.7358  -1.6379
    -1.6300  -1.5997  -1.5969  -1.5960  -1.5951  -1.5950  -1.5868  -1.5377
    -1.5259  -1.4388  -1.4144  -1.3939  -1.3517  -1.3447  -1.2688  -1.2134
    -1.1309  -1.1009  -1.0384  -0.9915  -0.9582  -0.9050  -0.8637  -0.8634
    -0.8623  -0.8514  -0.8320  -0.8243  -0.8028  -0.7964  -0.7410  -0.6839
    -0.6525  -0.6426  -0.6261  -0.6080  -0.6059  -0.5826  -0.5613  -0.5609
    -0.5385  -0.5045  -0.4713  -0.4512  -0.4172  -0.4158  -0.4015  -0.4011
    -0.3928  -0.3657  -0.3649  -0.3516  -0.3071  -0.2954  -0.2584  -0.2471
    -0.1894  -0.1564  -0.0991  -0.0907  -0.0830  -0.0632  -0.0259  -0.0199
     0.0065   0.0411   0.1068   0.1906   0.2292   0.3035   0.3094   0.3304
     0.3488   0.3517   0.4011   0.4274   0.4279   0.4955   0.5300   0.5389
     0.5576   0.5577   0.5885   0.5960   0.6081   0.6172   0.6450   0.6481
     0.6886   0.7427   0.7594   0.7837   0.8158   0.8412   0.8688   0.8758
     0.9336   1.0143   1.0257   1.0538   1.1020   1.1024   1.1179   1.1777
     1.1836   1.1939   1.2426   1.2724   1.3004   1.4041   1.4204   1.4469
     1.5247   1.5917   1.6007   1.6279   1.6961   1.7367   1.7686   1.9001
     1.9327   1.9651   1.9737   2.0723   2.2303   2.2725   2.8177   4.0279
     4.2835   4.6497   4.6638   4.8830   5.0706   5.2721   5.4398   5.8182
     5.9833   6.0710   6.1206   6.2171   6.2881   6.2946   6.4853   6.7477
     6.9438   7.0646   7.1143   7.1184   7.2608   7.3206   7.3696   7.3927
     7.5066   7.5121   7.5424   7.6643   7.8161   7.8254   7.8606   7.8790
     7.9346   8.0446

          k = 0.1250 0.2618 0.0000 ( 79311 PWs)   bands (ev):

   -38.7197 -38.3521 -36.3507 -35.9470 -25.5123 -25.0450 -23.4669 -23.4389
   -23.3678 -23.3529 -23.3257 -23.2357 -19.1581 -19.0823 -18.8368 -18.7633
   -18.7398 -18.4767 -17.6735 -17.5713 -17.4483 -17.2444 -17.1949 -17.0544
   -15.9743 -15.9392 -15.7734 -15.7168 -15.5908 -15.5418 -15.3180 -15.2553
   -15.1610 -15.1607 -15.1491 -15.1330 -15.1174 -14.9461 -14.9221 -14.8931
   -14.7828 -14.7465 -14.7457 -14.6922 -14.6676 -14.6536 -14.6527 -14.6314
   -14.6306 -14.6040 -14.4943 -14.4783 -14.1698 -13.9193 -10.9310 -10.3887
   -10.3378 -10.2710  -9.9612  -9.8921  -8.7295  -8.6963  -8.6901  -8.6440
    -8.6161  -8.5838  -8.5573  -8.5315  -8.4848  -8.4584  -8.4121  -8.3867
    -8.3687  -8.3599  -8.3297  -8.3034  -8.2449  -8.2207  -3.7347  -3.6578
    -3.5441  -3.0397  -2.9921  -2.9666  -2.9326  -2.8577  -2.8486  -2.8380
    -2.8195  -2.7681  -2.7462  -2.7424  -2.7237  -2.6711  -2.5840  -2.5699
    -2.4479  -2.4256  -2.4191  -2.3932  -2.3099  -2.1902  -2.1598  -2.1338
    -2.1007  -2.0412  -2.0387  -2.0297  -2.0139  -2.0114  -1.9727  -1.9530
    -1.9075  -1.9051  -1.8552  -1.8467  -1.6501  -1.6002  -1.5480  -1.4804
    -1.4683  -1.4366  -1.3965  -1.3805  -1.3422  -1.2790  -1.2548  -1.2369
    -1.1996  -1.1680  -1.1552  -1.0602  -1.0042  -0.9957  -0.9952  -0.9667
    -0.9463  -0.9277  -0.9007  -0.8682  -0.7888  -0.7725  -0.7510  -0.7508
    -0.7013  -0.6616  -0.6443  -0.6292  -0.6181  -0.5917  -0.5554  -0.5177
    -0.4955  -0.4680  -0.4534  -0.4459  -0.4322  -0.3874  -0.3304  -0.3281
    -0.3168  -0.3130  -0.2851  -0.2498  -0.2368  -0.2368  -0.2035  -0.1911
    -0.1822  -0.1432  -0.1232  -0.0371  -0.0128   0.0120   0.0201   0.0334
     0.0889   0.1156   0.1350   0.1868   0.2309   0.2680   0.2770   0.3224
     0.3791   0.4004   0.4202   0.4367   0.4504   0.4916   0.5218   0.5630
     0.5664   0.5954   0.6052   0.6393   0.6533   0.7008   0.7289   0.7384
     0.7573   0.7745   0.7826   0.8014   0.8391   0.8750   0.9291   0.9422
     0.9591   0.9653   0.9705   1.0787   1.1134   1.1309   1.1505   1.1764
     1.1885   1.1950   1.2137   1.2292   1.3082   1.3203   1.5012   1.5333
     1.6706   1.6805   1.7624   2.0199   2.0806   2.1541   2.1945   2.2013
     2.2580   2.2638   2.3395   2.4160   2.5357   2.7287   2.9814   4.3619
     4.4034   4.9612   5.0266   5.0323   5.1144   5.5062   5.5927   5.8337
     6.1847   6.3213   6.3328   6.3748   6.3789   6.4236   6.6630   6.7280
     6.9676   6.9910   7.0435   7.1311   7.2216   7.2766   7.3087   7.3916
     7.5047   7.6086   7.6951   7.7167   7.8199   7.8932   7.9946   8.0410
     8.1068   8.1652

          k = 0.1250 0.5236 0.0000 ( 79264 PWs)   bands (ev):

   -38.7132 -38.3455 -36.3465 -35.9429 -25.4669 -25.0011 -23.4069 -23.3788
   -23.3101 -23.3054 -23.2783 -23.1893 -19.0773 -19.0649 -19.0582 -18.7223
   -18.7211 -18.6590 -17.6032 -17.5881 -17.5595 -17.2083 -17.1824 -17.1592
   -15.7454 -15.7355 -15.6619 -15.5287 -15.4487 -15.3977 -15.3044 -15.2199
   -15.1945 -15.1314 -15.0984 -15.0684 -15.0639 -14.9676 -14.8951 -14.8218
   -14.8165 -14.7810 -14.7788 -14.7385 -14.6363 -14.6275 -14.6091 -14.6056
   -14.5995 -14.5980 -14.5794 -14.4217 -14.1901 -13.9416 -10.8898 -10.6877
   -10.4486 -10.3040 -10.1807  -9.9157  -8.9484  -8.9212  -8.8264  -8.7099
    -8.6817  -8.6784  -8.6593  -8.6475  -8.6257  -8.5979  -8.5820  -8.5554
    -8.5538  -8.5436  -8.4641  -8.3325  -8.3065  -8.1959  -4.1313  -3.9938
    -3.7855  -3.5268  -3.4569  -3.4072  -3.3901  -3.2709  -3.2683  -3.0800
    -3.0376  -2.9415  -2.8998  -2.8928  -2.8646  -2.8594  -2.8520  -2.8454
    -2.8431  -2.7150  -2.7115  -2.7030  -2.7017  -2.6275  -2.5826  -2.4640
    -2.4307  -2.4246  -2.3696  -2.3401  -2.3173  -2.2987  -2.1721  -2.0748
    -1.8910  -1.8867  -1.8242  -1.7265  -1.7252  -1.7075  -1.6518  -1.6117
    -1.5994  -1.5059  -1.4906  -1.4889  -1.4615  -1.4582  -1.4376  -1.3765
    -1.3450  -1.3344  -1.2856  -1.2575  -1.2342  -1.1984  -1.1718  -1.1310
    -1.1301  -1.1040  -1.0784  -1.0383  -0.9796  -0.9750  -0.9525  -0.9496
    -0.9440  -0.8882  -0.8671  -0.7170  -0.6811  -0.6493  -0.5981  -0.5220
    -0.4658  -0.4500  -0.4376  -0.4141  -0.3949  -0.3718  -0.3542  -0.3026
    -0.2207  -0.2093  -0.1995  -0.1881  -0.0446  -0.0437  -0.0307   0.0216
     0.0387   0.0829   0.1043   0.1451   0.1751   0.2206   0.2277   0.2604
     0.3384   0.3963   0.4121   0.4431   0.4771   0.4916   0.5335   0.5349
     0.5604   0.5665   0.5934   0.5942   0.6205   0.6628   0.6874   0.6927
     0.7163   0.7347   0.7418   0.7809   0.7831   0.7945   0.8180   0.8365
     0.8667   0.9372   0.9395   0.9603   0.9606   0.9981   1.0258   1.0681
     1.0682   1.1101   1.1207   1.1700   1.1918   1.2087   1.2128   1.2432
     1.2632   1.3033   1.3643   1.4371   1.4454   1.4655   1.5850   1.6382
     1.6786   1.7841   1.8640   2.1165   2.4542   2.4622   2.4888   2.5112
     2.7412   2.7945   3.1685   3.2140   3.2844   3.4167   3.5506   4.5601
     4.7576   5.1894   5.3114   5.6738   5.9026   5.9080   6.0137   6.0278
     6.0531   6.3356   6.4795   6.5540   6.5704   6.7301   6.9072   7.0301
     7.2354   7.2670   7.3940   7.4772   7.5782   7.6661   7.7863   7.8000
     7.8347   7.8386   7.9269   8.0168   8.0777   8.1110   8.1348   8.1813
     8.2703   8.3143

          k = 0.1250 0.7854 0.0000 ( 79260 PWs)   bands (ev):

   -38.7067 -38.3390 -36.3424 -35.9388 -25.4206 -24.9562 -23.3451 -23.3168
   -23.2569 -23.2508 -23.2298 -23.1419 -19.2858 -19.0476 -18.9526 -18.9285
   -18.7045 -18.5545 -17.7232 -17.5484 -17.5163 -17.3327 -17.1708 -17.0813
   -15.5453 -15.5172 -15.4790 -15.4408 -15.3985 -15.2782 -15.2504 -15.2214
   -15.2006 -15.1922 -15.1325 -15.0530 -15.0031 -14.9958 -14.9168 -14.8501
   -14.8247 -14.8087 -14.7914 -14.6950 -14.6342 -14.6103 -14.5830 -14.5816
   -14.5541 -14.5528 -14.4611 -14.3307 -14.1749 -13.9458 -11.0356 -10.8396
   -10.6693 -10.3272 -10.2376  -9.8963  -9.2999  -9.2723  -9.1638  -9.0079
    -8.9826  -8.8474  -8.6996  -8.6882  -8.6617  -8.6300  -8.6256  -8.6021
    -8.5969  -8.5360  -8.4999  -8.2783  -8.2524  -8.1409  -4.6143  -4.4628
    -4.1914  -4.0624  -3.9212  -3.8755  -3.8251  -3.6850  -3.6322  -3.4705
    -3.4694  -3.4096  -3.4088  -3.2458  -3.2160  -3.1888  -3.0620  -2.9539
    -2.8707  -2.8574  -2.8233  -2.8191  -2.7678  -2.7534  -2.7441  -2.7312
    -2.7291  -2.5199  -2.4347  -2.3957  -2.3314  -2.2920  -2.2146  -2.1984
    -2.1196  -1.9454  -1.8740  -1.8587  -1.8353  -1.8019  -1.7652  -1.7485
    -1.7009  -1.6841  -1.6701  -1.6444  -1.6169  -1.5880  -1.5773  -1.5687
    -1.5467  -1.4346  -1.4227  -1.4160  -1.3826  -1.3512  -1.3485  -1.3420
    -1.3316  -1.3145  -1.2267  -1.2200  -1.2093  -1.1616  -1.0842  -0.9765
    -0.9573  -0.9421  -0.8997  -0.8578  -0.8359  -0.8298  -0.5686  -0.5167
    -0.4814  -0.4467  -0.4363  -0.3742  -0.3725  -0.3425  -0.2993  -0.2812
    -0.2681  -0.1942  -0.1887  -0.0598  -0.0401   0.0273   0.1057   0.1285
     0.2544   0.3096   0.3358   0.3747   0.3961   0.4283   0.4744   0.4867
     0.5175   0.5213   0.5456   0.6283   0.6563   0.6724   0.6746   0.6763
     0.6875   0.6994   0.7292   0.7595   0.7820   0.8013   0.8282   0.8888
     0.8937   0.9193   0.9484   0.9624   1.0143   1.0301   1.0753   1.0993
     1.1186   1.1312   1.1534   1.1736   1.2096   1.2144   1.2339   1.2533
     1.2652   1.2816   1.2834   1.3067   1.3718   1.4058   1.4357   1.4950
     1.5371   1.5528   1.5676   1.6343   1.6443   1.6557   1.6807   1.8360
     1.8520   1.8522   1.9542   2.0210   2.3041   2.3092   2.4072   2.4321
     3.0151   3.1156   3.7810   3.8285   3.8475   3.9415   4.1118   4.2409
     5.1036   5.2267   5.5270   5.5442   5.5617   6.1374   6.1784   6.2346
     6.4370   6.7360   6.7792   6.7999   6.9907   7.0886   7.1779   7.3429
     7.5602   7.7157   7.8495   7.9698   8.0007   8.0550   8.1295   8.1760
     8.2272   8.2419   8.3378   8.4139   8.4344   8.4483   8.5026   8.5230
     8.6222   8.6377

          k = 0.1250-1.0472 0.0000 ( 79350 PWs)   bands (ev):

   -38.7040 -38.3363 -36.3407 -35.9370 -25.4011 -24.9373 -23.3190 -23.2906
   -23.2364 -23.2258 -23.2094 -23.1219 -19.3664 -19.0404 -19.0091 -18.9054
   -18.6972 -18.5069 -17.7736 -17.5439 -17.4805 -17.3830 -17.1660 -17.0447
   -15.5324 -15.4893 -15.4665 -15.3409 -15.2934 -15.2717 -15.2628 -15.1664
   -15.1572 -15.1336 -15.1265 -15.1209 -15.0464 -15.0026 -14.9868 -14.8802
   -14.8183 -14.8090 -14.7706 -14.6627 -14.6484 -14.5916 -14.5537 -14.5536
   -14.5365 -14.5356 -14.3753 -14.2884 -14.1916 -13.9349 -11.1721 -10.8145
   -10.7792 -10.3584 -10.2212  -9.8846  -9.4327  -9.4048  -9.2992  -9.1382
    -9.1130  -8.9620  -8.7123  -8.6887  -8.6640  -8.6455  -8.6215  -8.6185
    -8.5913  -8.5462  -8.4979  -8.2546  -8.2287  -8.1158  -4.8150  -4.6642
    -4.3791  -4.2686  -4.1259  -4.0340  -3.9881  -3.8759  -3.7792  -3.7046
    -3.7043  -3.6399  -3.6393  -3.3955  -3.2416  -3.2148  -3.0829  -3.0827
    -2.8921  -2.8823  -2.8566  -2.8459  -2.8416  -2.8389  -2.7450  -2.7425
    -2.7327  -2.5858  -2.4729  -2.4517  -2.4233  -2.2201  -2.2133  -2.1010
    -2.0631  -2.0236  -1.9985  -1.9398  -1.9208  -1.9135  -1.8612  -1.8491
    -1.8300  -1.7624  -1.7418  -1.6879  -1.6709  -1.6590  -1.5743  -1.5674
    -1.5455  -1.5351  -1.5234  -1.4619  -1.4534  -1.4355  -1.4280  -1.4090
    -1.3649  -1.3484  -1.3136  -1.3098  -1.3008  -1.1387  -1.1023  -1.0761
    -0.9580  -0.9468  -0.9395  -0.9014  -0.8030  -0.7997  -0.6146  -0.5927
    -0.5221  -0.4473  -0.4436  -0.4323  -0.3368  -0.3323  -0.3126  -0.3105
    -0.2485  -0.2247  -0.1928   0.0020   0.0453   0.1290   0.1296   0.2025
     0.3008   0.3265   0.4213   0.4391   0.4623   0.5003   0.5078   0.5360
     0.5776   0.6139   0.6140   0.6147   0.6937   0.7052   0.7267   0.7313
     0.7731   0.7897   0.8163   0.8187   0.8238   0.8271   0.8351   0.9020
     0.9805   1.0038   1.0067   1.0440   1.0833   1.1295   1.2022   1.2121
     1.2176   1.2338   1.3289   1.3343   1.3459   1.3504   1.3592   1.3884
     1.3951   1.4622   1.4649   1.5191   1.5456   1.5610   1.5780   1.5884
     1.6022   1.6070   1.6122   1.6981   1.7225   1.7352   1.8449   1.8464
     1.8469   2.0154   2.0162   2.0745   2.0783   2.0930   2.2435   2.2706
     3.0104   3.1879   3.9696   4.0284   4.0389   4.0552   4.2939   4.5341
     4.8057   5.3037   5.3174   5.3876   5.7118   6.0252   6.0465   6.1638
     6.6202   6.8100   6.9136   7.1217   7.1371   7.4313   7.4752   7.5891
     7.6469   7.7994   8.0267   8.0633   8.0670   8.2393   8.3579   8.3696
     8.3897   8.3952   8.4426   8.4450   8.5125   8.5400   8.5760   8.6592
     8.7203   8.7500

          k = 0.2500 0.0000 0.0000 ( 79299 PWs)   bands (ev):

   -38.7224 -38.3548 -36.3524 -35.9487 -25.5294 -25.0649 -23.4787 -23.4505
   -23.3856 -23.3818 -23.3585 -23.2648 -19.1950 -19.0816 -18.8002 -18.7392
   -18.7259 -18.3656 -17.7102 -17.6044 -17.3824 -17.2823 -17.2300 -16.9884
   -16.0067 -15.9805 -15.8324 -15.7404 -15.6088 -15.5592 -15.3606 -15.3160
   -15.2632 -15.2199 -15.1825 -15.1637 -15.1352 -14.9478 -14.9257 -14.9142
   -14.7870 -14.7700 -14.6897 -14.6861 -14.6757 -14.6726 -14.6678 -14.6298
   -14.6077 -14.5964 -14.5369 -14.4494 -14.1372 -13.9048 -10.9526 -10.4176
   -10.2327 -10.1981  -9.8507  -9.8367  -8.7418  -8.7077  -8.6890  -8.6358
    -8.6112  -8.6085  -8.4982  -8.4730  -8.3751  -8.3476  -8.3443  -8.3362
    -8.3107  -8.2405  -8.2220  -8.2046  -8.1776  -8.0822  -3.5320  -3.4782
    -3.3932  -2.9036  -2.8954  -2.8694  -2.8411  -2.8364  -2.8172  -2.8072
    -2.7190  -2.6553  -2.5920  -2.5843  -2.5570  -2.5224  -2.4342  -2.4091
    -2.3790  -2.3782  -2.2479  -2.2344  -2.1668  -2.1322  -2.1311  -2.0573
    -2.0135  -1.9785  -1.8593  -1.8441  -1.8435  -1.7786  -1.6585  -1.6585
    -1.6401  -1.6201  -1.5954  -1.5934  -1.5918  -1.5893  -1.5514  -1.5415
    -1.4653  -1.4475  -1.4241  -1.3612  -1.2927  -1.2858  -1.2536  -1.2178
    -1.1031  -1.0971  -1.0657  -0.9767  -0.9766  -0.9615  -0.9554  -0.9166
    -0.8941  -0.8812  -0.8745  -0.8362  -0.8173  -0.7683  -0.7660  -0.6962
    -0.6693  -0.6464  -0.6373  -0.6261  -0.6216  -0.6192  -0.5958  -0.5814
    -0.5803  -0.5337  -0.4496  -0.4003  -0.3991  -0.3783  -0.3760  -0.3712
    -0.3651  -0.3503  -0.3403  -0.3309  -0.3192  -0.2850  -0.2427  -0.1717
    -0.1645  -0.1601  -0.1361  -0.1135  -0.1079  -0.0785  -0.0562   0.0045
     0.0318   0.0522   0.0674   0.1731   0.2465   0.2502   0.2504   0.3044
     0.3430   0.3457   0.3589   0.3942   0.4041   0.4511   0.4852   0.5105
     0.5256   0.5725   0.5935   0.6166   0.6178   0.6326   0.6385   0.6636
     0.6877   0.7022   0.7502   0.7922   0.8073   0.8988   0.9097   0.9099
     0.9144   0.9922   1.0063   1.0377   1.1047   1.1354   1.1394   1.1524
     1.1585   1.2088   1.2115   1.2591   1.3840   1.3862   1.4278   1.4600
     1.4849   1.5261   1.5774   1.6440   1.6684   1.7352   1.8972   1.9041
     1.9331   1.9915   2.0010   2.0893   2.2092   2.2693   2.9307   3.9534
     4.1834   4.7896   4.8007   5.0213   5.2076   5.4359   5.5441   5.8369
     5.9032   5.9080   6.1111   6.1379   6.2374   6.2809   6.6491   6.7376
     6.7669   6.8372   7.2084   7.2246   7.3503   7.3564   7.3760   7.3990
     7.5095   7.5426   7.6022   7.7073   7.7677   7.8281   7.8478   7.8981
     7.9368   7.9549

          k = 0.2500 0.2618 0.0000 ( 79282 PWs)   bands (ev):

   -38.7197 -38.3521 -36.3507 -35.9470 -25.5109 -25.0468 -23.4549 -23.4267
   -23.3656 -23.3588 -23.3386 -23.2453 -19.1565 -19.0745 -18.8368 -18.7615
   -18.7320 -18.4767 -17.6803 -17.5982 -17.4481 -17.2520 -17.2234 -17.0542
   -15.9155 -15.9020 -15.7867 -15.6540 -15.5594 -15.5111 -15.3078 -15.2822
   -15.2286 -15.1897 -15.1612 -15.1479 -15.1091 -14.9644 -14.8917 -14.8828
   -14.7712 -14.7493 -14.7449 -14.7049 -14.6715 -14.6589 -14.6526 -14.6373
   -14.6300 -14.5999 -14.5213 -14.4956 -14.1644 -13.9160 -10.9340 -10.4182
   -10.3755 -10.2658  -9.9254  -9.8602  -8.7358  -8.7033  -8.6975  -8.6643
    -8.6369  -8.6120  -8.6014  -8.5841  -8.5302  -8.5034  -8.4555  -8.4179
    -8.3133  -8.2867  -8.2704  -8.2442  -8.1818  -8.1599  -3.6311  -3.5525
    -3.4448  -3.0276  -2.9822  -2.9658  -2.9340  -2.8514  -2.8364  -2.8168
    -2.8160  -2.7731  -2.7683  -2.7438  -2.7354  -2.6820  -2.6312  -2.5827
    -2.5404  -2.5297  -2.4724  -2.4326  -2.3105  -2.1863  -2.1607  -2.1031
    -2.1006  -2.0396  -2.0359  -2.0218  -2.0176  -2.0126  -1.9927  -1.9222
    -1.8988  -1.8724  -1.8333  -1.8268  -1.6560  -1.6270  -1.5297  -1.5024
    -1.4565  -1.3976  -1.3851  -1.3596  -1.3423  -1.3328  -1.2930  -1.2753
    -1.2372  -1.2112  -1.1567  -1.1485  -1.1106  -1.0729  -1.0007  -0.9789
    -0.9300  -0.9130  -0.9027  -0.8295  -0.8083  -0.8023  -0.7678  -0.7277
    -0.7213  -0.6698  -0.6538  -0.6320  -0.6187  -0.6048  -0.5483  -0.5128
    -0.4958  -0.4938  -0.4703  -0.4517  -0.4233  -0.3896  -0.3275  -0.3030
    -0.2928  -0.2921  -0.2760  -0.2401  -0.2390  -0.2130  -0.1970  -0.1831
    -0.1645  -0.1448  -0.0954  -0.0540  -0.0307  -0.0225  -0.0074   0.0552
     0.0653   0.1084   0.1184   0.2039   0.2584   0.2995   0.3031   0.3107
     0.4073   0.4130   0.4459   0.4475   0.4715   0.5002   0.5042   0.5270
     0.5550   0.5567   0.5824   0.6184   0.6245   0.6734   0.7039   0.7083
     0.7242   0.7806   0.7970   0.8155   0.8317   0.8444   0.9096   0.9254
     0.9923   1.0433   1.0438   1.0460   1.0879   1.0952   1.1092   1.1410
     1.1658   1.1689   1.1895   1.2546   1.2644   1.3286   1.5592   1.6857
     1.6889   1.7941   1.8607   2.0907   2.1405   2.1893   2.1929   2.2066
     2.2637   2.2838   2.3294   2.3996   2.5038   2.7194   3.0838   4.0814
     4.4984   5.0641   5.1332   5.1386   5.2861   5.6212   5.7073   5.8645
     6.0394   6.0467   6.2628   6.2937   6.5383   6.5795   6.6741   6.8084
     6.8400   6.8600   6.9780   7.1787   7.2261   7.3306   7.4431   7.4559
     7.5334   7.5870   7.6333   7.7670   7.8624   7.8714   7.9859   8.0292
     8.0847   8.1657

          k = 0.2500 0.5236 0.0000 ( 79246 PWs)   bands (ev):

   -38.7132 -38.3455 -36.3466 -35.9429 -25.4657 -25.0025 -23.3964 -23.3681
   -23.3165 -23.3023 -23.2895 -23.1976 -19.0772 -19.0573 -19.0568 -18.7213
   -18.7145 -18.6576 -17.6077 -17.5905 -17.5828 -17.2123 -17.2050 -17.1648
   -15.7333 -15.6798 -15.6579 -15.4811 -15.4328 -15.3868 -15.2993 -15.2077
   -15.1874 -15.1314 -15.0965 -15.0831 -15.0713 -15.0418 -14.9026 -14.8147
   -14.7946 -14.7895 -14.7677 -14.7235 -14.6326 -14.6325 -14.6167 -14.6164
   -14.6052 -14.6009 -14.5801 -14.4707 -14.1820 -13.9370 -10.8893 -10.7058
   -10.4897 -10.3040 -10.1538  -9.8877  -8.9838  -8.9570  -8.8517  -8.7307
    -8.7040  -8.6938  -8.6675  -8.6611  -8.6306  -8.6029  -8.5812  -8.5499
    -8.5441  -8.5235  -8.4415  -8.2854  -8.2592  -8.1575  -4.0310  -3.8931
    -3.6847  -3.5346  -3.4749  -3.4334  -3.3963  -3.2820  -3.1700  -3.0630
    -3.0207  -2.9315  -2.9046  -2.8955  -2.8708  -2.8566  -2.8481  -2.8466
    -2.8447  -2.7225  -2.7170  -2.6998  -2.6972  -2.6101  -2.5591  -2.5059
    -2.4772  -2.4730  -2.4074  -2.3577  -2.3389  -2.2388  -2.1608  -2.0764
    -1.9802  -1.9177  -1.8663  -1.7319  -1.7314  -1.7056  -1.6886  -1.6393
    -1.6255  -1.5782  -1.5293  -1.5177  -1.5101  -1.4756  -1.4401  -1.4396
    -1.4348  -1.3995  -1.3402  -1.3225  -1.2282  -1.1872  -1.1591  -1.1516
    -1.1143  -1.1108  -1.0591  -1.0554  -1.0428  -0.9991  -0.9703  -0.9622
    -0.9165  -0.8810  -0.8330  -0.7229  -0.6878  -0.6779  -0.6540  -0.5667
    -0.5139  -0.4695  -0.4187  -0.3863  -0.3595  -0.3594  -0.3457  -0.2511
    -0.1925  -0.1828  -0.1712  -0.1314  -0.1106  -0.0612  -0.0534   0.0234
     0.0895   0.1220   0.1303   0.1919   0.2004   0.2525   0.2808   0.2875
     0.3619   0.3692   0.4344   0.4389   0.4586   0.4877   0.4953   0.4968
     0.5118   0.5158   0.5805   0.5984   0.6328   0.6378   0.6639   0.6953
     0.7158   0.7535   0.7590   0.7840   0.8079   0.8432   0.8558   0.8571
     0.8598   0.8815   0.9350   0.9424   0.9576   0.9764   1.0376   1.0495
     1.0594   1.0715   1.1129   1.1942   1.2053   1.2348   1.2408   1.2486
     1.2760   1.2893   1.3921   1.4122   1.4214   1.4521   1.5738   1.7223
     1.9053   1.9705   2.1213   2.3894   2.4567   2.4654   2.4935   2.5421
     2.7405   2.7924   3.0671   3.1155   3.1936   3.4668   3.5110   4.4121
     4.7230   5.2980   5.4532   5.6467   5.9432   5.9493   6.0316   6.0478
     6.1471   6.3930   6.5253   6.5982   6.6468   6.6827   6.8220   6.9938
     7.3005   7.3701   7.3982   7.4700   7.5055   7.6122   7.7094   7.7548
     7.7630   7.7967   7.8415   7.9887   8.0593   8.1166   8.1601   8.2093
     8.2180   8.3096

          k = 0.2500 0.7854 0.0000 ( 79284 PWs)   bands (ev):

   -38.7067 -38.3390 -36.3424 -35.9388 -25.4196 -24.9573 -23.3363 -23.3078
   -23.2661 -23.2443 -23.2392 -23.1488 -19.2857 -19.0402 -18.9514 -18.9284
   -18.6971 -18.5531 -17.7232 -17.5707 -17.5215 -17.3327 -17.1943 -17.0870
   -15.5343 -15.4846 -15.4767 -15.4122 -15.3505 -15.2891 -15.2433 -15.2306
   -15.1830 -15.1465 -15.1275 -15.0790 -14.9985 -14.9974 -14.9080 -14.9020
   -14.8482 -14.8179 -14.7904 -14.6961 -14.6410 -14.6036 -14.5795 -14.5781
   -14.5565 -14.5556 -14.4737 -14.3733 -14.1683 -13.9493 -10.9883 -10.8387
   -10.6237 -10.3910 -10.2402  -9.9383  -9.2600  -9.2326  -9.1214  -8.8988
    -8.8730  -8.7574  -8.7503  -8.7301  -8.6901  -8.6770  -8.6458  -8.6341
    -8.6300  -8.6032  -8.5127  -8.3345  -8.3085  -8.1981  -4.5116  -4.3649
    -4.1026  -4.0525  -3.9258  -3.9197  -3.8637  -3.6622  -3.6005  -3.4634
    -3.4625  -3.4167  -3.4154  -3.2641  -3.1719  -3.1430  -3.0281  -2.8824
    -2.8674  -2.8500  -2.8326  -2.8258  -2.7489  -2.7421  -2.6884  -2.6835
    -2.6708  -2.5197  -2.4478  -2.4069  -2.3976  -2.3717  -2.2743  -2.2200
    -2.0787  -2.0026  -1.9767  -1.9420  -1.8901  -1.8536  -1.8321  -1.8189
    -1.7844  -1.7423  -1.7175  -1.7009  -1.6848  -1.6431  -1.6049  -1.5783
    -1.5159  -1.4346  -1.4063  -1.3927  -1.3795  -1.3645  -1.3585  -1.3297
    -1.3274  -1.3070  -1.2945  -1.2466  -1.2276  -1.1278  -1.0784  -0.9941
    -0.9186  -0.9081  -0.8708  -0.8703  -0.8471  -0.8339  -0.6201  -0.5560
    -0.4974  -0.4039  -0.3764  -0.3520  -0.3099  -0.3001  -0.2566  -0.2173
    -0.1579  -0.1462  -0.1363  -0.1076  -0.0946  -0.0011   0.0664   0.0710
     0.2933   0.3163   0.3173   0.3723   0.3819   0.4230   0.4313   0.5396
     0.5498   0.5908   0.5961   0.6207   0.6346   0.6423   0.6703   0.6911
     0.7046   0.7377   0.7472   0.7575   0.7591   0.7968   0.8200   0.8799
     0.8862   0.9043   0.9223   0.9248   0.9658   0.9692   1.0500   1.0763
     1.1043   1.1280   1.1410   1.1772   1.2073   1.2134   1.2428   1.2431
     1.2561   1.2582   1.2837   1.2907   1.3501   1.3933   1.4300   1.4980
     1.5473   1.5955   1.6262   1.6691   1.6762   1.8270   1.8291   1.8666
     1.8939   1.9641   2.1096   2.2969   2.3098   2.3179   2.4402   2.5184
     3.0384   3.1125   3.5899   3.6428   3.6768   3.9429   4.0507   4.2877
     4.9343   5.1733   5.6576   5.6934   5.7009   6.1773   6.2278   6.2690
     6.3885   6.6687   6.6875   6.8081   6.8781   7.1215   7.2053   7.3734
     7.4498   7.5828   7.7966   7.9422   7.9742   7.9877   8.0343   8.1091
     8.1767   8.3108   8.3313   8.4236   8.5100   8.5429   8.5759   8.6347
     8.6625   8.6773

          k = 0.2500-1.0472 0.0000 ( 79252 PWs)   bands (ev):

   -38.7040 -38.3363 -36.3407 -35.9370 -25.4003 -24.9383 -23.3108 -23.2823
   -23.2448 -23.2198 -23.2180 -23.1282 -19.3663 -19.0331 -19.0090 -18.9042
   -18.6899 -18.5057 -17.7736 -17.5654 -17.4853 -17.3831 -17.1887 -17.0501
   -15.5002 -15.4564 -15.4330 -15.3204 -15.2725 -15.2615 -15.2483 -15.1984
   -15.1756 -15.1733 -15.1320 -15.0781 -15.0380 -14.9853 -14.9780 -14.8633
   -14.8498 -14.8205 -14.8033 -14.7039 -14.6423 -14.5817 -14.5521 -14.5514
   -14.5390 -14.5378 -14.3891 -14.3211 -14.1792 -13.9495 -11.0851 -10.8140
   -10.7168 -10.4445 -10.2208  -9.9680  -9.3459  -9.3181  -9.2164  -9.0495
    -9.0242  -8.8796  -8.7437  -8.7166  -8.7051  -8.6821  -8.6541  -8.6366
    -8.6302  -8.6000  -8.4999  -8.3748  -8.3490  -8.2269  -4.7097  -4.5650
    -4.2949  -4.2571  -4.1272  -4.0837  -4.0306  -3.8150  -3.7932  -3.6975
    -3.6975  -3.6477  -3.6464  -3.4184  -3.1886  -3.1598  -3.0410  -3.0061
    -2.8916  -2.8548  -2.8487  -2.8450  -2.8194  -2.7674  -2.7427  -2.7354
    -2.6716  -2.5779  -2.4440  -2.4002  -2.3520  -2.3015  -2.2602  -2.2174
    -2.1719  -2.1376  -2.1323  -2.0728  -2.0265  -1.9542  -1.8923  -1.8796
    -1.8520  -1.7990  -1.7455  -1.7255  -1.7178  -1.6650  -1.6513  -1.6169
    -1.5805  -1.5188  -1.4758  -1.4603  -1.4571  -1.4444  -1.4154  -1.4037
    -1.3731  -1.3529  -1.3325  -1.3174  -1.2707  -1.1251  -1.0972  -1.0832
    -0.9224  -0.9181  -0.8720  -0.8500  -0.8441  -0.8380  -0.6307  -0.5277
    -0.4951  -0.4353  -0.3900  -0.3760  -0.3276  -0.2747  -0.2740  -0.2616
    -0.1749  -0.1608  -0.1196  -0.0922   0.0153   0.0355   0.1276   0.1394
     0.3604   0.3808   0.4052   0.4076   0.4246   0.4527   0.5196   0.5697
     0.6138   0.6290   0.6312   0.6439   0.6469   0.6728   0.7357   0.7670
     0.7795   0.7842   0.7957   0.8122   0.8189   0.8306   0.8639   0.9057
     0.9685   0.9832   0.9836   0.9949   1.0518   1.1046   1.1262   1.1535
     1.1696   1.2277   1.2746   1.3056   1.3218   1.3232   1.3588   1.3689
     1.3775   1.4931   1.5149   1.5224   1.5315   1.5776   1.5785   1.5975
     1.6013   1.7167   1.7421   1.8067   1.8524   1.8642   1.8657   1.9849
     1.9939   1.9948   2.0049   2.0881   2.0901   2.1477   2.3184   2.4186
     3.0513   3.1975   3.7407   3.8013   3.8311   4.0869   4.1305   4.5219
     4.8753   5.3385   5.4955   5.5100   5.6107   6.1149   6.1446   6.1546
     6.4473   6.6647   6.8728   6.8884   7.0468   7.2907   7.3154   7.5317
     7.6340   7.6811   8.0538   8.0552   8.1817   8.3500   8.3588   8.4140
     8.4648   8.5167   8.5329   8.5795   8.6337   8.6434   8.6558   8.7748
     8.7778   8.7888

          k = 0.3750 0.0000 0.0000 ( 79356 PWs)   bands (ev):

   -38.7224 -38.3548 -36.3524 -35.9488 -25.5278 -25.0668 -23.4605 -23.4319
   -23.4045 -23.3779 -23.3702 -23.2770 -19.1933 -19.0736 -18.7983 -18.7312
   -18.7259 -18.3656 -17.7172 -17.6319 -17.3825 -17.2901 -17.2591 -16.9884
   -15.9419 -15.9127 -15.8570 -15.6582 -15.5896 -15.5184 -15.4157 -15.3337
   -15.2674 -15.2658 -15.2212 -15.1892 -15.0992 -14.9604 -14.9205 -14.8990
   -14.8258 -14.7533 -14.6926 -14.6820 -14.6784 -14.6722 -14.6715 -14.6238
   -14.6185 -14.5845 -14.5597 -14.4786 -14.1345 -13.9025 -10.9583 -10.4375
   -10.2269 -10.1653  -9.8548  -9.8437  -8.7458  -8.7119  -8.6972  -8.6416
    -8.6237  -8.6142  -8.4581  -8.4332  -8.3649  -8.3402  -8.3390  -8.3123
    -8.3078  -8.2421  -8.2358  -8.2156  -8.2084  -8.1165  -3.3769  -3.3233
    -3.2582  -3.0014  -2.9608  -2.9544  -2.8548  -2.7956  -2.7864  -2.7395
    -2.7333  -2.7090  -2.6793  -2.6489  -2.5768  -2.5144  -2.4187  -2.4080
    -2.3978  -2.3866  -2.3014  -2.2695  -2.1837  -2.1418  -2.1265  -2.1238
    -1.9548  -1.9292  -1.8738  -1.8104  -1.7978  -1.7179  -1.7016  -1.6951
    -1.6629  -1.5924  -1.5913  -1.5888  -1.5877  -1.5803  -1.5047  -1.4808
    -1.4599  -1.4583  -1.3589  -1.3213  -1.3178  -1.2314  -1.2063  -1.1980
    -1.1751  -1.1227  -1.0950  -1.0643  -1.0241  -0.9741  -0.9735  -0.9660
    -0.9177  -0.9075  -0.9004  -0.8299  -0.7670  -0.7316  -0.7284  -0.7211
    -0.7111  -0.7098  -0.6612  -0.6541  -0.6468  -0.6432  -0.6092  -0.6079
    -0.5575  -0.5483  -0.4724  -0.3940  -0.3924  -0.3885  -0.3801  -0.3787
    -0.3581  -0.3060  -0.2869  -0.2765  -0.2740  -0.2618  -0.2151  -0.2033
    -0.1631  -0.1516  -0.1357  -0.1188  -0.0882  -0.0748  -0.0351  -0.0231
    -0.0069   0.0768   0.0922   0.1648   0.2040   0.2166   0.2386   0.2472
     0.2524   0.3117   0.3857   0.3887   0.3950   0.4058   0.4810   0.5048
     0.5349   0.5442   0.5691   0.6271   0.6316   0.6375   0.6820   0.6974
     0.7175   0.7288   0.7525   0.7933   0.8060   0.8583   0.8701   0.8870
     0.8906   0.9706   0.9760   1.0144   1.0252   1.0654   1.1503   1.1879
     1.2029   1.2356   1.2926   1.3349   1.3390   1.3486   1.4078   1.4182
     1.4390   1.5407   1.6215   1.6310   1.6746   1.7471   1.8944   1.9202
     2.0323   2.0334   2.0428   2.0961   2.1663   2.2477   3.0991   3.6560
     4.4209   4.9837   4.9965   5.0038   5.2452   5.5559   5.5612   5.6742
     5.7035   5.9107   6.1983   6.2778   6.4238   6.4781   6.5367   6.5555
     6.6661   6.9303   6.9635   7.1983   7.2347   7.3466   7.3725   7.4836
     7.5123   7.5130   7.6617   7.7424   7.8171   7.8212   7.8308   7.8422
     7.9291   7.9516

          k = 0.3750 0.2618 0.0000 ( 79328 PWs)   bands (ev):

   -38.7197 -38.3521 -36.3507 -35.9470 -25.5095 -25.0486 -23.4377 -23.4090
   -23.3835 -23.3569 -23.3479 -23.2569 -19.1548 -19.0666 -18.8368 -18.7597
   -18.7241 -18.4767 -17.6870 -17.6245 -17.4480 -17.2595 -17.2510 -17.0541
   -15.8811 -15.8223 -15.7956 -15.5777 -15.5388 -15.4774 -15.3536 -15.3128
   -15.2349 -15.2301 -15.1863 -15.1670 -15.0881 -14.9879 -14.8696 -14.8603
   -14.7803 -14.7639 -14.7509 -14.6873 -14.6755 -14.6630 -14.6559 -14.6407
   -14.6255 -14.5948 -14.5555 -14.5152 -14.1601 -13.9126 -10.9372 -10.4481
   -10.4005 -10.2652  -9.8939  -9.8316  -8.7456  -8.7140  -8.7053  -8.6895
    -8.6628  -8.6385  -8.6249  -8.6097  -8.5538  -8.5266  -8.4730  -8.4516
    -8.2612  -8.2345  -8.2300  -8.2038  -8.1387  -8.1158  -3.4730  -3.3933
    -3.3005  -3.1210  -3.0521  -3.0277  -2.8523  -2.8324  -2.8065  -2.8060
    -2.7968  -2.7689  -2.7652  -2.7505  -2.7505  -2.6986  -2.6826  -2.6532
    -2.6458  -2.5872  -2.5126  -2.4393  -2.3097  -2.2412  -2.2069  -2.1188
    -2.0707  -2.0649  -2.0332  -2.0288  -2.0222  -2.0167  -2.0077  -1.8932
    -1.8520  -1.7905  -1.7247  -1.7217  -1.7173  -1.5999  -1.5323  -1.5162
    -1.4943  -1.4535  -1.4074  -1.3859  -1.3568  -1.3533  -1.3380  -1.2938
    -1.2462  -1.2452  -1.2427  -1.2209  -1.1231  -1.1178  -1.0098  -1.0027
    -0.9601  -0.9204  -0.8863  -0.8593  -0.8284  -0.7797  -0.7705  -0.7453
    -0.6922  -0.6861  -0.6822  -0.6444  -0.6134  -0.5683  -0.5448  -0.5106
    -0.5086  -0.4839  -0.4726  -0.4349  -0.4274  -0.4203  -0.3464  -0.2868
    -0.2612  -0.2539  -0.2504  -0.2498  -0.2264  -0.2207  -0.2008  -0.1687
    -0.1553  -0.1429  -0.0988  -0.0979  -0.0231   0.0136   0.0166   0.0398
     0.0769   0.0867   0.1280   0.2638   0.2773   0.3097   0.3419   0.3428
     0.3830   0.3965   0.3992   0.4240   0.4476   0.4888   0.4898   0.4966
     0.5262   0.6044   0.6119   0.6194   0.6256   0.6507   0.6673   0.7014
     0.7094   0.7735   0.7912   0.8142   0.8538   0.8881   0.8895   0.9315
     0.9436   0.9784   1.0143   1.0143   1.0585   1.1199   1.1397   1.1460
     1.1533   1.1658   1.1712   1.2756   1.2850   1.3463   1.4297   1.7022
     1.8664   1.9350   2.0632   2.0966   2.1267   2.1723   2.1735   2.2744
     2.2746   2.3078   2.3647   2.4243   2.4362   2.6819   3.2411   3.7889
     4.7072   5.1205   5.2816   5.2982   5.3033   5.7594   5.7612   5.7667
     5.8885   5.9505   6.2902   6.3939   6.5153   6.6268   6.6399   6.7946
     6.8258   6.9381   6.9895   7.0754   7.2813   7.3552   7.4265   7.4332
     7.5124   7.6018   7.6404   7.7359   7.8566   7.9378   7.9488   8.0151
     8.0597   8.1300

          k = 0.3750 0.5236 0.0000 ( 79235 PWs)   bands (ev):

   -38.7132 -38.3455 -36.3466 -35.9429 -25.4645 -25.0040 -23.3816 -23.3528
   -23.3318 -23.3053 -23.2930 -23.2074 -19.0770 -19.0554 -19.0497 -18.7211
   -18.7068 -18.6561 -17.6129 -17.6077 -17.5901 -17.2339 -17.2098 -17.1700
   -15.7169 -15.6829 -15.5779 -15.4273 -15.4256 -15.3789 -15.2933 -15.2097
   -15.1739 -15.1432 -15.1319 -15.0946 -15.0875 -15.0532 -14.9081 -14.8199
   -14.7997 -14.7765 -14.7567 -14.7014 -14.6469 -14.6276 -14.6275 -14.6137
   -14.6102 -14.6070 -14.5810 -14.5263 -14.1760 -13.9329 -10.8883 -10.7008
   -10.5666 -10.3040 -10.0923  -9.8819  -8.9819  -8.9552  -8.8448  -8.8443
    -8.8180  -8.7103  -8.6930  -8.6601  -8.6507  -8.6256  -8.5975  -8.5444
    -8.4390  -8.4127  -8.3318  -8.2883  -8.2619  -8.1615  -3.8861  -3.7504
    -3.5939  -3.5536  -3.4928  -3.4753  -3.4025  -3.3157  -3.0429  -3.0301
    -2.9875  -2.9226  -2.9075  -2.9048  -2.8865  -2.8571  -2.8461  -2.8381
    -2.8368  -2.7599  -2.7448  -2.6948  -2.6895  -2.6671  -2.6384  -2.6147
    -2.5439  -2.4280  -2.3549  -2.3021  -2.2280  -2.1793  -2.1714  -2.1160
    -2.0314  -1.9779  -1.8968  -1.8522  -1.7873  -1.7716  -1.7319  -1.6833
    -1.6701  -1.6643  -1.6382  -1.5480  -1.5144  -1.5032  -1.4583  -1.4520
    -1.4402  -1.3810  -1.3449  -1.3181  -1.3006  -1.2346  -1.2039  -1.1507
    -1.0926  -1.0884  -1.0693  -1.0542  -1.0302  -1.0225  -0.9865  -0.9487
    -0.8861  -0.8712  -0.8195  -0.7756  -0.7254  -0.7000  -0.6557  -0.6185
    -0.5804  -0.4554  -0.4036  -0.3809  -0.3726  -0.3556  -0.3125  -0.2164
    -0.2056  -0.1394  -0.1071  -0.0992  -0.0922  -0.0430  -0.0306   0.0504
     0.0659   0.1228   0.1874   0.2668   0.2847   0.2916   0.3154   0.3165
     0.3475   0.3585   0.3975   0.4415   0.4443   0.4580   0.4643   0.4691
     0.5091   0.5113   0.5293   0.5295   0.6241   0.6509   0.6642   0.6907
     0.7116   0.7282   0.7780   0.7874   0.8203   0.8314   0.8341   0.8691
     0.9188   0.9228   0.9354   0.9470   0.9560   0.9904   0.9932   1.0302
     1.0490   1.0915   1.1341   1.1929   1.2062   1.2467   1.2653   1.2831
     1.2899   1.2958   1.3812   1.3817   1.4266   1.4321   1.4819   1.6647
     2.2589   2.3032   2.4065   2.4602   2.4668   2.5015   2.5353   2.7411
     2.7837   2.7883   2.8899   2.9411   3.0316   3.3139   3.6536   4.1602
     4.8386   5.4059   5.4613   5.6693   5.9913   6.0002   6.0452   6.0603
     6.2985   6.4723   6.5511   6.5940   6.6328   6.7304   6.8031   6.9788
     7.0565   7.3760   7.4759   7.5479   7.5728   7.5749   7.6077   7.7108
     7.7315   7.7585   7.8434   7.9365   8.0131   8.1436   8.1603   8.2104
     8.2625   8.3509

          k = 0.3750 0.7854 0.0000 ( 79296 PWs)   bands (ev):

   -38.7067 -38.3390 -36.3424 -35.9388 -25.4187 -24.9585 -23.3240 -23.2951
   -23.2787 -23.2523 -23.2366 -23.1567 -19.2857 -19.0327 -18.9501 -18.9283
   -18.6896 -18.5518 -17.7231 -17.5928 -17.5266 -17.3327 -17.2175 -17.0927
   -15.5216 -15.4914 -15.4272 -15.3713 -15.3224 -15.2795 -15.2785 -15.1993
   -15.1595 -15.1209 -15.1071 -15.0903 -15.0219 -15.0003 -14.9563 -14.8959
   -14.8922 -14.7937 -14.7873 -14.7208 -14.6426 -14.5967 -14.5746 -14.5734
   -14.5599 -14.5598 -14.4839 -14.4234 -14.1615 -13.9538 -10.9124 -10.8347
   -10.6505 -10.4003 -10.2353 -10.0018  -9.1786  -9.1514  -9.0429  -8.9062
    -8.8793  -8.7679  -8.7537  -8.7276  -8.6930  -8.6687  -8.6388  -8.6362
    -8.6121  -8.6105  -8.5141  -8.4395  -8.4134  -8.2958  -4.3698  -4.2324
    -4.0613  -4.0046  -3.9805  -3.9328  -3.9112  -3.7165  -3.5006  -3.4527
    -3.4519  -3.4274  -3.4246  -3.2960  -3.0927  -3.0614  -2.9723  -2.8890
    -2.8704  -2.8530  -2.8328  -2.7431  -2.7333  -2.7256  -2.6469  -2.6024
    -2.5655  -2.5559  -2.5546  -2.5357  -2.4790  -2.3455  -2.2436  -2.2120
    -2.2088  -2.1079  -2.0837  -2.0765  -1.9981  -1.9781  -1.8744  -1.8523
    -1.8246  -1.7836  -1.7258  -1.7042  -1.6956  -1.6772  -1.6241  -1.6221
    -1.5315  -1.4335  -1.4096  -1.3984  -1.3662  -1.3411  -1.3123  -1.3110
    -1.3039  -1.2827  -1.2655  -1.2570  -1.2200  -1.1189  -1.0945  -1.0230
    -0.9289  -0.9230  -0.9061  -0.8888  -0.8363  -0.7609  -0.6596  -0.6281
    -0.5136  -0.3880  -0.3693  -0.3672  -0.3246  -0.2689  -0.2450  -0.2107
    -0.1370  -0.0576  -0.0497  -0.0134   0.0118   0.0244   0.0528   0.2178
     0.2392   0.2586   0.3412   0.3576   0.3948   0.4023   0.4738   0.4748
     0.5273   0.5469   0.5756   0.5972   0.6467   0.6706   0.7031   0.7298
     0.7518   0.7647   0.7706   0.7940   0.8082   0.8106   0.8331   0.8408
     0.8514   0.8777   0.8843   0.9164   0.9202   0.9698   1.0226   1.0346
     1.0721   1.0797   1.1293   1.1783   1.1865   1.1893   1.2088   1.2105
     1.2408   1.2516   1.2909   1.2941   1.3371   1.3772   1.4113   1.4508
     1.4733   1.5949   1.6500   1.7063   1.7107   1.7774   1.7922   1.7961
     2.2472   2.2596   2.3143   2.3242   2.4225   2.5332   2.6493   2.8755
     3.0623   3.1048   3.2842   3.3426   3.4027   3.6662   4.2058   4.3485
     4.7312   5.1253   5.7563   5.9196   5.9335   6.0999   6.2988   6.3603
     6.3749   6.4840   6.4994   6.7761   6.9219   7.0221   7.1927   7.3611
     7.4720   7.5729   7.7158   7.8477   7.9369   8.0223   8.0350   8.0708
     8.1303   8.2637   8.2800   8.3279   8.4153   8.5422   8.6058   8.7045
     8.7568   8.8049

          k = 0.3750-1.0472 0.0000 ( 79290 PWs)   bands (ev):

   -38.7040 -38.3363 -36.3407 -35.9371 -25.3994 -24.9394 -23.2998 -23.2707
   -23.2562 -23.2299 -23.2128 -23.1354 -19.3662 -19.0257 -19.0089 -18.9030
[...]
    -2.0729  -2.0621  -2.0360  -2.0289  -2.0244  -2.0240  -2.0158  -1.8847
    -1.8208  -1.7606  -1.6817  -1.6801  -1.6303  -1.5665  -1.5580  -1.5401
    -1.4871  -1.4854  -1.4810  -1.4383  -1.4339  -1.4092  -1.3656  -1.2895
    -1.2713  -1.2113  -1.2080  -1.1669  -1.1307  -1.1132  -1.1098  -1.0392
    -0.9699  -0.9184  -0.8691  -0.8643  -0.8241  -0.8110  -0.7366  -0.7348
    -0.7202  -0.6985  -0.6383  -0.6375  -0.6085  -0.5878  -0.5399  -0.5202
    -0.5010  -0.4849  -0.4806  -0.4501  -0.4260  -0.3940  -0.3915  -0.2812
    -0.2574  -0.2560  -0.2393  -0.2315  -0.2065  -0.2030  -0.1847  -0.1618
    -0.1541  -0.1402  -0.1166  -0.1054  -0.0582   0.0219   0.0348   0.0624
     0.0821   0.0832   0.1513   0.2754   0.3149   0.3201   0.3336   0.3464
     0.3539   0.3979   0.4021   0.4222   0.4301   0.4357   0.4381   0.4811
     0.5317   0.6150   0.6284   0.6306   0.6408   0.6713   0.6866   0.6953
     0.7552   0.7812   0.7836   0.8019   0.8072   0.8461   0.9218   0.9260
     0.9424   0.9550   0.9704   0.9705   1.0730   1.1354   1.1488   1.1517
     1.1657   1.1764   1.1887   1.2921   1.3107   1.3192   1.3504   1.6948
     1.9675   2.0268   2.0626   2.1358   2.1438   2.1536   2.1886   2.2879
     2.2926   2.2934   2.3345   2.3657   2.5329   2.6291   3.3744   3.6102
     4.9013   5.0290   5.2456   5.5016   5.5070   5.5190   5.5243   5.8216
     6.0454   6.0939   6.1867   6.4509   6.4509   6.4925   6.6097   6.8004
     7.0208   7.0687   7.1166   7.1343   7.1387   7.1708   7.3236   7.4294
     7.4982   7.5619   7.6521   7.7263   7.8838   7.9287   7.9780   8.0450
     8.0948   8.2537

          k =-0.5000 0.5236 0.0000 ( 79254 PWs)   bands (ev):

   -38.7132 -38.3455 -36.3466 -35.9429 -25.4640 -25.0046 -23.3715 -23.3421
   -23.3417 -23.3166 -23.2884 -23.2122 -19.0770 -19.0548 -19.0464 -18.7210
   -18.7036 -18.6555 -17.6178 -17.6145 -17.5905 -17.2440 -17.2106 -17.1721
   -15.7034 -15.6938 -15.5209 -15.4374 -15.3976 -15.3819 -15.2891 -15.2343
   -15.1620 -15.1501 -15.1347 -15.1031 -15.0939 -15.0541 -14.9091 -14.8342
   -14.7734 -14.7711 -14.7708 -14.6921 -14.6441 -14.6336 -14.6245 -14.6144
   -14.6130 -14.6102 -14.5814 -14.5550 -14.1738 -13.9313 -10.8878 -10.6812
   -10.6162 -10.3039 -10.0592  -9.8872  -8.9479  -8.9209  -8.9188  -8.8929
    -8.8117  -8.7758  -8.6925  -8.6595  -8.6559  -8.6251  -8.5969  -8.5445
    -8.3491  -8.3381  -8.3229  -8.3114  -8.2671  -8.1883  -3.7614  -3.6843
    -3.6200  -3.5855  -3.5046  -3.4338  -3.3808  -3.3807  -2.9925  -2.9654
    -2.9541  -2.9527  -2.9174  -2.9161  -2.8836  -2.8675  -2.8334  -2.8134
    -2.8115  -2.8111  -2.8006  -2.7535  -2.6892  -2.6814  -2.6672  -2.6579
    -2.4584  -2.4204  -2.3581  -2.3486  -2.1487  -2.1363  -2.0934  -2.0546
    -2.0232  -2.0130  -1.9825  -1.9601  -1.9264  -1.9054  -1.7350  -1.6817
    -1.6750  -1.6566  -1.5634  -1.5574  -1.5385  -1.5015  -1.4776  -1.4649
    -1.4453  -1.4130  -1.3471  -1.3147  -1.3099  -1.2560  -1.2229  -1.1557
    -1.0750  -1.0662  -1.0639  -1.0622  -1.0572  -0.9996  -0.9728  -0.9490
    -0.9140  -0.8653  -0.8300  -0.7789  -0.7291  -0.7258  -0.6297  -0.6103
    -0.5862  -0.5431  -0.4019  -0.3881  -0.3821  -0.3641  -0.2743  -0.1561
    -0.1544  -0.1437  -0.1430  -0.1076  -0.0288  -0.0233  -0.0034   0.0343
     0.0523   0.1617   0.1802   0.2833   0.3086   0.3147   0.3178   0.3515
     0.3630   0.3807   0.3842   0.4231   0.4256   0.4476   0.4492   0.4530
     0.4531   0.4801   0.5259   0.5693   0.6250   0.6282   0.6294   0.7135
     0.7282   0.7482   0.7780   0.7844   0.8018   0.8200   0.8429   0.8684
     0.8698   0.9307   0.9392   0.9450   0.9742   0.9758   0.9771   1.0876
     1.1113   1.1137   1.1286   1.1817   1.2045   1.2115   1.2668   1.3042
     1.3320   1.3347   1.3401   1.3418   1.3713   1.4397   1.4840   1.6330
     2.4273   2.4386   2.4572   2.4674   2.6017   2.6506   2.6587   2.6946
     2.7221   2.7833   2.7945   2.8342   3.0443   3.1175   3.7700   4.0044
     4.9042   5.3979   5.4940   5.6815   6.0182   6.0314   6.0448   6.0563
     6.4654   6.4692   6.5258   6.5797   6.5955   6.7582   6.8169   6.9319
     7.0228   7.3375   7.3940   7.5376   7.5688   7.6659   7.6763   7.6944
     7.6954   7.7110   7.8630   7.9872   8.0361   8.1319   8.1524   8.2654
     8.2898   8.3189

          k =-0.5000 0.7854 0.0000 ( 79278 PWs)   bands (ev):

   -38.7067 -38.3390 -36.3425 -35.9388 -25.4183 -24.9590 -23.3162 -23.2866
   -23.2864 -23.2611 -23.2330 -23.1605 -19.2856 -19.0296 -18.9496 -18.9283
   -18.6865 -18.5512 -17.7231 -17.6019 -17.5287 -17.3326 -17.2271 -17.0951
   -15.5135 -15.4973 -15.3866 -15.3578 -15.3268 -15.3226 -15.2346 -15.1623
   -15.1575 -15.1400 -15.1018 -15.0677 -15.0564 -15.0119 -14.9441 -14.9328
   -14.8893 -14.7852 -14.7662 -14.7498 -14.6416 -14.5944 -14.5710 -14.5704
   -14.5633 -14.5621 -14.4832 -14.4510 -14.1586 -13.9560 -10.8644 -10.8132
   -10.7186 -10.3763 -10.2280 -10.0407  -9.0746  -9.0466  -9.0361  -9.0102
    -8.9636  -8.8693  -8.6909  -8.6723  -8.6570  -8.6396  -8.6295  -8.5782
    -8.5776  -8.5521  -8.5509  -8.5330  -8.4946  -8.3835  -4.2712  -4.1411
    -4.1036  -4.0202  -3.9963  -3.9653  -3.8548  -3.7721  -3.4541  -3.4405
    -3.4403  -3.4395  -3.4267  -3.3228  -3.0129  -2.9849  -2.9355  -2.9331
    -2.8990  -2.8951  -2.7726  -2.7571  -2.7094  -2.6884  -2.6757  -2.6666
    -2.6051  -2.5269  -2.5039  -2.4294  -2.4238  -2.4102  -2.3223  -2.3153
    -2.2662  -2.2547  -2.1214  -2.0295  -2.0192  -1.9757  -1.8835  -1.8594
    -1.8426  -1.8103  -1.7601  -1.7409  -1.6884  -1.6857  -1.6494  -1.6409
    -1.4853  -1.4154  -1.3971  -1.3700  -1.3636  -1.3590  -1.3186  -1.3060
    -1.2949  -1.2811  -1.2666  -1.2656  -1.1685  -1.1029  -1.0824  -1.0591
    -0.9635  -0.9366  -0.9336  -0.9319  -0.7635  -0.7529  -0.6536  -0.5949
    -0.5306  -0.5053  -0.3929  -0.3570  -0.3385  -0.3204  -0.1619  -0.1365
    -0.1193  -0.0986  -0.0569   0.0840   0.0925   0.1446   0.1509   0.1527
     0.1779   0.2076   0.3695   0.3861   0.4159   0.4384   0.4433   0.4688
     0.4730   0.5051   0.5387   0.6155   0.6425   0.6553   0.6872   0.7451
     0.7568   0.7695   0.7836   0.8066   0.8123   0.8150   0.8338   0.8341
     0.8415   0.8992   0.9167   0.9315   0.9592   0.9887   0.9914   0.9945
     1.0200   1.0716   1.1320   1.1712   1.1794   1.1810   1.1902   1.2064
     1.2285   1.2521   1.2786   1.2902   1.3311   1.3700   1.3749   1.4167
     1.4578   1.5948   1.6787   1.7193   1.7446   1.7501   1.7548   1.7577
     2.2954   2.3033   2.3199   2.3291   2.8385   2.8852   2.9214   2.9769
     3.0087   3.0287   3.1027   3.1317   3.2975   3.2980   4.3045   4.3965
     4.5993   5.1000   5.8050   6.0468   6.1661   6.1814   6.2018   6.2269
     6.3114   6.4374   6.4743   6.7454   6.9483   6.9738   7.1427   7.3637
     7.4787   7.6332   7.6681   7.8638   7.9117   8.0450   8.0800   8.0913
     8.1352   8.1679   8.1859   8.1894   8.3750   8.5237   8.5911   8.7495
     8.8380   8.9003

          k =-0.5000-1.0472 0.0000 ( 79260 PWs)   bands (ev):

   -38.7040 -38.3363 -36.3407 -35.9371 -25.3990 -24.9398 -23.2928 -23.2632
   -23.2630 -23.2377 -23.2096 -23.1388 -19.3661 -19.0226 -19.0089 -18.9026
   -18.6794 -18.5039 -17.7737 -17.5955 -17.4920 -17.3831 -17.2204 -17.0577
   -15.4145 -15.3717 -15.3414 -15.3204 -15.3151 -15.3086 -15.2973 -15.2579
   -15.1902 -15.1134 -15.0658 -15.0388 -14.9885 -14.9748 -14.9667 -14.9348
   -14.9184 -14.8146 -14.7985 -14.7832 -14.6178 -14.5894 -14.5464 -14.5456
   -14.5452 -14.5444 -14.3996 -14.3839 -14.1583 -13.9733 -10.8844 -10.8132
   -10.6441 -10.5955 -10.2172 -10.1215  -9.0780  -9.0489  -9.0274  -9.0018
    -8.9869  -8.8766  -8.7530  -8.7295  -8.7257  -8.7048  -8.7001  -8.6522
    -8.6476  -8.6465  -8.6198  -8.6186  -8.5021  -8.4958  -4.4720  -4.3469
    -4.2818  -4.2112  -4.1739  -4.1617  -4.0446  -3.9307  -3.6775  -3.6737
    -3.6733  -3.6726  -3.6301  -3.4856  -3.0184  -2.9932  -2.9523  -2.9148
    -2.8908  -2.8787  -2.8041  -2.7386  -2.7062  -2.6544  -2.6533  -2.6526
    -2.6278  -2.6154  -2.6027  -2.5904  -2.5655  -2.5179  -2.3870  -2.3304
    -2.3216  -2.2870  -2.1539  -2.0666  -2.0589  -2.0555  -1.9721  -1.9475
    -1.9201  -1.8900  -1.7983  -1.7907  -1.7612  -1.7586  -1.7364  -1.6696
    -1.4916  -1.4712  -1.4615  -1.3853  -1.3752  -1.3694  -1.3628  -1.3535
    -1.3525  -1.3428  -1.3337  -1.2549  -1.2084  -1.1157  -1.1094  -1.0976
    -0.9999  -0.9927  -0.9811  -0.9618  -0.7464  -0.7417  -0.6504  -0.5945
    -0.4057  -0.3911  -0.3806  -0.3372  -0.2774  -0.2421  -0.1265  -0.1153
    -0.1115  -0.0944  -0.0831  -0.0462   0.0439   0.1398   0.1409   0.1450
     0.1960   0.2663   0.4077   0.4588   0.4937   0.5399   0.5432   0.5497
     0.5849   0.6028   0.6293   0.6776   0.7319   0.7358   0.7403   0.7717
     0.7722   0.7784   0.7989   0.8220   0.8481   0.8517   0.9074   0.9232
     0.9261   0.9485   0.9524   0.9546   0.9751   0.9873   0.9973   1.0232
     1.0913   1.1457   1.1978   1.2406   1.2638   1.2705   1.2880   1.3162
     1.3575   1.3793   1.4461   1.4491   1.5602   1.5681   1.5760   1.5785
     1.5785   1.7150   1.7813   1.8336   1.9241   1.9255   1.9330   1.9354
     2.0929   2.1014   2.1071   2.1170   2.8499   2.9354   2.9387   3.0362
     3.0469   3.0890   3.1656   3.2241   3.3075   3.3523   4.3292   4.4533
     5.0387   5.1997   5.4175   6.1066   6.1211   6.1459   6.1695   6.1910
     6.2341   6.3500   6.3906   6.4327   6.9583   6.9687   7.3625   7.4611
     7.6207   7.7518   8.0943   8.1388   8.1538   8.4365   8.4517   8.5367
     8.6460   8.6602   8.6694   8.7231   8.7573   8.7740   8.7789   8.8154
     8.8623   8.8652

     the Fermi energy is     2.1049 ev

!    total energy              =   -3711.56595573 Ry
     Harris-Foulkes estimate   =   -3711.56595571 Ry
     estimated scf accuracy    <          6.7E-09 Ry

     The total energy is the sum of the following terms:

     one-electron contribution =  -46696.84838646 Ry
     hartree contribution      =   23642.81972555 Ry
     xc contribution           =   -1263.75036053 Ry
     ewald contribution        =   20606.22853691 Ry
     smearing contrib. (-TS)   =      -0.01547119 Ry

     convergence has been achieved in  38 iterations

     negative rho (up, down):  9.204E-02 0.000E+00

     Forces acting on atoms (cartesian axes, Ry/au):

     atom    1 type  4   force =    -0.00000213    0.00000000   -0.00011075
     atom    2 type  4   force =     0.00000213    0.00000000   -0.00011075
     atom    3 type  3   force =    -0.00000986    0.00000000   -0.00009662
     atom    4 type  3   force =     0.00000986    0.00000000   -0.00009662
     atom    5 type  4   force =    -0.00000063    0.00000000   -0.00002334
     atom    6 type  4   force =     0.00000063    0.00000000   -0.00002334
     atom    7 type  1   force =     0.00000000    0.00000000   -0.00023920
     atom    8 type  1   force =     0.00000000    0.00000000   -0.00022297
     atom    9 type  3   force =     0.00005586    0.00000000    0.00002603
     atom   10 type  3   force =    -0.00005586    0.00000000    0.00002603
     atom   11 type  4   force =     0.00000000    0.00000000    0.00037507
     atom   12 type  4   force =     0.00000672    0.00000000    0.00035687
     atom   13 type  4   force =    -0.00000672    0.00000000    0.00035687
     atom   14 type  4   force =     0.00000000    0.00000000    0.00056856
     atom   15 type  2   force =     0.00000000    0.00000000   -0.00135047
     atom   16 type  5   force =     0.00000000    0.00000000   -0.00201515
     atom   17 type  4   force =     0.00019342    0.00000000    0.00265711
     atom   18 type  4   force =    -0.00019342    0.00000000    0.00265711
     atom   19 type  4   force =     0.00000000    0.00000000    0.00285948
     atom   20 type  4   force =     0.00000000    0.00000000    0.00350145
     atom   21 type  3   force =    -0.00012880    0.00000000   -0.00305391
     atom   22 type  3   force =     0.00012880    0.00000000   -0.00305391
     atom   23 type  1   force =     0.00000000    0.00000000   -0.00811577
     atom   24 type  1   force =     0.00000000    0.00000000   -0.00938925
     atom   25 type  4   force =    -0.00116831    0.00000000    0.00661541
     atom   26 type  4   force =     0.00116831    0.00000000    0.00661541
     atom   27 type  4   force =    -0.00164344    0.00000000    0.02134877
     atom   28 type  4   force =     0.00164344    0.00000000    0.02134877
     atom   29 type  3   force =     0.00592567    0.00000000   -0.02430057
     atom   30 type  3   force =    -0.00592567    0.00000000   -0.02430057
     atom   31 type  4   force =    -0.01209150    0.00000000    0.05615098
     atom   32 type  4   force =     0.01209150    0.00000000    0.05615098
     atom   33 type  1   force =     0.00000000    0.00000000   -0.05734180
     atom   34 type  1   force =     0.00000000    0.00000000   -0.04564960
     atom   35 type  3   force =    -0.01007174    0.00000000   -0.01081214
     atom   36 type  3   force =     0.01007174    0.00000000   -0.01081214
     atom   37 type  4   force =     0.00000000    0.00000000    0.02098476
     atom   38 type  4   force =     0.00000000    0.00000000    0.02264230
     atom   39 type  4   force =     0.00224825    0.00000000    0.01372527
     atom   40 type  4   force =    -0.00224825    0.00000000    0.01372527
     atom   41 type  5   force =     0.00000000    0.00000000   -0.04130887
     atom   42 type  2   force =     0.00000000    0.00000000   -0.03058118
     atom   43 type  4   force =     0.00000000    0.00000000    0.00693062
     atom   44 type  4   force =     0.00063681    0.00000000    0.00333781
     atom   45 type  4   force =    -0.00063681    0.00000000    0.00333781
     atom   46 type  4   force =     0.00000000    0.00000000    0.00483340
     atom   47 type  3   force =     0.00049227    0.00000000    0.00125950
     atom   48 type  3   force =    -0.00049227    0.00000000    0.00125950
     atom   49 type  1   force =     0.00000000    0.00000000   -0.00100619
     atom   50 type  1   force =     0.00000000    0.00000000   -0.00120953
     atom   51 type  4   force =     0.00009417    0.00000000    0.00084830
     atom   52 type  4   force =    -0.00009417    0.00000000    0.00084830
     atom   53 type  3   force =    -0.00004940    0.00000000   -0.00026655
     atom   54 type  3   force =     0.00004940    0.00000000   -0.00026655
     atom   55 type  4   force =    -0.00000373    0.00000000    0.00020501
     atom   56 type  4   force =     0.00000373    0.00000000    0.00020501

     Total force =     0.137707     Total SCF correction =     0.000310


     Computing stress (Cartesian axis) and pressure


     negative rho (up, down):  9.204E-02 0.000E+00
          total   stress  (Ry/bohr**3)                   (kbar)     P=       -6.56
  -0.00008523   0.00000000   0.00000000          -12.54        0.00        0.00
   0.00000000  -0.00003397   0.00000000            0.00       -5.00        0.00
   0.00000000   0.00000000  -0.00001458            0.00        0.00       -2.14

 
     init_run     :     26.90s CPU     29.05s WALL (       1 calls)
     electrons    :   2107.62s CPU   2252.76s WALL (       1 calls)
     forces       :     11.96s CPU     12.98s WALL (       1 calls)
     stress       :    122.19s CPU    124.62s WALL (       1 calls)

     Called by init_run:
     wfcinit      :     21.76s CPU     22.85s WALL (       1 calls)
     potinit      :      1.14s CPU      1.16s WALL (       1 calls)
     hinit0       :      1.86s CPU      2.06s WALL (       1 calls)

     Called by electrons:
     c_bands      :   1763.80s CPU   1837.90s WALL (      38 calls)
     sum_band     :    257.59s CPU    297.95s WALL (      38 calls)
     v_of_rho     :      6.59s CPU      6.68s WALL (      39 calls)
     newd         :     38.20s CPU     69.17s WALL (      39 calls)
     mix_rho      :     41.87s CPU     42.23s WALL (      38 calls)

     Called by c_bands:
     init_us_2    :     18.73s CPU     18.93s WALL (    1975 calls)
     cegterg      :   1681.79s CPU   1747.51s WALL (     950 calls)

     Called by sum_band:
     sum_band:bec :      1.20s CPU      1.21s WALL (     950 calls)
     addusdens    :     44.95s CPU     82.40s WALL (      38 calls)

     Called by *egterg:
     h_psi        :    799.18s CPU    816.91s WALL (    5373 calls)
     s_psi        :    131.81s CPU    132.55s WALL (    5373 calls)
     g_psi        :      2.75s CPU      2.78s WALL (    4398 calls)
     cdiaghg      :    368.84s CPU    370.35s WALL (    5348 calls)

     Called by h_psi:
     h_psi:calbec :    135.63s CPU    136.27s WALL (    5373 calls)
     vloc_psi     :    526.82s CPU    534.40s WALL (    5373 calls)
     add_vuspsi   :    132.86s CPU    133.54s WALL (    5373 calls)

     General routines
     calbec       :    203.55s CPU    204.48s WALL (    6448 calls)
     fft          :      5.89s CPU      6.06s WALL (     530 calls)
     ffts         :     21.03s CPU     21.22s WALL (   20522 calls)
     fftw         :    597.23s CPU    605.55s WALL ( 1358066 calls)
     interpolate  :      0.52s CPU      0.53s WALL (      39 calls)
 
     Parallel routines
     fft_scatt_xy :     72.20s CPU     73.21s WALL ( 1379118 calls)
     fft_scatt_yz :    387.17s CPU    392.69s WALL ( 1379118 calls)
 
     PWSCF        :  37m49.63s CPU  40m20.86s WALL

 
   This run was terminated on:  23:59:50  27May2021            

=------------------------------------------------------------------------------=
   JOB DONE.
=------------------------------------------------------------------------------=
[1622174390.693905] [holy7c16612:220224:0]          mpool.c:43   UCX  WARN  object 0x3837f80 was not returned to mpool ucp_requests
[1622174390.693962] [holy7c16612:220225:0]          mpool.c:43   UCX  WARN  object 0x36ad900 was not returned to mpool ucp_requests
[1622174390.734264] [holy7c04102:245099:0]          mpool.c:43   UCX  WARN  object 0x2ff8a00 was not returned to mpool ucp_requests
[1622174390.734288] [holy7c04102:245099:0]          mpool.c:43   UCX  WARN  object 0x2ff8f40 was not returned to mpool ucp_requests
[1622174390.706026] [holy7c16611:218038:0]          mpool.c:43   UCX  WARN  object 0x43ca240 was not returned to mpool ucp_requests
[1622174390.706061] [holy7c16611:218038:0]          mpool.c:43   UCX  WARN  object 0x43ca940 was not returned to mpool ucp_requests
[1622174390.706064] [holy7c16611:218038:0]          mpool.c:43   UCX  WARN  object 0x43cab00 was not returned to mpool ucp_requests
[1622174390.741026] [holy7c04102:245103:0]          mpool.c:43   UCX  WARN  object 0x3fc85c0 was not returned to mpool ucp_requests
[1622174390.746848] [holy7c04102:245097:0]          mpool.c:43   UCX  WARN  object 0x41ed580 was not returned to mpool ucp_requests
[1622174390.736946] [holy7c04102:245102:0]          mpool.c:43   UCX  WARN  object 0x47ca400 was not returned to mpool ucp_requests
[1622174390.736971] [holy7c04102:245102:0]          mpool.c:43   UCX  WARN  object 0x47ca780 was not returned to mpool ucp_requests
[1622174390.737326] [holy7c04102:245107:0]          mpool.c:43   UCX  WARN  object 0x39fc780 was not returned to mpool ucp_requests
[1622174390.738563] [holy7c04102:245098:0]          mpool.c:43   UCX  WARN  object 0x3f49a00 was not returned to mpool ucp_requests
[1622174390.744150] [holy7c04102:245111:0]          mpool.c:43   UCX  WARN  object 0x2c2c340 was not returned to mpool ucp_requests
[1622174390.747060] [holy7c04102:245112:0]          mpool.c:43   UCX  WARN  object 0x45c2800 was not returned to mpool ucp_requests
[1622174390.748309] [holy7c04102:245104:0]          mpool.c:43   UCX  WARN  object 0x402b400 was not returned to mpool ucp_requests
[1622174390.748331] [holy7c04102:245104:0]          mpool.c:43   UCX  WARN  object 0x402b5c0 was not returned to mpool ucp_requests
[1622174390.747858] [holy7c04102:245109:0]          mpool.c:43   UCX  WARN  object 0x3ec2e80 was not returned to mpool ucp_requests
[1622174390.747879] [holy7c04102:245109:0]          mpool.c:43   UCX  WARN  object 0x3ec3040 was not returned to mpool ucp_requests
