
     Program PWSCF v.6.5 starts on 25May2021 at 16:36:34 

     This program is part of the open-source Quantum ESPRESSO suite
     for quantum simulation of materials; please cite
         "P. Giannozzi et al., J. Phys.:Condens. Matter 21 395502 (2009);
         "P. Giannozzi et al., J. Phys.:Condens. Matter 29 465901 (2017);
          URL http://www.quantum-espresso.org", 
     in publications or presentations arising from this work. More details at
     http://www.quantum-espresso.org/quote

     Parallel version (MPI), running on    32 processors

     MPI processes distributed on    19 nodes
     R & G space division:  proc/nbgrp/npool/nimage =      32
     Reading input from YCBCO50_212_BaO_cleave_1.75_sep.pwi
Warning: card &IONS ignored
Warning: card     ION_DYNAMICS = 'BFGS' ignored
Warning: card / ignored
Warning: card &CELL ignored
Warning: card     CELL_DYNAMICS = 'BFGS' ignored
Warning: card     PRESS_CONV_THR = 5 ignored
Warning: card / ignored

     Current dimensions of program PWSCF are:
     Max number of different atomic species (ntypx) = 10
     Max number of k-points (npk) =  40000
     Max angular momentum in pseudopotentials (lmaxx) =  3

     Subspace diagonalization in iterative solution of the eigenvalue problem:
     one sub-group per band group will be used
     scalapack distributed-memory algorithm (size of sub-group:  5*  5 procs)

     Message from routine setup:
     using ibrav=0 with symmetry is DISCOURAGED, use correct ibrav instead
 
     Parallelization info
     --------------------
     sticks:   dense  smooth     PW     G-vecs:    dense   smooth      PW
     Min         188      62     17                92390    17770    2651
     Max         189      63     18                92418    17815    2690
     Sum        6019    2003    565              2956985   569373   85611
 


     bravais-lattice index     =            0
     lattice parameter (alat)  =      14.8133  a.u.
     unit-cell volume          =    9063.7339 (a.u.)^3
     number of atoms/cell      =           56
     number of atomic types    =            5
     number of electrons       =       456.00
     number of Kohn-Sham states=          274
     kinetic-energy cutoff     =      60.0000  Ry
     charge density cutoff     =     720.0000  Ry
     convergence threshold     =      1.0E-08
     mixing beta               =       0.5000
     number of iterations used =           10  local-TF  mixing
     Exchange-correlation= SLA PW PBE PBE
                           (   1   4   3   4   0   0   0)

     celldm(1)=  14.813271  celldm(2)=   0.000000  celldm(3)=   0.000000
     celldm(4)=   0.000000  celldm(5)=   0.000000  celldm(6)=   0.000000

     crystal axes: (cart. coord. in units of alat)
               a(1) = (   1.000000   0.000000   0.000000 )  
               a(2) = (   0.000000   0.477453   0.000000 )  
               a(3) = (   0.000000   0.000000   5.840148 )  

     reciprocal axes: (cart. coord. in units 2 pi/alat)
               b(1) = (  1.000000  0.000000  0.000000 )  
               b(2) = (  0.000000  2.094448  0.000000 )  
               b(3) = (  0.000000  0.000000  0.171229 )  


     PseudoPot. # 1 for Ba read from file:
     ./pseudo/Ba.pbe-nsp-van.UPF
     MD5 check sum: 2b9c31dd849566dd297d80989662b7a0
     Pseudo is Ultrasoft + core correction, Zval = 10.0
     Generated by new atomic code, or converted to UPF format
     Using radial grid of  907 points,  6 beta functions with: 
                l(1) =   0
                l(2) =   0
                l(3) =   1
                l(4) =   1
                l(5) =   2
                l(6) =   2
     Q(r) pseudized with  6 coefficients,  rinner =    1.200   1.200   1.200
                                                       1.200   1.200

     PseudoPot. # 2 for Ca read from file:
     ./pseudo/Ca.pbe-nsp-van.UPF
     MD5 check sum: 6471098428ff4fa451746d08035ff179
     Pseudo is Ultrasoft + core correction, Zval = 10.0
     Generated by new atomic code, or converted to UPF format
     Using radial grid of  845 points,  6 beta functions with: 
                l(1) =   0
                l(2) =   0
                l(3) =   1
                l(4) =   1
                l(5) =   2
                l(6) =   2
     Q(r) pseudized with  6 coefficients,  rinner =    1.200   1.200   1.200
                                                       1.200   1.200

     PseudoPot. # 3 for Cu read from file:
     ./pseudo/Cu.pbe-n-van_ak.UPF
     MD5 check sum: 34e3282627ffb533726feb647e090d62
     Pseudo is Ultrasoft + core correction, Zval = 11.0
     Generated by new atomic code, or converted to UPF format
     Using radial grid of  867 points,  6 beta functions with: 
                l(1) =   0
                l(2) =   0
                l(3) =   1
                l(4) =   1
                l(5) =   2
                l(6) =   2
     Q(r) pseudized with  8 coefficients,  rinner =    1.400   1.400   1.400
                                                       1.400   1.400

     PseudoPot. # 4 for O  read from file:
     ./pseudo/O.pbe-van_ak.UPF
     MD5 check sum: 783ce7fe4c79b6a4916957118fed0856
     Pseudo is Ultrasoft, Zval =  6.0
     Generated by new atomic code, or converted to UPF format
     Using radial grid of  737 points,  4 beta functions with: 
                l(1) =   0
                l(2) =   0
                l(3) =   1
                l(4) =   1
     Q(r) pseudized with  8 coefficients,  rinner =    0.800   0.800   0.800


     PseudoPot. # 5 for Y  read from file:
     ./pseudo/Y.pbe-nsp-van.UPF
     MD5 check sum: 4412fed3ab108fed87a1b7d6a69a4a38
     Pseudo is Ultrasoft + core correction, Zval = 11.0
     Generated by new atomic code, or converted to UPF format
     Using radial grid of  885 points,  6 beta functions with: 
                l(1) =   0
                l(2) =   0
                l(3) =   1
                l(4) =   1
                l(5) =   2
                l(6) =   2
     Q(r) pseudized with  6 coefficients,  rinner =    1.200   1.200   1.200
                                                       1.200   1.200

     atomic species   valence    mass     pseudopotential
        Ba            10.00   137.32700     Ba( 1.00)
        Ca            10.00    40.07800     Ca( 1.00)
        Cu            11.00    63.54600     Cu( 1.00)
        O              6.00    15.99900     O ( 1.00)
        Y             11.00    88.90584     Y ( 1.00)

      4 Sym. Ops. (no inversion) found ( 2 have fractional translation)



   Cartesian axes

     site n.     atom                  positions (alat units)
         1           O   tau(   1) = (  -0.0008343   0.2387265  -0.0222443  )
         2           O   tau(   2) = (   0.5008340   0.2387265  -0.0222443  )
         3           Cu  tau(   3) = (   0.5017257   0.0000000   0.0109608  )
         4           Cu  tau(   4) = (  -0.0017260   0.0000000   0.0109608  )
         5           O   tau(   5) = (  -0.0028933   0.0000000   0.2506504  )
         6           O   tau(   6) = (   0.5028929   0.0000000   0.2506504  )
         7           Ba  tau(   7) = (   0.7499995   0.2387265   0.2749435  )
         8           Ba  tau(   8) = (   0.2499998   0.2387265   0.2755214  )
         9           Cu  tau(   9) = (   0.4980963   0.0000000   0.5208446  )
        10           Cu  tau(  10) = (   0.0019033   0.0000000   0.5208446  )
        11           O   tau(  11) = (   0.2499998   0.0000000   0.5341884  )
        12           O   tau(  12) = (   0.5083351   0.2387265   0.5569851  )
        13           O   tau(  13) = (  -0.0083354   0.2387265   0.5569851  )
        14           O   tau(  14) = (   0.7499995   0.0000000   0.5573831  )
        15           Ca  tau(  15) = (   0.2499998   0.2387265   0.7436937  )
        16           Y   tau(  16) = (   0.7499995   0.2387265   0.7469544  )
        17           O   tau(  17) = (  -0.0063798   0.2387265   0.9248530  )
        18           O   tau(  18) = (   0.5063794   0.2387265   0.9248530  )
        19           O   tau(  19) = (   0.7499995   0.0000000   0.9338544  )
        20           O   tau(  20) = (   0.2499998   0.0000000   0.9461329  )
        21           Cu  tau(  21) = (   0.0015717   0.0000000   0.9686860  )
        22           Cu  tau(  22) = (   0.4984280   0.0000000   0.9686860  )
        23           Ba  tau(  23) = (   0.2499998   0.2387265   1.2085224  )
        24           Ba  tau(  24) = (   0.7499995   0.2387265   1.2233294  )
        25           O   tau(  25) = (   0.0063772   0.0000000   1.2547537  )
        26           O   tau(  26) = (   0.4936224   0.0000000   1.2547537  )
        27           O   tau(  27) = (   0.5384045   0.2387265   1.4952521  )
        28           O   tau(  28) = (  -0.0384049   0.2387265   1.4952521  )
        29           Cu  tau(  29) = (   0.5006120   0.0000000   1.4952546  )
        30           Cu  tau(  30) = (  -0.0006123   0.0000000   1.4952546  )
        31           O   tau(  31) = (   0.4936212   0.0000000   1.7357531  )
        32           O   tau(  32) = (   0.0063785   0.0000000   1.7357531  )
        33           Ba  tau(  33) = (   0.7499995   0.2387265   1.7671824  )
        34           Ba  tau(  34) = (   0.2499998   0.2387265   1.7819920  )
        35           Cu  tau(  35) = (   0.4984280   0.0000000   2.2450704  )
        36           Cu  tau(  36) = (   0.0015717   0.0000000   2.2450704  )
        37           O   tau(  37) = (   0.2499998   0.0000000   2.2676286  )
        38           O   tau(  38) = (   0.7499995   0.0000000   2.2798982  )
        39           O   tau(  39) = (   0.5063781   0.2387265   2.2889034  )
        40           O   tau(  40) = (  -0.0063785   0.2387265   2.2889034  )
        41           Y   tau(  41) = (   0.7499995   0.2387265   2.4667969  )
        42           Ca  tau(  42) = (   0.2499998   0.2387265   2.4700665  )
        43           O   tau(  43) = (   0.7499995   0.0000000   2.6563644  )
        44           O   tau(  44) = (  -0.0083354   0.2387265   2.6567662  )
        45           O   tau(  45) = (   0.5083351   0.2387265   2.6567662  )
        46           O   tau(  46) = (   0.2499998   0.0000000   2.6795642  )
        47           Cu  tau(  47) = (   0.0019059   0.0000000   2.6928978  )
        48           Cu  tau(  48) = (   0.4980938   0.0000000   2.6928978  )
        49           Ba  tau(  49) = (   0.2499998   0.2387265   2.9382375  )
        50           Ba  tau(  50) = (   0.7499995   0.2387265   2.9387797  )
        51           O   tau(  51) = (  -0.0028895   0.0000000   2.9630869  )
        52           O   tau(  52) = (   0.5028891   0.0000000   2.9630869  )
        53           Cu  tau(  53) = (   0.5017844   0.0000000   3.2027714  )
        54           Cu  tau(  54) = (  -0.0017847   0.0000000   3.2027714  )
        55           O   tau(  55) = (   0.5008990   0.2387265   3.2359778  )
        56           O   tau(  56) = (  -0.0008994   0.2387265   3.2359778  )

     number of k points=    25  Gaussian smearing, width (Ry)=  0.0100
                       cart. coord. in units 2pi/alat
        k(    1) = (   0.0000000   0.0000000   0.0000000), wk =   0.0312500
        k(    2) = (   0.0000000   0.2618060   0.0000000), wk =   0.0625000
        k(    3) = (   0.0000000   0.5236121   0.0000000), wk =   0.0625000
        k(    4) = (   0.0000000   0.7854181   0.0000000), wk =   0.0625000
        k(    5) = (   0.0000000  -1.0472241   0.0000000), wk =   0.0312500
        k(    6) = (   0.1250000   0.0000000   0.0000000), wk =   0.0625000
        k(    7) = (   0.1250000   0.2618060   0.0000000), wk =   0.1250000
        k(    8) = (   0.1250000   0.5236121   0.0000000), wk =   0.1250000
        k(    9) = (   0.1250000   0.7854181   0.0000000), wk =   0.1250000
        k(   10) = (   0.1250000  -1.0472241   0.0000000), wk =   0.0625000
        k(   11) = (   0.2500000   0.0000000   0.0000000), wk =   0.0625000
        k(   12) = (   0.2500000   0.2618060   0.0000000), wk =   0.1250000
        k(   13) = (   0.2500000   0.5236121   0.0000000), wk =   0.1250000
        k(   14) = (   0.2500000   0.7854181   0.0000000), wk =   0.1250000
        k(   15) = (   0.2500000  -1.0472241   0.0000000), wk =   0.0625000
        k(   16) = (   0.3750000   0.0000000   0.0000000), wk =   0.0625000
        k(   17) = (   0.3750000   0.2618060   0.0000000), wk =   0.1250000
        k(   18) = (   0.3750000   0.5236121   0.0000000), wk =   0.1250000
        k(   19) = (   0.3750000   0.7854181   0.0000000), wk =   0.1250000
        k(   20) = (   0.3750000  -1.0472241   0.0000000), wk =   0.0625000
        k(   21) = (  -0.5000000   0.0000000   0.0000000), wk =   0.0312500
        k(   22) = (  -0.5000000   0.2618060   0.0000000), wk =   0.0625000
        k(   23) = (  -0.5000000   0.5236121   0.0000000), wk =   0.0625000
        k(   24) = (  -0.5000000   0.7854181   0.0000000), wk =   0.0625000
        k(   25) = (  -0.5000000  -1.0472241   0.0000000), wk =   0.0312500

     Dense  grid:  2956985 G-vectors     FFT dimensions: ( 128,  64, 750)

     Smooth grid:   569373 G-vectors     FFT dimensions: (  80,  36, 432)

     Estimated max dynamical RAM per process >     856.47 MB

     Estimated total dynamical RAM >      26.76 GB

     Initial potential from superposition of free atoms

     starting charge  455.69457, renormalised to  456.00000

     negative rho (up, down):  9.307E-02 0.000E+00
     Starting wfcs are  396 randomized atomic wfcs

     total cpu time spent up to now is       26.4 secs

     Self-consistent Calculation

     iteration #  1     ecut=    60.00 Ry     beta= 0.50
     Davidson diagonalization with overlap
     ethr =  1.00E-02,  avg # of iterations =  2.0

     negative rho (up, down):  8.623E-02 0.000E+00

     total cpu time spent up to now is       73.0 secs

     total energy              =   -3708.28863743 Ry
     Harris-Foulkes estimate   =   -3716.54004414 Ry
     estimated scf accuracy    <      32.29724339 Ry

     iteration #  2     ecut=    60.00 Ry     beta= 0.50
     Davidson diagonalization with overlap
     ethr =  7.08E-03,  avg # of iterations =  2.0

     negative rho (up, down):  8.605E-02 0.000E+00

     total cpu time spent up to now is      118.8 secs

     total energy              =   -3711.05235394 Ry
     Harris-Foulkes estimate   =   -3712.41491561 Ry
     estimated scf accuracy    <       7.86900655 Ry

     iteration #  3     ecut=    60.00 Ry     beta= 0.50
     Davidson diagonalization with overlap
     ethr =  1.73E-03,  avg # of iterations =  1.9

     negative rho (up, down):  8.649E-02 0.000E+00

     total cpu time spent up to now is      163.4 secs

     total energy              =   -3711.66882355 Ry
     Harris-Foulkes estimate   =   -3711.98231753 Ry
     estimated scf accuracy    <       7.57002973 Ry

     iteration #  4     ecut=    60.00 Ry     beta= 0.50
     Davidson diagonalization with overlap
     ethr =  1.66E-03,  avg # of iterations =  1.0

     negative rho (up, down):  8.716E-02 0.000E+00

     total cpu time spent up to now is      205.6 secs

     total energy              =   -3711.72330124 Ry
     Harris-Foulkes estimate   =   -3711.81851854 Ry
     estimated scf accuracy    <       2.80843888 Ry

     iteration #  5     ecut=    60.00 Ry     beta= 0.50
     Davidson diagonalization with overlap
     ethr =  6.16E-04,  avg # of iterations =  1.0

     negative rho (up, down):  8.856E-02 0.000E+00

     total cpu time spent up to now is      247.4 secs

     total energy              =   -3711.65137417 Ry
     Harris-Foulkes estimate   =   -3711.79215463 Ry
     estimated scf accuracy    <       3.64216837 Ry

     iteration #  6     ecut=    60.00 Ry     beta= 0.50
     Davidson diagonalization with overlap
     ethr =  6.16E-04,  avg # of iterations =  1.3

     negative rho (up, down):  8.932E-02 0.000E+00

     total cpu time spent up to now is      290.0 secs

     total energy              =   -3711.67612609 Ry
     Harris-Foulkes estimate   =   -3711.70484184 Ry
     estimated scf accuracy    <       1.08719926 Ry

     iteration #  7     ecut=    60.00 Ry     beta= 0.50
     Davidson diagonalization with overlap
     ethr =  2.38E-04,  avg # of iterations =  6.8

     negative rho (up, down):  9.011E-02 0.000E+00

     total cpu time spent up to now is      349.6 secs

     total energy              =   -3711.67346955 Ry
     Harris-Foulkes estimate   =   -3711.69257146 Ry
     estimated scf accuracy    <       0.57995478 Ry

     iteration #  8     ecut=    60.00 Ry     beta= 0.50
     Davidson diagonalization with overlap
     ethr =  1.27E-04,  avg # of iterations =  7.1

     negative rho (up, down):  9.054E-02 0.000E+00

     total cpu time spent up to now is      409.7 secs

     total energy              =   -3711.67195954 Ry
     Harris-Foulkes estimate   =   -3711.68489299 Ry
     estimated scf accuracy    <       0.58324734 Ry

     iteration #  9     ecut=    60.00 Ry     beta= 0.50
     Davidson diagonalization with overlap
     ethr =  1.27E-04,  avg # of iterations =  1.2

     negative rho (up, down):  9.056E-02 0.000E+00

     total cpu time spent up to now is      452.0 secs

     total energy              =   -3711.66199145 Ry
     Harris-Foulkes estimate   =   -3711.67676745 Ry
     estimated scf accuracy    <       0.28835978 Ry

     iteration # 10     ecut=    60.00 Ry     beta= 0.50
     Davidson diagonalization with overlap
     ethr =  6.32E-05,  avg # of iterations =  6.6

     negative rho (up, down):  9.030E-02 0.000E+00

     total cpu time spent up to now is      509.2 secs

     total energy              =   -3711.65747867 Ry
     Harris-Foulkes estimate   =   -3711.66614881 Ry
     estimated scf accuracy    <       0.14475335 Ry

     iteration # 11     ecut=    60.00 Ry     beta= 0.50
     Davidson diagonalization with overlap
     c_bands:  1 eigenvalues not converged
     c_bands:  1 eigenvalues not converged
     ethr =  3.17E-05,  avg # of iterations = 10.2

     negative rho (up, down):  8.991E-02 0.000E+00

     total cpu time spent up to now is      579.6 secs

     total energy              =   -3711.65594047 Ry
     Harris-Foulkes estimate   =   -3711.65951020 Ry
     estimated scf accuracy    <       0.05482805 Ry

     iteration # 12     ecut=    60.00 Ry     beta= 0.50
     Davidson diagonalization with overlap
     c_bands:  1 eigenvalues not converged
     ethr =  1.20E-05,  avg # of iterations =  9.0

     negative rho (up, down):  8.955E-02 0.000E+00

     total cpu time spent up to now is      645.6 secs

     total energy              =   -3711.65535015 Ry
     Harris-Foulkes estimate   =   -3711.65684287 Ry
     estimated scf accuracy    <       0.04770479 Ry

     iteration # 13     ecut=    60.00 Ry     beta= 0.50
     Davidson diagonalization with overlap
     ethr =  1.05E-05,  avg # of iterations =  1.3

     negative rho (up, down):  8.946E-02 0.000E+00

     total cpu time spent up to now is      687.6 secs

     total energy              =   -3711.65399037 Ry
     Harris-Foulkes estimate   =   -3711.65570906 Ry
     estimated scf accuracy    <       0.05426244 Ry

     iteration # 14     ecut=    60.00 Ry     beta= 0.50
     Davidson diagonalization with overlap
     c_bands:  1 eigenvalues not converged
     ethr =  1.05E-05,  avg # of iterations =  3.3

     negative rho (up, down):  8.987E-02 0.000E+00

     total cpu time spent up to now is      735.4 secs

     total energy              =   -3711.65319796 Ry
     Harris-Foulkes estimate   =   -3711.65424222 Ry
     estimated scf accuracy    <       0.05413325 Ry

     iteration # 15     ecut=    60.00 Ry     beta= 0.50
     Davidson diagonalization with overlap
     ethr =  1.05E-05,  avg # of iterations =  1.5

     negative rho (up, down):  9.159E-02 0.000E+00

     total cpu time spent up to now is      782.7 secs

     total energy              =   -3711.65110988 Ry
     Harris-Foulkes estimate   =   -3711.65331096 Ry
     estimated scf accuracy    <       0.05097522 Ry

     iteration # 16     ecut=    60.00 Ry     beta= 0.50
     Davidson diagonalization with overlap
     c_bands:  1 eigenvalues not converged
     ethr =  1.05E-05,  avg # of iterations =  6.0

     negative rho (up, down):  9.931E-02 0.000E+00

     total cpu time spent up to now is      838.6 secs

     total energy              =   -3711.64933951 Ry
     Harris-Foulkes estimate   =   -3711.65137697 Ry
     estimated scf accuracy    <       0.04304909 Ry

     iteration # 17     ecut=    60.00 Ry     beta= 0.50
     Davidson diagonalization with overlap
     c_bands:  1 eigenvalues not converged
     ethr =  9.44E-06,  avg # of iterations =  8.0

     negative rho (up, down):  1.110E-01 0.000E+00

     total cpu time spent up to now is      900.9 secs

     total energy              =   -3711.64774663 Ry
     Harris-Foulkes estimate   =   -3711.64946525 Ry
     estimated scf accuracy    <       0.03102086 Ry

     iteration # 18     ecut=    60.00 Ry     beta= 0.50
     Davidson diagonalization with overlap
     ethr =  6.80E-06,  avg # of iterations = 10.4

     negative rho (up, down):  1.057E-01 0.000E+00

     total cpu time spent up to now is      971.7 secs

     total energy              =   -3711.64714141 Ry
     Harris-Foulkes estimate   =   -3711.64793771 Ry
     estimated scf accuracy    <       0.01535891 Ry

     iteration # 19     ecut=    60.00 Ry     beta= 0.50
     Davidson diagonalization with overlap
     ethr =  3.37E-06,  avg # of iterations = 10.5

     negative rho (up, down):  9.660E-02 0.000E+00

     total cpu time spent up to now is     1041.3 secs

     total energy              =   -3711.64694385 Ry
     Harris-Foulkes estimate   =   -3711.64730209 Ry
     estimated scf accuracy    <       0.00359354 Ry

     iteration # 20     ecut=    60.00 Ry     beta= 0.50
     Davidson diagonalization with overlap
     c_bands:  1 eigenvalues not converged
     ethr =  7.88E-07,  avg # of iterations =  6.1

     negative rho (up, down):  9.038E-02 0.000E+00

     total cpu time spent up to now is     1097.7 secs

     total energy              =   -3711.64694738 Ry
     Harris-Foulkes estimate   =   -3711.64703407 Ry
     estimated scf accuracy    <       0.00341157 Ry

     iteration # 21     ecut=    60.00 Ry     beta= 0.50
     Davidson diagonalization with overlap
     c_bands:  1 eigenvalues not converged
     c_bands:  1 eigenvalues not converged
     c_bands:  1 eigenvalues not converged
     c_bands:  1 eigenvalues not converged
     c_bands:  1 eigenvalues not converged
     c_bands:  1 eigenvalues not converged
     ethr =  7.48E-07,  avg # of iterations = 12.1

     negative rho (up, down):  9.601E-02 0.000E+00

     total cpu time spent up to now is     1171.9 secs

     total energy              =   -3711.64700295 Ry
     Harris-Foulkes estimate   =   -3711.64703211 Ry
     estimated scf accuracy    <       0.00163001 Ry

     iteration # 22     ecut=    60.00 Ry     beta= 0.50
     Davidson diagonalization with overlap
     ethr =  3.57E-07,  avg # of iterations =  9.9

     negative rho (up, down):  9.462E-02 0.000E+00

     total cpu time spent up to now is     1240.3 secs

     total energy              =   -3711.64701723 Ry
     Harris-Foulkes estimate   =   -3711.64704013 Ry
     estimated scf accuracy    <       0.00044195 Ry

     iteration # 23     ecut=    60.00 Ry     beta= 0.50
     Davidson diagonalization with overlap
     c_bands:  1 eigenvalues not converged
     c_bands:  1 eigenvalues not converged
     c_bands:  1 eigenvalues not converged
     c_bands:  1 eigenvalues not converged
     ethr =  9.69E-08,  avg # of iterations =  9.0

     negative rho (up, down):  9.461E-02 0.000E+00

     total cpu time spent up to now is     1304.2 secs

     total energy              =   -3711.64701460 Ry
     Harris-Foulkes estimate   =   -3711.64702589 Ry
     estimated scf accuracy    <       0.00034446 Ry

     iteration # 24     ecut=    60.00 Ry     beta= 0.50
     Davidson diagonalization with overlap
     ethr =  7.55E-08,  avg # of iterations =  1.7

     negative rho (up, down):  9.416E-02 0.000E+00

     total cpu time spent up to now is     1347.4 secs

     total energy              =   -3711.64698957 Ry
     Harris-Foulkes estimate   =   -3711.64702154 Ry
     estimated scf accuracy    <       0.00016664 Ry

     iteration # 25     ecut=    60.00 Ry     beta= 0.50
     Davidson diagonalization with overlap
     c_bands:  1 eigenvalues not converged
     ethr =  3.65E-08,  avg # of iterations =  5.8

     negative rho (up, down):  9.214E-02 0.000E+00

     total cpu time spent up to now is     1402.2 secs

     total energy              =   -3711.64697451 Ry
     Harris-Foulkes estimate   =   -3711.64699320 Ry
     estimated scf accuracy    <       0.00009027 Ry

     iteration # 26     ecut=    60.00 Ry     beta= 0.50
     Davidson diagonalization with overlap
     ethr =  1.98E-08,  avg # of iterations =  8.0

     negative rho (up, down):  9.244E-02 0.000E+00

     total cpu time spent up to now is     1463.0 secs

     total energy              =   -3711.64697298 Ry
     Harris-Foulkes estimate   =   -3711.64697694 Ry
     estimated scf accuracy    <       0.00004536 Ry

     iteration # 27     ecut=    60.00 Ry     beta= 0.50
     Davidson diagonalization with overlap
     ethr =  9.95E-09,  avg # of iterations =  1.0

     negative rho (up, down):  9.236E-02 0.000E+00

     total cpu time spent up to now is     1504.6 secs

     total energy              =   -3711.64697392 Ry
     Harris-Foulkes estimate   =   -3711.64697474 Ry
     estimated scf accuracy    <       0.00000564 Ry

     iteration # 28     ecut=    60.00 Ry     beta= 0.50
     Davidson diagonalization with overlap
     ethr =  1.24E-09,  avg # of iterations =  2.4

     negative rho (up, down):  9.217E-02 0.000E+00

     total cpu time spent up to now is     1551.6 secs

     total energy              =   -3711.64697400 Ry
     Harris-Foulkes estimate   =   -3711.64697441 Ry
     estimated scf accuracy    <       0.00000227 Ry

     iteration # 29     ecut=    60.00 Ry     beta= 0.50
     Davidson diagonalization with overlap
     ethr =  4.97E-10,  avg # of iterations =  2.7

     negative rho (up, down):  9.206E-02 0.000E+00

     total cpu time spent up to now is     1598.3 secs

     total energy              =   -3711.64697416 Ry
     Harris-Foulkes estimate   =   -3711.64697421 Ry
     estimated scf accuracy    <       0.00000156 Ry

     iteration # 30     ecut=    60.00 Ry     beta= 0.50
     Davidson diagonalization with overlap
     ethr =  3.42E-10,  avg # of iterations =  1.2

     negative rho (up, down):  9.201E-02 0.000E+00

     total cpu time spent up to now is     1640.3 secs

     total energy              =   -3711.64697428 Ry
     Harris-Foulkes estimate   =   -3711.64697425 Ry
     estimated scf accuracy    <       0.00000018 Ry

     iteration # 31     ecut=    60.00 Ry     beta= 0.50
     Davidson diagonalization with overlap
     ethr =  3.96E-11,  avg # of iterations =  3.3

     negative rho (up, down):  9.201E-02 0.000E+00

     total cpu time spent up to now is     1697.6 secs

     total energy              =   -3711.64697431 Ry
     Harris-Foulkes estimate   =   -3711.64697431 Ry
     estimated scf accuracy    <       0.00000020 Ry

     iteration # 32     ecut=    60.00 Ry     beta= 0.50
     Davidson diagonalization with overlap
     ethr =  3.96E-11,  avg # of iterations =  1.0

     negative rho (up, down):  9.202E-02 0.000E+00

     total cpu time spent up to now is     1739.1 secs

     total energy              =   -3711.64697428 Ry
     Harris-Foulkes estimate   =   -3711.64697431 Ry
     estimated scf accuracy    <       0.00000009 Ry

     iteration # 33     ecut=    60.00 Ry     beta= 0.50
     Davidson diagonalization with overlap
     ethr =  1.88E-11,  avg # of iterations =  1.0

     negative rho (up, down):  9.201E-02 0.000E+00

     total cpu time spent up to now is     1780.5 secs

     total energy              =   -3711.64697429 Ry
     Harris-Foulkes estimate   =   -3711.64697429 Ry
     estimated scf accuracy    <       0.00000005 Ry

     iteration # 34     ecut=    60.00 Ry     beta= 0.50
     Davidson diagonalization with overlap
     ethr =  1.01E-11,  avg # of iterations =  1.0

     negative rho (up, down):  9.201E-02 0.000E+00

     total cpu time spent up to now is     1821.8 secs

     total energy              =   -3711.64697430 Ry
     Harris-Foulkes estimate   =   -3711.64697429 Ry
     estimated scf accuracy    <       0.00000002 Ry

     iteration # 35     ecut=    60.00 Ry     beta= 0.50
     Davidson diagonalization with overlap
     ethr =  4.33E-12,  avg # of iterations =  1.0

     negative rho (up, down):  9.201E-02 0.000E+00

     total cpu time spent up to now is     1863.5 secs

     total energy              =   -3711.64697430 Ry
     Harris-Foulkes estimate   =   -3711.64697430 Ry
     estimated scf accuracy    <       0.00000001 Ry

     iteration # 36     ecut=    60.00 Ry     beta= 0.50
     Davidson diagonalization with overlap
     ethr =  2.97E-12,  avg # of iterations =  1.0

     negative rho (up, down):  9.200E-02 0.000E+00

     total cpu time spent up to now is     1904.0 secs

     End of self-consistent calculation

          k = 0.0000 0.0000 0.0000 ( 71173 PWs)   bands (ev):

   -38.1533 -37.8780 -35.7812 -35.4707 -24.0855 -23.7284 -22.9345 -22.9133
   -22.8062 -22.7855 -22.7663 -22.6173 -18.6284 -18.5241 -18.3242 -18.2680
   -18.1564 -17.8898 -17.1292 -16.9937 -16.8109 -16.7896 -16.7044 -16.5120
   -15.5383 -15.3181 -15.2097 -15.0942 -15.0567 -15.0546 -14.7871 -14.6835
   -14.6463 -14.6068 -14.5861 -14.5723 -14.4493 -14.4299 -14.2885 -14.2257
   -14.2085 -14.1351 -14.1285 -14.1122 -14.1116 -14.0997 -14.0800 -14.0472
   -14.0171 -13.9131 -13.8281 -13.7603 -13.7115 -13.4879  -9.4280  -9.0060
    -8.8620  -8.8183  -8.5427  -8.4970  -8.1728  -8.1470  -8.0671  -8.0420
    -8.0405  -7.9839  -7.9647  -7.9517  -7.8458  -7.8251  -7.7617  -7.7494
    -7.7301  -7.6409  -7.6078  -7.5871  -7.5777  -7.4192  -3.1040  -3.0651
    -2.9429  -2.5778  -2.2905  -2.2795  -2.2034  -2.1974  -2.1654  -2.1407
    -2.1159  -2.0511  -2.0047  -1.9628  -1.9284  -1.8764  -1.7873  -1.7741
    -1.7563  -1.7519  -1.6997  -1.6777  -1.6699  -1.6555  -1.5555  -1.4526
    -1.3769  -1.3418  -1.2797  -1.2272  -1.2076  -1.1354  -1.1136  -1.0957
    -1.0387  -1.0382  -1.0379  -1.0364  -1.0068  -0.9742  -0.9690  -0.8810
    -0.8478  -0.8310  -0.8142  -0.8123  -0.8113  -0.8061  -0.6786  -0.6758
    -0.6269  -0.5547  -0.4610  -0.3810  -0.3719  -0.3673  -0.3097  -0.2884
    -0.2528  -0.2485  -0.2470  -0.2437  -0.1882  -0.1729  -0.1480  -0.1268
    -0.1001  -0.0734  -0.0594  -0.0582  -0.0503  -0.0281   0.0108   0.0582
     0.0598   0.0685   0.0881   0.0988   0.1009   0.1032   0.1553   0.1567
     0.1942   0.1960   0.2195   0.2536   0.2857   0.2979   0.3196   0.3439
     0.4104   0.4162   0.4670   0.4739   0.4869   0.4894   0.4909   0.4947
     0.5954   0.6190   0.6256   0.7027   0.7427   0.9105   0.9240   0.9245
     0.9461   0.9708   0.9713   1.0251   1.0260   1.0521   1.0951   1.0958
     1.1436   1.1606   1.1647   1.2184   1.2239   1.2245   1.2329   1.2438
     1.2855   1.3260   1.3492   1.3527   1.3712   1.3720   1.5140   1.5144
     1.5709   1.6512   1.6563   1.6651   1.7194   1.7258   1.7370   1.7418
     1.7680   1.7877   1.8094   1.8551   1.8706   1.9867   1.9966   2.0067
     2.0093   2.1538   2.1600   2.1905   2.2093   2.2492   2.3460   2.3487
     2.5154   2.5160   2.5174   2.5751   2.8011   2.8056   4.7618   5.1631
     5.1875   5.4963   5.7602   5.9723   6.4621   6.5091   6.5477   6.5874
     6.6891   7.2040   7.2165   7.2281   7.3071   7.3086   7.4752   7.6557
     7.8792   7.9607   7.9952   8.0320   8.0743   8.0877   8.2357   8.3081
     8.3858   8.4297   8.4728   8.5800   8.5923   8.7901   8.9059   8.9136
     8.9344   9.0554

          k = 0.0000 0.2618 0.0000 ( 71195 PWs)   bands (ev):

   -38.1506 -37.8753 -35.7795 -35.4690 -24.0666 -23.7106 -22.9100 -22.8887
   -22.7871 -22.7664 -22.7427 -22.5985 -18.5897 -18.5168 -18.2853 -18.2672
   -18.2607 -18.0008 -17.0997 -16.9894 -16.8769 -16.7598 -16.6999 -16.5780
   -15.4321 -15.2223 -15.1404 -15.0380 -15.0073 -15.0000 -14.7482 -14.6813
   -14.6110 -14.5907 -14.5646 -14.5193 -14.4109 -14.3648 -14.2695 -14.2212
   -14.1757 -14.1698 -14.1449 -14.1035 -14.1014 -14.0896 -14.0810 -14.0556
   -14.0174 -13.9151 -13.8897 -13.8229 -13.7476 -13.5026  -9.4139  -8.9982
    -8.8942  -8.8789  -8.6565  -8.6087  -8.1660  -8.1408  -8.0786  -8.0555
    -8.0529  -7.9413  -7.9403  -7.9213  -7.8881  -7.8812  -7.8669  -7.8616
    -7.8150  -7.7948  -7.7442  -7.6825  -7.6722  -7.6330  -3.2054  -3.1469
    -3.0046  -2.6256  -2.4104  -2.3734  -2.3318  -2.3030  -2.2893  -2.1808
    -2.1640  -2.1632  -2.1489  -2.1032  -2.0801  -2.0680  -2.0197  -1.9860
    -1.9728  -1.8579  -1.8198  -1.7602  -1.7358  -1.6524  -1.6032  -1.5803
    -1.4845  -1.4838  -1.4742  -1.4580  -1.4528  -1.4520  -1.4497  -1.3838
    -1.3794  -1.3532  -1.2344  -1.1392  -1.0002  -0.9719  -0.9031  -0.8554
    -0.8527  -0.8251  -0.7591  -0.7469  -0.7288  -0.7287  -0.6627  -0.6345
    -0.5967  -0.5837  -0.4681  -0.4621  -0.4568  -0.4517  -0.4167  -0.3878
    -0.3877  -0.3536  -0.3424  -0.2658  -0.2464  -0.2093  -0.2077  -0.1698
    -0.1617  -0.1176  -0.0802  -0.0559  -0.0545   0.0199   0.0335   0.0694
     0.0787   0.0926   0.1045   0.1226   0.1316   0.2037   0.2190   0.2209
     0.2492   0.2560   0.3151   0.3250   0.3252   0.3306   0.3558   0.3665
     0.3929   0.4028   0.5104   0.5144   0.5405   0.5481   0.5699   0.6004
     0.6006   0.7143   0.7552   0.7794   0.8160   0.8797   0.8903   0.9100
     0.9352   0.9474   1.0482   1.0679   1.1019   1.1137   1.1186   1.1323
     1.1543   1.1880   1.2003   1.2332   1.2428   1.2989   1.3154   1.3294
     1.3451   1.3698   1.3836   1.4037   1.4071   1.4524   1.4528   1.4746
     1.4995   1.6068   1.6193   1.6595   1.6751   1.6972   1.7478   1.7655
     1.7756   1.7808   1.8301   1.8341   1.9069   1.9251   1.9741   1.9963
     2.1321   2.1926   2.2390   2.3800   2.7223   2.7402   2.7590   2.8153
     2.8224   2.8365   2.9084   2.9656   3.1155   3.2225   5.0181   5.5463
     5.5565   5.7808   5.9551   6.1668   6.5426   6.6099   6.8276   6.8915
     6.9501   7.0485   7.0589   7.2036   7.4532   7.5215   7.5886   7.6983
     7.7669   7.8442   8.0547   8.0943   8.1306   8.1957   8.2761   8.3860
     8.5599   8.6251   8.6778   8.6849   8.7318   8.7563   8.8472   9.0254
     9.0823   9.1608

          k = 0.0000 0.5236 0.0000 ( 71061 PWs)   bands (ev):

   -38.1441 -37.8688 -35.7754 -35.4649 -24.0202 -23.6668 -22.8494 -22.8280
   -22.7403 -22.7196 -22.6846 -22.5525 -18.5076 -18.4994 -18.4899 -18.2431
   -18.2428 -18.1835 -17.0299 -17.0164 -16.9789 -16.7272 -16.6891 -16.6793
   -15.1913 -15.0186 -14.9516 -14.8885 -14.8816 -14.8486 -14.7393 -14.6539
   -14.6449 -14.5642 -14.5288 -14.3432 -14.3169 -14.2971 -14.2935 -14.2610
   -14.2138 -14.1540 -14.1047 -14.0766 -14.0732 -14.0713 -14.0570 -14.0420
   -14.0389 -13.9447 -13.9402 -13.9377 -13.7737 -13.5293  -9.3751  -9.2733
    -9.0624  -8.9399  -8.8313  -8.6200  -8.3534  -8.3323  -8.1938  -8.1747
    -8.1725  -8.1292  -8.1041  -8.0587  -8.0368  -8.0119  -7.9850  -7.9525
    -7.9321  -7.9063  -7.8234  -7.8037  -7.7679  -7.6018  -3.5993  -3.4890
    -3.2492  -2.9018  -2.8595  -2.8494  -2.8350  -2.7338  -2.6912  -2.5228
    -2.4916  -2.3918  -2.3769  -2.3383  -2.3333  -2.2966  -2.2954  -2.1546
    -2.1541  -2.1517  -2.1442  -2.1352  -2.1272  -2.1174  -2.0417  -1.9171
    -1.8544  -1.7787  -1.7477  -1.7432  -1.6690  -1.6413  -1.5695  -1.5514
    -1.4408  -1.3029  -1.2968  -1.1992  -1.0568  -1.0301  -1.0075  -0.9807
    -0.9718  -0.9465  -0.9355  -0.9042  -0.8995  -0.8075  -0.7954  -0.7216
    -0.7037  -0.6647  -0.6449  -0.6288  -0.6017  -0.5906  -0.5769  -0.5768
    -0.5530  -0.5367  -0.5024  -0.4820  -0.4634  -0.4061  -0.4058  -0.3827
    -0.3550  -0.3488  -0.3256  -0.2905  -0.2063  -0.0121   0.0315   0.0828
     0.1179   0.1312   0.1450   0.1494   0.1572   0.1889   0.2351   0.2513
     0.3039   0.3443   0.4344   0.4818   0.5256   0.5344   0.5596   0.6091
     0.6288   0.7154   0.7189   0.7708   0.7746   0.8045   0.8265   0.8924
     0.9417   0.9776   0.9823   1.0042   1.0374   1.0918   1.1293   1.1598
     1.1678   1.1871   1.1900   1.1951   1.2025   1.2081   1.2175   1.2354
     1.3092   1.3103   1.3145   1.3592   1.3664   1.3759   1.4112   1.4195
     1.4251   1.4745   1.4992   1.5339   1.5515   1.5558   1.6085   1.6505
     1.7078   1.7083   1.7385   1.7550   1.7786   1.7863   1.8025   1.8186
     1.8348   1.8574   1.9750   1.9759   2.0146   2.0154   2.0248   2.0264
     2.1107   2.2405   2.3710   2.4510   3.0154   3.0184   3.0524   3.0622
     3.4386   3.4923   3.7635   3.7978   3.8807   4.0635   5.3419   5.9510
     6.4474   6.4509   6.5025   6.5659   6.5672   6.5790   6.8898   6.9325
     7.0308   7.1742   7.3116   7.3220   7.7472   7.7746   7.9796   8.0764
     8.3016   8.3636   8.3772   8.4447   8.5241   8.5606   8.5984   8.6142
     8.6641   8.7508   8.7950   8.8145   8.9032   9.0110   9.0445   9.1168
     9.1529   9.3145

          k = 0.0000 0.7854 0.0000 ( 71116 PWs)   bands (ev):

   -38.1376 -37.8622 -35.7713 -35.4608 -23.9729 -23.6221 -22.7871 -22.7656
   -22.6923 -22.6717 -22.6250 -22.5054 -18.7162 -18.4819 -18.4513 -18.3842
   -18.2255 -18.0775 -17.1516 -16.9686 -16.9433 -16.8540 -16.6784 -16.5998
   -14.9723 -14.9032 -14.8445 -14.7234 -14.7198 -14.6901 -14.6726 -14.6600
   -14.6354 -14.5667 -14.4650 -14.4185 -14.4037 -14.2780 -14.2524 -14.2395
   -14.2300 -14.2236 -14.1292 -14.0333 -14.0300 -14.0264 -14.0102 -13.9931
   -13.9930 -13.9860 -13.9515 -13.8540 -13.7471 -13.5314  -9.6661  -9.3249
    -9.3197  -8.9523  -8.8688  -8.7484  -8.7273  -8.5567  -8.5455  -8.4888
    -8.4696  -8.2404  -8.1332  -8.1085  -8.0690  -8.0583  -8.0411  -8.0217
    -8.0012  -7.8852  -7.8408  -7.7022  -7.6825  -7.4906  -4.0839  -3.9601
    -3.6529  -3.3969  -3.2972  -3.2711  -3.2655  -3.2607  -3.0546  -2.9130
    -2.9128  -2.8473  -2.8470  -2.7655  -2.6681  -2.6483  -2.5035  -2.4111
    -2.2722  -2.2666  -2.2611  -2.2482  -2.1941  -2.1881  -2.1465  -2.1292
    -2.0448  -1.9480  -1.8183  -1.7950  -1.7406  -1.7198  -1.6856  -1.6235
    -1.5387  -1.2822  -1.2602  -1.2532  -1.2251  -1.1985  -1.1653  -1.1353
    -1.1251  -1.1150  -1.0766  -1.0663  -1.0488  -1.0217  -0.9743  -0.9280
    -0.8774  -0.8608  -0.8412  -0.8185  -0.7981  -0.7940  -0.7724  -0.7649
    -0.6555  -0.6547  -0.6411  -0.6200  -0.6167  -0.5642  -0.5283  -0.5240
    -0.4939  -0.4478  -0.3274  -0.2647  -0.2612  -0.0767  -0.0565   0.0011
     0.1099   0.1465   0.1520   0.1607   0.1791   0.2026   0.2368   0.2982
     0.3053   0.4617   0.5191   0.5543   0.5714   0.6862   0.7267   0.7757
     0.8123   0.8462   0.9051   0.9430   0.9470   0.9793   1.0089   1.0440
     1.0607   1.0837   1.1875   1.1952   1.2011   1.2102   1.2715   1.2735
     1.3034   1.3094   1.3246   1.3509   1.4027   1.4292   1.4302   1.4510
     1.4936   1.5154   1.5798   1.5855   1.6130   1.6675   1.6693   1.6747
     1.6961   1.7085   1.7305   1.7308   1.7507   1.7631   1.7718   1.7852
     1.8034   1.8572   1.8979   1.9546   1.9779   1.9811   2.0054   2.0153
     2.0513   2.0678   2.0792   2.1275   2.1425   2.1951   2.1976   2.3256
     2.3799   2.4193   2.4195   2.4282   2.8626   2.8648   2.9653   2.9749
     3.7623   3.8214   4.4093   4.4440   4.4716   4.6555   5.1680   6.0357
     6.0458   6.2299   6.4425   6.6509   6.6785   7.2003   7.2995   7.3746
     7.3896   7.6221   7.7660   7.8754   8.0909   8.2353   8.3946   8.4395
     8.5264   8.5839   8.6371   8.7205   8.7251   8.7669   8.8647   8.8772
     8.9798   9.0774   9.0886   9.1200   9.2049   9.2340   9.3808   9.3966
     9.4524   9.4866

          k = 0.0000-1.0472 0.0000 ( 71150 PWs)   bands (ev):

   -38.1349 -37.8595 -35.7696 -35.4590 -23.9531 -23.6032 -22.7607 -22.7391
   -22.6721 -22.6515 -22.5998 -22.4855 -18.7968 -18.5319 -18.4747 -18.3369
   -18.2183 -18.0299 -17.2020 -16.9643 -16.9076 -16.9043 -16.6740 -16.5636
   -14.9784 -14.9260 -14.7817 -14.7046 -14.6173 -14.6129 -14.5927 -14.5483
   -14.5477 -14.5412 -14.4865 -14.4727 -14.4715 -14.3847 -14.2804 -14.2731
   -14.2400 -14.1858 -14.1068 -14.0686 -14.0281 -13.9967 -13.9939 -13.9763
   -13.9753 -13.9097 -13.9036 -13.8162 -13.7662 -13.5137  -9.8224  -9.4309
    -9.2980  -8.9836  -8.9017  -8.8806  -8.8555  -8.6983  -8.6076  -8.5883
    -8.5335  -8.3337  -8.1398  -8.1137  -8.0749  -8.0558  -8.0493  -8.0343
    -8.0288  -7.8845  -7.8592  -7.6496  -7.6298  -7.4422  -4.2860  -4.1622
    -3.8395  -3.6051  -3.4769  -3.4550  -3.4549  -3.4214  -3.2004  -3.1482
    -3.1459  -3.0776  -3.0771  -2.9129  -2.6969  -2.6775  -2.5372  -2.5258
    -2.3905  -2.2833  -2.2825  -2.2779  -2.1814  -2.1753  -2.1589  -2.1549
    -2.1289  -2.0146  -1.9299  -1.9100  -1.7705  -1.7686  -1.6342  -1.5245
    -1.3840  -1.3653  -1.3573  -1.3235  -1.3006  -1.2829  -1.2673  -1.2271
    -1.1927  -1.1798  -1.1098  -1.1097  -1.1003  -1.0907  -1.0489  -1.0167
    -0.9714  -0.9547  -0.9036  -0.8877  -0.8856  -0.8768  -0.8755  -0.7773
    -0.7445  -0.7443  -0.7438  -0.7056  -0.6525  -0.5632  -0.5536  -0.5094
    -0.4979  -0.4197  -0.3239  -0.2288  -0.2266  -0.1823  -0.1312  -0.0720
     0.1082   0.1268   0.1609   0.1671   0.1988   0.2291   0.2400   0.2406
     0.3454   0.3886   0.5244   0.5432   0.5779   0.7043   0.8154   0.8389
     0.8532   0.8900   0.9245   0.9943   1.0430   1.0735   1.0785   1.1163
     1.1673   1.1872   1.2045   1.2539   1.2758   1.3113   1.3334   1.3349
     1.3471   1.3512   1.3846   1.3929   1.4031   1.4355   1.4563   1.4690
     1.5464   1.6169   1.6450   1.6714   1.7341   1.7421   1.7435   1.7683
     1.7728   1.8445   1.8474   1.8630   1.8927   1.9033   1.9274   1.9437
     1.9661   2.0127   2.0155   2.1010   2.1100   2.1301   2.1336   2.1593
     2.1674   2.1767   2.1953   2.2110   2.2116   2.2118   2.2701   2.3984
     2.3989   2.5759   2.5825   2.5828   2.6281   2.6332   2.7962   2.8052
     3.7911   3.8862   4.6145   4.6583   4.6832   4.8529   5.0934   5.7964
     5.8065   6.3043   6.3601   6.5668   6.8656   7.1984   7.2201   7.6383
     7.7752   7.7864   7.9624   8.0933   8.1639   8.3336   8.4881   8.5837
     8.6564   8.7003   8.7600   8.8277   8.8805   8.9296   8.9750   9.0824
     9.0892   9.1192   9.1197   9.1934   9.2188   9.2507   9.3112   9.3842
     9.4600   9.6681

          k = 0.1250 0.0000 0.0000 ( 71201 PWs)   bands (ev):

   -38.1533 -37.8780 -35.7812 -35.4707 -24.0846 -23.7295 -22.9301 -22.9088
   -22.8110 -22.7903 -22.7628 -22.6210 -18.6277 -18.5209 -18.3234 -18.2649
   -18.1564 -17.8898 -17.1321 -17.0057 -16.8109 -16.7928 -16.7169 -16.5120
   -15.5108 -15.2921 -15.2010 -15.0803 -15.0581 -15.0427 -14.7796 -14.6956
   -14.6541 -14.6506 -14.5972 -14.5804 -14.4361 -14.4148 -14.2942 -14.2234
   -14.1934 -14.1424 -14.1214 -14.1176 -14.1090 -14.1015 -14.0838 -14.0472
   -14.0222 -13.9133 -13.8427 -13.7662 -13.7104 -13.4874  -9.4308  -9.0189
    -8.8438  -8.8150  -8.5441  -8.5008  -8.1751  -8.1493  -8.0711  -8.0464
    -8.0446  -7.9702  -7.9596  -7.9508  -7.8375  -7.8168  -7.7560  -7.7469
    -7.7366  -7.6333  -7.6172  -7.5965  -7.5799  -7.4277  -3.0692  -3.0300
    -2.9101  -2.5421  -2.2867  -2.2745  -2.2221  -2.2140  -2.1617  -2.1528
    -2.1196  -2.0483  -2.0215  -1.9604  -1.9410  -1.9184  -1.7962  -1.7949
    -1.7608  -1.7488  -1.7005  -1.6876  -1.6666  -1.6358  -1.5391  -1.4954
    -1.4334  -1.3212  -1.3090  -1.1987  -1.1694  -1.1156  -1.0924  -1.0812
    -1.0374  -1.0360  -1.0357  -1.0349  -0.9976  -0.9955  -0.9609  -0.8841
    -0.8396  -0.8339  -0.8146  -0.7980  -0.7912  -0.7863  -0.6814  -0.6512
    -0.5879  -0.5550  -0.4431  -0.4253  -0.4085  -0.3624  -0.3206  -0.3023
    -0.2936  -0.2714  -0.2674  -0.2657  -0.1842  -0.1823  -0.1605  -0.1413
    -0.1019  -0.0777  -0.0646  -0.0620  -0.0538  -0.0379  -0.0287   0.0253
     0.0448   0.0955   0.1115   0.1266   0.1371   0.1388   0.1580   0.1585
     0.1940   0.1951   0.2357   0.2376   0.3034   0.3241   0.3325   0.3656
     0.3919   0.4148   0.4221   0.4617   0.4679   0.4695   0.4991   0.5252
     0.5943   0.6454   0.6662   0.6923   0.7728   0.8422   0.8702   0.9248
     0.9401   0.9686   0.9958   1.0055   1.0336   1.0356   1.0516   1.1055
     1.1096   1.1407   1.1580   1.1931   1.1949   1.2264   1.2465   1.2470
     1.2702   1.3283   1.3503   1.3530   1.4041   1.4201   1.5033   1.5603
     1.6098   1.6449   1.6729   1.6778   1.6916   1.7016   1.7120   1.7561
     1.7712   1.7735   1.8127   1.8347   1.8699   1.9747   1.9834   1.9940
     2.0510   2.1368   2.1769   2.1940   2.2237   2.2398   2.3460   2.3473
     2.5135   2.5258   2.5285   2.5861   2.7955   2.8037   4.8165   5.2132
     5.2341   5.5473   5.8054   5.9827   6.4129   6.5525   6.6046   6.6424
     6.7334   6.8485   6.8534   7.1893   7.4486   7.6387   7.6724   7.6855
     7.8609   7.9443   8.0182   8.0455   8.0755   8.0924   8.2265   8.3091
     8.3488   8.4315   8.5421   8.5909   8.6257   8.7581   8.8253   8.9050
     8.9579   9.0647

          k = 0.1250 0.2618 0.0000 ( 71153 PWs)   bands (ev):

   -38.1506 -37.8753 -35.7795 -35.4690 -24.0657 -23.7116 -22.9057 -22.8844
   -22.7917 -22.7710 -22.7394 -22.6020 -18.5891 -18.5137 -18.2846 -18.2672
   -18.2576 -18.0008 -17.1025 -17.0008 -16.8768 -16.7629 -16.7117 -16.5779
   -15.4054 -15.1977 -15.1327 -15.0260 -15.0103 -14.9882 -14.7415 -14.6870
   -14.6147 -14.5974 -14.5799 -14.5690 -14.3714 -14.3705 -14.2700 -14.2171
   -14.1793 -14.1583 -14.1510 -14.1043 -14.0996 -14.0916 -14.0822 -14.0591
   -14.0241 -13.9201 -13.8964 -13.8263 -13.7450 -13.5014  -9.4151  -9.0091
    -8.9236  -8.8772  -8.6350  -8.5890  -8.1680  -8.1429  -8.0842  -8.0616
    -8.0567  -7.9963  -7.9765  -7.9474  -7.9235  -7.9034  -7.8255  -7.8051
    -7.7823  -7.7685  -7.7484  -7.7362  -7.6126  -7.5892  -3.1694  -3.1103
    -2.9693  -2.5883  -2.4192  -2.3821  -2.3374  -2.2945  -2.2813  -2.1895
    -2.1688  -2.1614  -2.1479  -2.1061  -2.0838  -2.0710  -2.0260  -2.0011
    -1.9712  -1.8945  -1.8473  -1.8209  -1.7312  -1.6718  -1.5967  -1.5650
    -1.4827  -1.4796  -1.4553  -1.4547  -1.4479  -1.4378  -1.4354  -1.4245
    -1.3585  -1.3513  -1.2398  -1.1352  -0.9837  -0.9627  -0.9138  -0.8680
    -0.8467  -0.8133  -0.7704  -0.7543  -0.7274  -0.6925  -0.6799  -0.6495
    -0.6453  -0.5898  -0.4936  -0.4720  -0.4671  -0.4510  -0.4316  -0.4014
    -0.3889  -0.3674  -0.3612  -0.2953  -0.2205  -0.2063  -0.1989  -0.1826
    -0.1680  -0.0946  -0.0853  -0.0574  -0.0542   0.0091   0.0249   0.0474
     0.0814   0.0956   0.1098   0.1154   0.1471   0.1881   0.2318   0.2334
     0.2337   0.2700   0.3133   0.3197   0.3224   0.3557   0.3739   0.3761
     0.4086   0.4124   0.4533   0.5015   0.5271   0.5497   0.5652   0.5814
     0.5863   0.7164   0.7935   0.8114   0.8431   0.8841   0.8971   0.9081
     0.9450   0.9769   1.0349   1.0444   1.0544   1.0899   1.1374   1.1500
     1.1538   1.1920   1.2124   1.2163   1.2357   1.2519   1.2842   1.3365
     1.3440   1.3462   1.3587   1.3704   1.4188   1.4419   1.4717   1.5202
     1.5362   1.6116   1.6269   1.6567   1.6650   1.6981   1.7192   1.7363
     1.7463   1.7820   1.7931   1.8234   1.8607   1.9965   2.0526   2.0723
     2.1076   2.2160   2.2930   2.4733   2.7247   2.7390   2.7570   2.8180
     2.8242   2.8343   2.9063   2.9624   3.1071   3.2207   5.0571   5.5837
     5.5926   5.8259   5.9678   6.1981   6.5151   6.6370   6.8597   6.8822
     6.8931   6.9457   6.9970   7.1883   7.4774   7.5691   7.7157   7.7353
     7.8175   7.8507   8.0539   8.1115   8.1272   8.2147   8.2714   8.3999
     8.5294   8.5824   8.6583   8.7166   8.7520   8.8074   8.8273   8.9796
     9.0650   9.0765

          k = 0.1250 0.5236 0.0000 ( 71120 PWs)   bands (ev):

   -38.1441 -37.8688 -35.7754 -35.4649 -24.0195 -23.6676 -22.8457 -22.8243
   -22.7442 -22.7236 -22.6818 -22.5555 -18.5075 -18.4963 -18.4893 -18.2429
   -18.2400 -18.1829 -17.0316 -17.0173 -16.9890 -16.7276 -16.6995 -16.6818
   -15.1667 -14.9987 -14.9469 -14.8835 -14.8821 -14.8438 -14.7374 -14.6486
   -14.6429 -14.5642 -14.5266 -14.4056 -14.3263 -14.2902 -14.2619 -14.2532
   -14.2143 -14.1531 -14.1133 -14.0753 -14.0719 -14.0714 -14.0560 -14.0418
   -14.0405 -13.9615 -13.9520 -13.9351 -13.7677 -13.5269  -9.3751  -9.2915
    -9.0506  -8.9402  -8.8515  -8.5947  -8.3872  -8.3665  -8.1942  -8.1486
    -8.1271  -8.1168  -8.0936  -8.0651  -8.0434  -8.0283  -8.0203  -8.0006
    -7.9217  -7.9061  -7.8323  -7.7713  -7.7515  -7.5631  -3.5638  -3.4531
    -3.2123  -2.9109  -2.8582  -2.8333  -2.8203  -2.7356  -2.6945  -2.5177
    -2.4871  -2.3935  -2.3744  -2.3393  -2.3340  -2.2963  -2.2944  -2.1548
    -2.1537  -2.1502  -2.1431  -2.1334  -2.1299  -2.1169  -2.0091  -1.8931
    -1.8881  -1.7968  -1.7685  -1.7460  -1.7258  -1.6368  -1.5649  -1.5503
    -1.4226  -1.3656  -1.3100  -1.2072  -1.0743  -1.0361  -1.0079  -0.9884
    -0.9716  -0.9513  -0.9459  -0.9047  -0.8995  -0.8184  -0.7859  -0.7757
    -0.7379  -0.6878  -0.6715  -0.6476  -0.6287  -0.6155  -0.5711  -0.5700
    -0.5578  -0.5334  -0.5003  -0.4896  -0.4613  -0.4546  -0.4156  -0.4038
    -0.3380  -0.3340  -0.3186  -0.2461  -0.2124   0.0046   0.0236   0.0929
     0.1031   0.1121   0.1243   0.1372   0.1630   0.1968   0.2628   0.2697
     0.3225   0.3626   0.4212   0.4721   0.4923   0.5251   0.5767   0.5855
     0.6034   0.7029   0.7109   0.7844   0.7969   0.8065   0.8399   0.9435
     0.9496   0.9684   0.9969   1.0208   1.0705   1.0949   1.1045   1.1086
     1.1366   1.1433   1.1871   1.1980   1.2244   1.2416   1.2529   1.2819
     1.2970   1.3101   1.3209   1.3492   1.3678   1.3920   1.4006   1.4141
     1.4331   1.4512   1.4653   1.5203   1.5468   1.5740   1.5964   1.6171
     1.6877   1.7121   1.7170   1.7524   1.7664   1.7796   1.7941   1.8294
     1.8782   1.9095   1.9273   1.9999   2.0059   2.0084   2.0763   2.1607
     2.1700   2.2426   2.4578   2.5871   3.0165   3.0196   3.0534   3.0644
     3.4399   3.4909   3.7314   3.7664   3.8522   4.0371   5.3772   5.9798
     6.4629   6.4665   6.4938   6.5511   6.5750   6.5909   6.9086   6.9560
     7.0501   7.1678   7.3023   7.3510   7.7954   7.8214   8.0094   8.0506
     8.2356   8.3513   8.3559   8.4379   8.4873   8.5534   8.5941   8.6436
     8.6855   8.7507   8.7617   8.7935   8.9110   8.9930   9.0093   9.0964
     9.1899   9.3091

          k = 0.1250 0.7854 0.0000 ( 71124 PWs)   bands (ev):

   -38.1376 -37.8622 -35.7713 -35.4608 -23.9724 -23.6227 -22.7839 -22.7624
   -22.6956 -22.6751 -22.6226 -22.5079 -18.7162 -18.4789 -18.4513 -18.3836
   -18.2226 -18.0769 -17.1516 -16.9779 -16.9454 -16.8540 -16.6880 -16.6021
   -14.9561 -14.8922 -14.8282 -14.7220 -14.7186 -14.6924 -14.6671 -14.6543
   -14.6300 -14.5670 -14.4616 -14.4188 -14.4004 -14.2724 -14.2577 -14.2521
   -14.2468 -14.2242 -14.1214 -14.0436 -14.0276 -14.0252 -14.0075 -13.9941
   -13.9938 -13.9924 -13.9556 -13.8727 -13.7441 -13.5321  -9.6515  -9.3257
    -9.2897  -8.9837  -8.8735  -8.7387  -8.7177  -8.5732  -8.5291  -8.4467
    -8.4274  -8.2057  -8.1323  -8.1080  -8.0699  -8.0672  -8.0589  -8.0475
    -8.0426  -7.9035  -7.8644  -7.7172  -7.6974  -7.5077  -4.0470  -3.9243
    -3.6183  -3.3950  -3.3105  -3.2738  -3.2719  -3.2328  -3.0638  -2.9106
    -2.9103  -2.8497  -2.8495  -2.7717  -2.6544  -2.6343  -2.4920  -2.3821
    -2.2629  -2.2627  -2.2501  -2.2317  -2.1931  -2.1860  -2.1507  -2.1277
    -2.0261  -1.9406  -1.8263  -1.7849  -1.7391  -1.7192  -1.6913  -1.6419
    -1.6248  -1.3052  -1.3028  -1.2724  -1.2482  -1.2105  -1.1639  -1.1428
    -1.1211  -1.1088  -1.1031  -1.0968  -1.0522  -1.0412  -1.0120  -1.0020
    -0.8730  -0.8705  -0.8623  -0.8277  -0.7909  -0.7894  -0.7768  -0.7550
    -0.7421  -0.6709  -0.6590  -0.6084  -0.5867  -0.5607  -0.5263  -0.5202
    -0.4912  -0.4101  -0.3111  -0.2755  -0.2722  -0.0924   0.0195   0.0618
     0.1053   0.1292   0.1483   0.1702   0.1807   0.2247   0.2617   0.2953
     0.3297   0.4856   0.5085   0.5362   0.5547   0.6188   0.7014   0.8069
     0.8276   0.8497   0.9324   0.9403   0.9545   0.9594   1.0387   1.0587
     1.0647   1.0928   1.1688   1.1892   1.2099   1.2258   1.2548   1.2665
     1.2808   1.3064   1.3223   1.3488   1.3822   1.4170   1.4273   1.4728
     1.4754   1.5302   1.5588   1.5764   1.5909   1.6656   1.6806   1.6851
     1.7032   1.7123   1.7191   1.7399   1.7706   1.7768   1.7852   1.7939
     1.8069   1.8328   1.9147   1.9508   1.9633   1.9974   2.0248   2.0368
     2.0599   2.0785   2.1109   2.1717   2.1851   2.2047   2.2068   2.3953
     2.4088   2.4110   2.4186   2.5101   2.8648   2.8668   2.9703   2.9822
     3.7676   3.8232   4.3450   4.3812   4.4140   4.5992   5.2112   6.0908
     6.1007   6.2368   6.4553   6.6182   6.7154   7.1867   7.3111   7.3445
     7.3564   7.6170   7.7585   7.8266   8.0465   8.2416   8.2945   8.4342
     8.5265   8.5453   8.5886   8.7389   8.7688   8.8147   8.8690   8.9851
     9.0008   9.0681   9.0815   9.1563   9.2255   9.2499   9.3897   9.4183
     9.4837   9.5024

          k = 0.1250-1.0472 0.0000 ( 71186 PWs)   bands (ev):

   -38.1349 -37.8595 -35.7696 -35.4590 -23.9526 -23.6038 -22.7578 -22.7362
   -22.6752 -22.6546 -22.5976 -22.4878 -18.7967 -18.5319 -18.4718 -18.3364
   -18.2153 -18.0294 -17.2020 -16.9733 -16.9096 -16.9043 -16.6833 -16.5658
   -14.9671 -14.9145 -14.7581 -14.7022 -14.6045 -14.5934 -14.5923 -14.5716
   -14.5639 -14.5470 -14.4776 -14.4658 -14.4645 -14.3763 -14.2726 -14.2695
   -14.2512 -14.2034 -14.1246 -14.0683 -14.0270 -13.9958 -13.9934 -13.9770
   -13.9762 -13.9161 -13.9106 -13.8296 -13.7613 -13.5194  -9.7914  -9.4056
    -9.2977  -9.0150  -8.8714  -8.8559  -8.8503  -8.6692  -8.5771  -8.5620
    -8.5578  -8.3110  -8.1359  -8.1101  -8.0843  -8.0740  -8.0638  -8.0586
    -8.0372  -7.9168  -7.8597  -7.6934  -7.6736  -7.4824  -4.2480  -4.1258
    -3.8055  -3.6028  -3.4786  -3.4706  -3.4370  -3.4211  -3.2116  -3.1458
    -3.1438  -3.0802  -3.0798  -2.9208  -2.6800  -2.6603  -2.5111  -2.5109
    -2.3643  -2.2857  -2.2802  -2.2623  -2.1824  -2.1760  -2.1605  -2.1299
    -2.1275  -2.0084  -1.9029  -1.8743  -1.7692  -1.7585  -1.6453  -1.5592
    -1.4898  -1.4269  -1.3757  -1.3552  -1.3410  -1.3021  -1.2569  -1.2284
    -1.2186  -1.2160  -1.1318  -1.1259  -1.1199  -1.0898  -1.0414  -1.0294
    -0.9992  -0.9732  -0.8904  -0.8892  -0.8823  -0.8771  -0.8753  -0.8615
    -0.7782  -0.7579  -0.7492  -0.6920  -0.6548  -0.5408  -0.5356  -0.5130
    -0.4780  -0.3875  -0.3050  -0.2427  -0.2408  -0.1595  -0.0406  -0.0084
     0.1059   0.1300   0.1749   0.1853   0.2046   0.2185   0.2501   0.2755
     0.3370   0.4341   0.5066   0.5532   0.5728   0.5752   0.7798   0.8666
     0.8816   0.9313   0.9698   0.9841   1.0276   1.0368   1.0563   1.1315
     1.1507   1.1998   1.2228   1.2332   1.2588   1.2815   1.3378   1.3410
     1.3550   1.3583   1.3682   1.3799   1.4316   1.4371   1.4449   1.4792
     1.5373   1.6262   1.6482   1.6600   1.7261   1.7386   1.7815   1.7832
     1.7840   1.8323   1.8376   1.8975   1.9091   1.9328   1.9580   1.9624
     1.9774   2.0224   2.0226   2.0816   2.1201   2.1342   2.1377   2.1502
     2.1561   2.1721   2.1989   2.2191   2.2552   2.2719   2.3502   2.4051
     2.4055   2.5404   2.5754   2.5756   2.6330   2.6372   2.8069   2.8195
     3.7960   3.8979   4.5356   4.5795   4.6093   4.7826   5.1305   5.8645
     5.8742   6.2760   6.3885   6.5970   6.8928   7.1843   7.2312   7.5495
     7.6827   7.6947   7.9294   8.0991   8.1601   8.1642   8.3819   8.4836
     8.6135   8.7902   8.8155   8.9161   8.9729   9.0132   9.0421   9.0631
     9.1408   9.1711   9.1870   9.2325   9.2651   9.2865   9.3682   9.3741
     9.4672   9.6362

          k = 0.2500 0.0000 0.0000 ( 71157 PWs)   bands (ev):

   -38.1533 -37.8780 -35.7812 -35.4707 -24.0824 -23.7321 -22.9174 -22.8960
   -22.8244 -22.8038 -22.7537 -22.6307 -18.6259 -18.5130 -18.3216 -18.2571
   -18.1564 -17.8897 -17.1392 -17.0340 -16.8110 -16.8005 -16.7462 -16.5120
   -15.4369 -15.2233 -15.1776 -15.0690 -15.0456 -15.0066 -14.7809 -14.7510
   -14.6965 -14.6750 -14.6269 -14.6008 -14.4397 -14.3660 -14.3121 -14.2097
   -14.1599 -14.1444 -14.1229 -14.1161 -14.1123 -14.1038 -14.0924 -14.0510
   -14.0337 -13.9159 -13.8831 -13.7798 -13.7081 -13.4858  -9.4374  -9.0425
    -8.8069  -8.8068  -8.5482  -8.5104  -8.1799  -8.1543  -8.0784  -8.0540
    -8.0540  -7.9753  -7.9370  -7.9178  -7.8139  -7.7930  -7.7750  -7.7555
    -7.7129  -7.6434  -7.6229  -7.6117  -7.5871  -7.4515  -2.9685  -2.9287
    -2.8166  -2.4402  -2.3054  -2.2830  -2.2591  -2.2494  -2.2001  -2.1525
    -2.1297  -2.0616  -2.0412  -2.0106  -2.0060  -1.9540  -1.8349  -1.8136
    -1.7513  -1.7405  -1.7081  -1.7031  -1.6612  -1.5927  -1.5824  -1.5653
    -1.4722  -1.3556  -1.2642  -1.1702  -1.1020  -1.0826  -1.0609  -1.0360
    -1.0334  -1.0324  -1.0295  -1.0073  -1.0026  -0.9909  -0.9380  -0.8951
    -0.8826  -0.8336  -0.7702  -0.7520  -0.7322  -0.7277  -0.7014  -0.5836
    -0.5834  -0.5574  -0.5163  -0.4348  -0.4151  -0.3995  -0.3932  -0.3365
    -0.3320  -0.3227  -0.3211  -0.3083  -0.2497  -0.1987  -0.1253  -0.1196
    -0.1161  -0.0966  -0.0775  -0.0740  -0.0723  -0.0650  -0.0515  -0.0057
     0.0099   0.0799   0.1554   0.1595   0.1609   0.1707   0.1821   0.1835
     0.2109   0.2255   0.2279   0.2573   0.3133   0.3198   0.3535   0.3724
     0.3991   0.4003   0.4481   0.4505   0.4508   0.4699   0.5112   0.5768
     0.5888   0.6214   0.7087   0.7537   0.7692   0.8029   0.8415   0.8933
     0.9088   0.9184   0.9535   0.9624   0.9933   1.0014   1.0202   1.0650
     1.0964   1.1214   1.1407   1.1726   1.2146   1.2209   1.2345   1.2868
     1.2892   1.3210   1.3395   1.3644   1.4470   1.4747   1.4815   1.5420
     1.6064   1.6184   1.6378   1.6461   1.7016   1.7085   1.7178   1.7353
     1.7944   1.7947   1.8053   1.8684   1.8899   1.9476   1.9600   1.9704
     2.0406   2.0926   2.1520   2.2125   2.2510   2.3438   2.3460   2.3518
     2.5126   2.5512   2.5533   2.6062   2.7741   2.7922   4.9653   5.3518
     5.3653   5.6896   5.8568   6.0523   6.4073   6.4626   6.4672   6.5815
     6.7466   6.8009   6.8638   7.0981   7.3543   7.6083   7.7157   7.9185
     7.9290   7.9923   8.0352   8.0783   8.1404   8.1886   8.2668   8.3118
     8.3671   8.4375   8.4953   8.5776   8.6885   8.7407   8.7827   8.8878
     9.0184   9.1044

          k = 0.2500 0.2618 0.0000 ( 71122 PWs)   bands (ev):

   -38.1506 -37.8753 -35.7795 -35.4690 -24.0637 -23.7140 -22.8937 -22.8722
   -22.8044 -22.7838 -22.7308 -22.6112 -18.5874 -18.5059 -18.2829 -18.2672
   -18.2499 -18.0008 -17.1093 -17.0278 -16.8766 -16.7703 -16.7397 -16.5777
   -15.3332 -15.1327 -15.1125 -15.0196 -14.9962 -14.9582 -14.7301 -14.7145
   -14.6628 -14.6391 -14.6112 -14.5843 -14.3795 -14.3224 -14.2757 -14.2061
   -14.1840 -14.1589 -14.1320 -14.1060 -14.0975 -14.0973 -14.0862 -14.0653
   -14.0415 -13.9389 -13.9130 -13.8323 -13.7397 -13.4984  -9.4184  -9.0378
    -8.9639  -8.8857  -8.5917  -8.5488  -8.1743  -8.1497  -8.1037  -8.0823
    -8.0656  -8.0499  -8.0294  -7.9692  -7.9665  -7.9486  -7.8240  -7.7853
    -7.7521  -7.7319  -7.7092  -7.6892  -7.5503  -7.5281  -3.0655  -3.0051
    -2.8691  -2.4820  -2.4552  -2.4154  -2.3586  -2.2732  -2.2611  -2.2147
    -2.1825  -2.1587  -2.1448  -2.1134  -2.0966  -2.0798  -2.0408  -2.0396
    -1.9971  -1.9612  -1.9514  -1.9000  -1.7265  -1.7029  -1.6237  -1.5390
    -1.5318  -1.4767  -1.4741  -1.4574  -1.4566  -1.4286  -1.3968  -1.3612
    -1.2911  -1.2870  -1.2481  -1.1172  -0.9758  -0.9314  -0.9076  -0.9024
    -0.8396  -0.8203  -0.8055  -0.7657  -0.7494  -0.7342  -0.6899  -0.6451
    -0.6315  -0.6299  -0.5977  -0.5929  -0.5025  -0.4795  -0.4572  -0.4125
    -0.3828  -0.3639  -0.3322  -0.2917  -0.2873  -0.2064  -0.1867  -0.1810
    -0.1513  -0.1034  -0.0894  -0.0547  -0.0506  -0.0237   0.0241   0.0510
     0.0680   0.0886   0.1073   0.1148   0.1418   0.1787   0.2557   0.2651
     0.2653   0.2807   0.2919   0.3194   0.3259   0.3270   0.3658   0.3870
     0.4264   0.4507   0.4636   0.4859   0.5162   0.5354   0.5518   0.5813
     0.6046   0.6990   0.8229   0.8519   0.8627   0.8865   0.9251   0.9366
     0.9594   0.9835   1.0246   1.0377   1.0523   1.0748   1.1238   1.1320
     1.1405   1.1475   1.1838   1.2025   1.2236   1.2381   1.2572   1.2678
     1.3021   1.3606   1.3772   1.3830   1.4282   1.4484   1.4677   1.5624
     1.5848   1.6018   1.6120   1.6309   1.6514   1.6531   1.6782   1.7035
     1.7164   1.7224   1.7468   1.8628   1.9250   1.9931   2.0182   2.1537
     2.2527   2.3085   2.4455   2.6778   2.7170   2.7467   2.7489   2.8264
     2.8278   2.8311   2.8958   2.9478   3.0749   3.2069   5.1664   5.6913
     5.6971   5.9252   5.9923   6.3017   6.4896   6.5992   6.6052   6.6828
     6.9432   7.0998   7.1339   7.1424   7.4204   7.5937   7.6649   7.8056
     7.9988   8.0168   8.0420   8.1036   8.1600   8.2419   8.3217   8.4294
     8.5187   8.5337   8.6187   8.6576   8.6853   8.7956   8.8278   8.9251
     9.0288   9.0934

          k = 0.2500 0.5236 0.0000 ( 71098 PWs)   bands (ev):

   -38.1441 -37.8688 -35.7754 -35.4649 -24.0178 -23.6696 -22.8352 -22.8136
   -22.7552 -22.7347 -22.6744 -22.5634 -18.5074 -18.4887 -18.4879 -18.2427
   -18.2326 -18.1814 -17.0362 -17.0196 -17.0122 -16.7301 -16.7226 -16.6876
   -15.1002 -14.9475 -14.9350 -14.8876 -14.8691 -14.8332 -14.7325 -14.6365
   -14.6351 -14.5647 -14.5262 -14.5012 -14.3342 -14.2850 -14.2530 -14.2281
   -14.2221 -14.1395 -14.1390 -14.0713 -14.0704 -14.0684 -14.0537 -14.0448
   -14.0430 -14.0114 -13.9653 -13.9332 -13.7577 -13.5214  -9.3744  -9.3135
    -9.0916  -8.9400  -8.8235  -8.5643  -8.4226  -8.4022  -8.2185  -8.1695
    -8.1492  -8.1324  -8.1077  -8.0700  -8.0484  -8.0365  -7.9887  -7.9686
    -7.9501  -7.9062  -7.8084  -7.7242  -7.7042  -7.5249  -3.4633  -3.3524
    -3.1105  -2.9443  -2.8850  -2.8289  -2.7404  -2.7172  -2.7068  -2.5007
    -2.4723  -2.4002  -2.3641  -2.3440  -2.3370  -2.2943  -2.2907  -2.1623
    -2.1592  -2.1428  -2.1409  -2.1397  -2.1224  -2.1148  -1.9845  -1.9273
    -1.9208  -1.8982  -1.7957  -1.7472  -1.6838  -1.6195  -1.5702  -1.5577
    -1.5045  -1.3706  -1.3424  -1.2355  -1.1254  -1.0651  -1.0406  -1.0226
    -0.9865  -0.9791  -0.9622  -0.9444  -0.9024  -0.8967  -0.8637  -0.8624
    -0.8298  -0.7477  -0.6804  -0.6639  -0.6328  -0.5985  -0.5697  -0.5613
    -0.5516  -0.5511  -0.5262  -0.4861  -0.4761  -0.4700  -0.4368  -0.3874
    -0.3211  -0.3206  -0.2944  -0.2169  -0.1952  -0.0869  -0.0281   0.0478
     0.0606   0.1231   0.1362   0.1738   0.1811   0.2628   0.3009   0.3193
     0.3255   0.3690   0.3938   0.4501   0.4576   0.4931   0.5484   0.6213
     0.6946   0.6989   0.7121   0.7768   0.8147   0.8357   0.8924   0.9228
     0.9607   0.9987   1.0198   1.0276   1.0528   1.0540   1.0759   1.0835
     1.1087   1.1656   1.1787   1.1905   1.2067   1.2472   1.2731   1.2968
     1.3173   1.3383   1.3662   1.3744   1.3867   1.3926   1.4171   1.4197
     1.4265   1.4512   1.4757   1.5003   1.5235   1.5405   1.5638   1.5839
     1.6330   1.6724   1.7090   1.7367   1.7882   1.7955   1.8100   1.8311
     1.8915   1.9405   1.9439   1.9809   1.9828   1.9992   2.0715   2.1534
     2.4712   2.5166   2.6990   2.8783   3.0191   3.0226   3.0591   3.0806
     3.4429   3.4865   3.6308   3.6674   3.7616   3.9523   5.4716   6.0610
     6.4194   6.5035   6.5082   6.5498   6.5928   6.6076   6.9598   7.0176
     7.0922   7.1791   7.3185   7.3816   7.9267   7.9494   7.9686   8.0951
     8.1609   8.2985   8.3076   8.3528   8.4146   8.5153   8.5996   8.6049
     8.7053   8.7292   8.7851   8.8097   8.8959   8.9616   9.0327   9.0530
     9.2145   9.2352

          k = 0.2500 0.7854 0.0000 ( 71122 PWs)   bands (ev):

   -38.1376 -37.8622 -35.7713 -35.4608 -23.9710 -23.6243 -22.7750 -22.7534
   -22.7049 -22.6844 -22.6165 -22.5143 -18.7161 -18.4716 -18.4512 -18.3824
   -18.2153 -18.0756 -17.1516 -17.0003 -16.9506 -16.8540 -16.7110 -16.6077
   -14.9155 -14.8623 -14.7792 -14.7287 -14.7163 -14.6971 -14.6887 -14.6143
   -14.6066 -14.5608 -14.4543 -14.4203 -14.3906 -14.3317 -14.2782 -14.2504
   -14.2480 -14.2055 -14.1207 -14.0676 -14.0236 -14.0217 -14.0092 -14.0035
   -13.9971 -13.9962 -13.9637 -13.9196 -13.7374 -13.5345  -9.6042  -9.3256
    -9.2278  -9.0588  -8.8770  -8.6988  -8.6780  -8.6169  -8.4868  -8.3376
    -8.3179  -8.1959  -8.1754  -8.1177  -8.1118  -8.0921  -8.0718  -8.0580
    -8.0489  -8.0008  -7.8745  -7.7733  -7.7535  -7.5643  -3.9444  -3.8257
    -3.5253  -3.3969  -3.3474  -3.3133  -3.2768  -3.1455  -3.0931  -2.9038
    -2.9032  -2.8566  -2.8565  -2.7915  -2.6102  -2.5890  -2.4542  -2.2983
    -2.2708  -2.2677  -2.1961  -2.1887  -2.1838  -2.1641  -2.1494  -2.1235
    -1.9830  -1.9374  -1.8641  -1.8505  -1.7958  -1.7324  -1.6933  -1.6780
    -1.6185  -1.4734  -1.4349  -1.3275  -1.3210  -1.2721  -1.2528  -1.2136
    -1.1876  -1.1410  -1.1288  -1.1213  -1.1108  -1.0535  -1.0288  -0.9845
    -0.9585  -0.8704  -0.8266  -0.8185  -0.8085  -0.8011  -0.7731  -0.7562
    -0.7293  -0.6978  -0.6652  -0.5991  -0.5683  -0.5607  -0.5195  -0.4867
    -0.4673  -0.3885  -0.3096  -0.3040  -0.2715  -0.1460   0.0190   0.0367
     0.0896   0.1583   0.1954   0.2361   0.2489   0.2724   0.3018   0.3248
     0.3790   0.4295   0.4690   0.5252   0.6262   0.6318   0.7563   0.7823
     0.8411   0.8653   0.9215   0.9363   0.9620   1.0056   1.0467   1.0931
     1.1309   1.1384   1.1637   1.1742   1.1921   1.2070   1.2385   1.2598
     1.2760   1.2899   1.3218   1.3610   1.3864   1.4170   1.4232   1.4504
     1.4788   1.5007   1.5105   1.5308   1.5890   1.6461   1.6494   1.6623
     1.6768   1.6960   1.7015   1.7303   1.7617   1.7668   1.7852   1.7993
     1.8282   1.8332   1.8890   1.8964   1.9419   1.9651   1.9788   2.0375
     2.0696   2.0967   2.2001   2.2297   2.2314   2.3072   2.3873   2.3880
     2.4585   2.5083   2.6791   2.8093   2.8712   2.8733   3.0051   3.0441
     3.7794   3.8277   4.1548   4.1945   4.2432   4.4304   5.3367   6.2400
     6.2476   6.2578   6.4114   6.6236   6.7964   7.1444   7.2289   7.2455
     7.3562   7.5944   7.7136   7.7281   7.9308   8.1364   8.2730   8.3988
     8.5155   8.5525   8.5772   8.7271   8.8191   8.8798   8.8839   9.0512
     9.0916   9.1246   9.1571   9.2042   9.2279   9.3544   9.4084   9.4094
     9.4296   9.4928

          k = 0.2500-1.0472 0.0000 ( 71112 PWs)   bands (ev):

   -38.1349 -37.8595 -35.7696 -35.4590 -23.9514 -23.6052 -22.7496 -22.7279
   -22.6836 -22.6632 -22.5920 -22.4937 -18.7966 -18.5318 -18.4645 -18.3352
   -18.2081 -18.0282 -17.2020 -16.9949 -16.9144 -16.9043 -16.7055 -16.5710
   -14.9349 -14.8809 -14.7049 -14.6942 -14.6185 -14.6115 -14.5922 -14.5699
   -14.5448 -14.5417 -14.4667 -14.4560 -14.4448 -14.3536 -14.2826 -14.2629
   -14.2532 -14.2505 -14.1658 -14.0798 -14.0207 -13.9932 -13.9918 -13.9791
   -13.9787 -13.9324 -13.9280 -13.8650 -13.7486 -13.5343  -9.7040  -9.3350
    -9.2970  -9.1034  -8.8563  -8.7846  -8.7636  -8.6471  -8.5861  -8.4883
    -8.4690  -8.2361  -8.1825  -8.1620  -8.1252  -8.1001  -8.0733  -8.0654
    -8.0460  -8.0073  -7.8613  -7.8136  -7.7939  -7.5921  -4.1428  -4.0257
    -3.7143  -3.5985  -3.5179  -3.4824  -3.4793  -3.3365  -3.2466  -3.1388
    -3.1372  -3.0877  -3.0875  -2.9454  -2.6270  -2.6059  -2.4635  -2.4336
    -2.2930  -2.2882  -2.2866  -2.1988  -2.1836  -2.1733  -2.1721  -2.1241
    -2.0613  -1.9932  -1.8385  -1.8060  -1.7666  -1.7281  -1.7242  -1.6900
    -1.6313  -1.6246  -1.5568  -1.4922  -1.3875  -1.3317  -1.3191  -1.2898
    -1.2261  -1.2110  -1.2047  -1.1739  -1.1640  -1.1511  -1.1068  -1.0359
    -0.9742  -0.9029  -0.8995  -0.8882  -0.8868  -0.8736  -0.8578  -0.8403
    -0.7822  -0.7626  -0.7560  -0.6757  -0.6600  -0.5403  -0.5107  -0.4753
    -0.4591  -0.3876  -0.2861  -0.2833  -0.2678  -0.1618   0.0197   0.0364
     0.1199   0.1623   0.1846   0.2296   0.2842   0.2868   0.3099   0.3167
     0.3653   0.3945   0.5104   0.5408   0.5623   0.6904   0.7143   0.9338
     0.9451   0.9506   0.9626   0.9875   0.9979   1.0856   1.0893   1.1227
     1.1536   1.1868   1.1969   1.2284   1.2703   1.2872   1.2913   1.3106
     1.3407   1.3618   1.3620   1.3705   1.4040   1.4379   1.4757   1.4821
     1.5191   1.5718   1.6154   1.6562   1.6585   1.7090   1.7199   1.7210
     1.7942   1.8055   1.8096   1.8519   1.8833   1.8993   1.9109   1.9467
     2.0217   2.0370   2.0499   2.0771   2.1346   2.1388   2.1481   2.1579
     2.1846   2.2244   2.2273   2.3702   2.4031   2.4237   2.4244   2.4513
     2.5513   2.5550   2.5551   2.6419   2.6503   2.6719   2.8840   2.9386
     3.8132   3.9206   4.3070   4.3517   4.3970   4.5755   5.2419   6.0569
     6.0656   6.1838   6.4570   6.6804   6.9648   7.1452   7.2600   7.3683
     7.4339   7.4529   7.8461   7.8850   7.9752   8.1629   8.3129   8.4255
     8.5777   8.7574   8.9261   9.0102   9.0675   9.1369   9.1848   9.1942
     9.2147   9.2418   9.3139   9.3663   9.3946   9.4046   9.5056   9.5256
     9.5357   9.7027

          k = 0.3750 0.0000 0.0000 ( 71180 PWs)   bands (ev):

   -38.1533 -37.8780 -35.7812 -35.4707 -24.0802 -23.7348 -22.8993 -22.8775
   -22.8433 -22.8230 -22.7429 -22.6422 -18.6242 -18.5050 -18.3198 -18.2492
   -18.1563 -17.8897 -17.1463 -17.0616 -16.8110 -16.8082 -16.7747 -16.5121
   -15.3418 -15.1464 -15.1381 -15.0877 -15.0262 -14.9693 -14.8436 -14.7675
   -14.7186 -14.7025 -14.6680 -14.6249 -14.4199 -14.3428 -14.3351 -14.1911
   -14.1353 -14.1299 -14.1200 -14.1143 -14.1137 -14.1028 -14.0985 -14.0599
   -14.0437 -13.9540 -13.9076 -13.7931 -13.7061 -13.4838  -9.4439  -9.0606
    -8.7980  -8.7743  -8.5537  -8.5204  -8.1840  -8.1586  -8.0839  -8.0631
    -8.0598  -7.9876  -7.8969  -7.8779  -7.8037  -7.7839  -7.7790  -7.7578
    -7.6809  -7.6770  -7.6607  -7.5997  -7.5803  -7.4851  -2.8133  -2.7739
    -2.6789  -2.4372  -2.4100  -2.3207  -2.2856  -2.2324  -2.2224  -2.1425
    -2.1401  -2.1152  -2.0976  -2.0624  -2.0336  -1.9456  -1.8499  -1.8345
    -1.8333  -1.7299  -1.7277  -1.7081  -1.6557  -1.6473  -1.6174  -1.5469
    -1.4141  -1.3904  -1.1836  -1.1295  -1.1118  -1.0424  -1.0418  -1.0329
    -1.0312  -1.0293  -1.0277  -1.0013  -0.9661  -0.9418  -0.9081  -0.9049
    -0.8735  -0.7991  -0.7890  -0.7690  -0.6850  -0.6456  -0.6405  -0.6304
    -0.5804  -0.5559  -0.5329  -0.5103  -0.4863  -0.4571  -0.4129  -0.4090
    -0.4022  -0.3456  -0.3190  -0.2675  -0.2474  -0.2336  -0.2059  -0.1397
    -0.1037  -0.1017  -0.0881  -0.0871  -0.0828  -0.0483  -0.0431  -0.0048
    -0.0023   0.0551   0.0988   0.1343   0.1659   0.1675   0.1798   0.1813
     0.2658   0.2755   0.2846   0.2957   0.2968   0.3106   0.3614   0.4006
     0.4101   0.4105   0.4224   0.4841   0.4885   0.5088   0.5542   0.5730
     0.6371   0.6434   0.7123   0.7426   0.7835   0.8051   0.8082   0.8206
     0.8392   0.8824   0.8981   0.9400   0.9475   0.9552   0.9881   1.0127
     1.0585   1.1211   1.1336   1.2095   1.2336   1.2752   1.2894   1.2917
     1.3213   1.3484   1.3601   1.3806   1.4189   1.4304   1.4631   1.5281
     1.5433   1.5553   1.5889   1.6014   1.6114   1.7473   1.7658   1.7782
     1.8193   1.8249   1.8489   1.8689   1.8736   1.8999   1.9128   1.9166
     2.0399   2.1136   2.1760   2.1946   2.2812   2.3404   2.3602   2.4891
     2.4976   2.5930   2.5936   2.6194   2.7302   2.7599   5.1654   5.5569
     5.5621   5.7097   5.9541   6.1164   6.1205   6.2695   6.4539   6.5242
     6.9078   6.9614   7.0504   7.0935   7.1257   7.4957   7.6617   7.7616
     7.7902   8.0012   8.0811   8.1057   8.2230   8.3053   8.3144   8.3488
     8.4357   8.4818   8.4990   8.6335   8.7489   8.8744   8.8796   8.9810
     8.9986   9.0927

          k = 0.3750 0.2618 0.0000 ( 71148 PWs)   bands (ev):

   -38.1506 -37.8753 -35.7795 -35.4690 -24.0616 -23.7165 -22.8765 -22.8547
   -22.8222 -22.8020 -22.7206 -22.6221 -18.5857 -18.4980 -18.2811 -18.2672
   -18.2421 -18.0008 -17.1160 -17.0541 -16.8765 -16.7775 -16.7668 -16.5776
   -15.2387 -15.0857 -15.0524 -15.0357 -14.9760 -14.9272 -14.7804 -14.7458
   -14.6800 -14.6710 -14.6355 -14.6023 -14.3667 -14.2976 -14.2947 -14.1967
   -14.1872 -14.1520 -14.1101 -14.1023 -14.0986 -14.0955 -14.0912 -14.0683
   -14.0597 -13.9791 -13.9254 -13.8361 -13.7356 -13.4951  -9.4220  -9.0670
    -8.9916  -8.8923  -8.5559  -8.5149  -8.1842  -8.1603  -8.1288  -8.1081
    -8.0766  -8.0744  -8.0553  -7.9928  -7.9903  -7.9719  -7.8402  -7.8188
    -7.7000  -7.6797  -7.6688  -7.6488  -7.5075  -7.4839  -2.9068  -2.8460
    -2.7225  -2.5512  -2.5030  -2.4188  -2.3279  -2.2575  -2.2363  -2.2343
    -2.1999  -2.1602  -2.1416  -2.1324  -2.1169  -2.0971  -2.0937  -2.0798
    -2.0517  -2.0443  -1.9733  -1.9401  -1.7801  -1.7264  -1.7224  -1.5526
    -1.5012  -1.4721  -1.4688  -1.4612  -1.4609  -1.3995  -1.3677  -1.3155
    -1.2288  -1.1784  -1.1487  -1.0743  -1.0002  -0.9695  -0.9301  -0.9138
    -0.8892  -0.8597  -0.8188  -0.7939  -0.7747  -0.7647  -0.7080  -0.7056
    -0.6877  -0.6634  -0.6164  -0.5939  -0.5739  -0.4981  -0.4929  -0.4580
    -0.4179  -0.3303  -0.3195  -0.2801  -0.2741  -0.2129  -0.1934  -0.1798
    -0.1533  -0.1402  -0.1152  -0.0763  -0.0352  -0.0216   0.0191   0.0545
     0.0750   0.0752   0.1108   0.1273   0.1520   0.1658   0.2305   0.2457
     0.2844   0.3086   0.3103   0.3289   0.3317   0.3396   0.3786   0.4102
     0.4487   0.4565   0.4645   0.4716   0.5137   0.5519   0.5568   0.6161
     0.6567   0.6595   0.8360   0.8567   0.8739   0.8762   0.9202   0.9438
     0.9557   0.9733   0.9800   1.0445   1.0586   1.0633   1.0866   1.0992
     1.1544   1.1762   1.1877   1.1927   1.1983   1.2388   1.2494   1.2672
     1.3035   1.3673   1.4085   1.4325   1.4358   1.4447   1.4681   1.4923
     1.5237   1.5587   1.5666   1.5908   1.6095   1.6662   1.6865   1.7081
     1.7153   1.7479   1.7645   1.8611   1.8817   1.9584   2.0274   2.1390
     2.4311   2.4784   2.6352   2.6878   2.7239   2.7688   2.8148   2.8298
     2.8413   2.8730   2.8923   2.9164   3.0072   3.1642   5.3153   5.8432
     5.8576   5.8749   6.1741   6.3209   6.3250   6.4614   6.5056   6.6970
     6.9940   7.0782   7.2061   7.3590   7.3776   7.4994   7.7563   7.8523
     7.9860   7.9883   8.0369   8.0898   8.1929   8.2163   8.3743   8.4185
     8.4833   8.5324   8.5827   8.6257   8.6818   8.8015   8.8646   9.0211
     9.0965   9.1508

          k = 0.3750 0.5236 0.0000 ( 71095 PWs)   bands (ev):

   -38.1441 -37.8688 -35.7754 -35.4649 -24.0161 -23.6716 -22.8204 -22.7984
   -22.7706 -22.7504 -22.6657 -22.5725 -18.5073 -18.4865 -18.4810 -18.2426
   -18.2250 -18.1799 -17.0416 -17.0372 -17.0189 -16.7499 -16.7282 -16.6932
   -15.0126 -14.9204 -14.8954 -14.8880 -14.8633 -14.8266 -14.7266 -14.6312
   -14.6248 -14.5797 -14.5656 -14.5392 -14.3405 -14.2708 -14.2532 -14.2303
   -14.2071 -14.1760 -14.1200 -14.0783 -14.0668 -14.0639 -14.0608 -14.0508
   -14.0496 -14.0413 -13.9794 -13.9328 -13.7508 -13.5165  -9.3719  -9.3087
    -9.1803  -8.9390  -8.7484  -8.5627  -8.4207  -8.4004  -8.2832  -8.2631
    -8.2114  -8.1317  -8.1067  -8.0800  -8.0643  -8.0430  -8.0181  -7.9064
    -7.8778  -7.8577  -7.7271  -7.7070  -7.7000  -7.5285  -3.3183  -3.2092
    -3.0240  -2.9671  -2.9462  -2.8252  -2.7473  -2.7345  -2.5819  -2.4680
    -2.4448  -2.4166  -2.3612  -2.3475  -2.3349  -2.2875  -2.2813  -2.2004
    -2.1895  -2.1860  -2.1341  -2.1313  -2.1102  -2.0822  -2.0773  -2.0457
    -2.0371  -1.7677  -1.7523  -1.7123  -1.6506  -1.6451  -1.5871  -1.5275
    -1.5007  -1.4024  -1.3595  -1.2865  -1.2459  -1.2100  -1.1852  -1.0835
    -1.0495  -0.9980  -0.9724  -0.9433  -0.9344  -0.9261  -0.8781  -0.8708
    -0.8437  -0.8146  -0.7337  -0.6639  -0.6577  -0.6035  -0.5634  -0.5504
    -0.5313  -0.5289  -0.5238  -0.4899  -0.4845  -0.4722  -0.4519  -0.3628
    -0.3151  -0.2792  -0.2508  -0.2237  -0.2035  -0.1889  -0.0923   0.0069
     0.0422   0.0955   0.1129   0.1339   0.2458   0.2945   0.3192   0.3386
     0.3736   0.4073   0.4264   0.4722   0.4768   0.5212   0.5412   0.5951
     0.6930   0.7622   0.7762   0.8022   0.8507   0.8624   0.8884   0.9130
     0.9517   0.9893   1.0116   1.0177   1.0185   1.0357   1.0433   1.0484
     1.0900   1.1111   1.1765   1.2095   1.2326   1.2580   1.3054   1.3111
     1.3216   1.3399   1.3417   1.3726   1.3768   1.4070   1.4285   1.4560
     1.4794   1.4924   1.4960   1.5014   1.5182   1.5455   1.5481   1.5738
     1.6023   1.6085   1.6964   1.7297   1.7670   1.8290   1.8324   1.8608
     1.8686   1.9135   1.9426   1.9489   1.9558   1.9872   2.0910   2.1248
     2.8224   2.8550   2.9735   3.0221   3.0239   3.0516   3.1083   3.2641
     3.4381   3.4496   3.4899   3.4936   3.6007   3.7980   5.5867   6.1693
     6.3193   6.5079   6.5523   6.5591   6.6064   6.6172   7.0407   7.0861
     7.1430   7.2145   7.3459   7.3869   7.9082   8.0061   8.1106   8.1290
     8.1758   8.2627   8.2783   8.2977   8.3850   8.4586   8.4874   8.6005
     8.6084   8.7493   8.8181   8.8669   8.9479   8.9941   9.0251   9.0697
     9.1264   9.1481

          k = 0.3750 0.7854 0.0000 ( 71150 PWs)   bands (ev):

   -38.1376 -37.8622 -35.7713 -35.4608 -23.9697 -23.6259 -22.7628 -22.7408
   -22.7174 -22.6974 -22.6094 -22.5217 -18.7160 -18.4641 -18.4511 -18.3811
   -18.2079 -18.0743 -17.1515 -17.0224 -16.9557 -16.8540 -16.7338 -16.6133
   -14.8651 -14.8200 -14.7602 -14.7255 -14.7156 -14.7083 -14.6952 -14.5938
   -14.5474 -14.5427 -14.4547 -14.4430 -14.3896 -14.3763 -14.3238 -14.2456
   -14.2161 -14.1752 -14.1416 -14.0994 -14.0265 -14.0181 -14.0164 -14.0023
   -14.0016 -14.0006 -13.9739 -13.9680 -13.7307 -13.5382  -9.5224  -9.3276
    -9.2595  -9.0514  -8.8737  -8.6895  -8.6174  -8.5967  -8.4088  -8.3450
    -8.3246  -8.1924  -8.1725  -8.1372  -8.1073  -8.0827  -8.0780  -8.0613
    -8.0560  -7.9782  -7.8783  -7.8753  -7.8584  -7.6605  -3.8028  -3.6919
    -3.4555  -3.4103  -3.3840  -3.3591  -3.2796  -3.1458  -3.0390  -2.8939
    -2.8925  -2.8672  -2.8667  -2.8261  -2.5310  -2.5081  -2.3826  -2.3100
    -2.2964  -2.1976  -2.1771  -2.1689  -2.1596  -2.1143  -2.0819  -2.0392
    -2.0239  -2.0072  -1.9956  -1.8964  -1.8300  -1.7197  -1.6959  -1.6713
    -1.6460  -1.5916  -1.5710  -1.5282  -1.4896  -1.3792  -1.3017  -1.2511
    -1.2184  -1.2051  -1.1530  -1.1378  -1.1212  -1.1072  -1.0199  -0.9654
    -0.9022  -0.8909  -0.8183  -0.8155  -0.7809  -0.7585  -0.7496  -0.7280
    -0.7167  -0.6937  -0.6527  -0.6113  -0.5813  -0.5552  -0.5197  -0.4871
    -0.4284  -0.3851  -0.3585  -0.3216  -0.2860  -0.1929  -0.0372  -0.0053
     0.0818   0.1283   0.1615   0.2350   0.2989   0.3407   0.3527   0.4388
     0.4743   0.5071   0.5187   0.5717   0.5817   0.6524   0.7596   0.7833
     0.8989   0.9203   0.9470   0.9544   0.9853   1.0035   1.0070   1.0910
     1.1003   1.1389   1.1516   1.1993   1.2144   1.2533   1.2771   1.2835
     1.3148   1.3451   1.3599   1.3711   1.3867   1.4038   1.4127   1.4283
     1.4375   1.4406   1.4569   1.5225   1.5668   1.5853   1.6100   1.6251
     1.6474   1.6629   1.6831   1.7043   1.7245   1.7450   1.7709   1.7915
     1.8137   1.8246   1.8566   1.8754   1.9075   1.9351   1.9547   2.0022
     2.0796   2.1043   2.2010   2.2210   2.2667   2.2678   2.3524   2.3532
     2.8083   2.8162   2.8761   2.8806   2.9883   3.0745   3.2189   3.3653
     3.7739   3.8279   3.8643   3.8930   3.9712   4.1533   5.5244   6.1470
     6.3358   6.4781   6.4920   6.7085   6.8870   7.0205   7.0437   7.1109
     7.3999   7.5501   7.6188   7.6690   7.7949   8.0798   8.2507   8.4001
     8.5653   8.5951   8.6087   8.7075   8.8192   8.8339   8.8689   9.0838
     9.1227   9.1454   9.2671   9.3437   9.3738   9.4089   9.4272   9.4524
     9.5215   9.5811

          k = 0.3750-1.0472 0.0000 ( 71134 PWs)   bands (ev):

   -38.1349 -37.8595 -35.7696 -35.4591 -23.9501 -23.6066 -22.7385 -22.7164
   -22.6950 -22.6750 -22.5857 -22.5003 -18.7965 -18.5317 -18.4571 -18.3341
   -18.2008 -18.0270 -17.2021 -17.0163 -16.9192 -16.9044 -16.7275 -16.5762
   -14.8866 -14.8285 -14.7411 -14.6882 -14.6262 -14.6169 -14.5841 -14.5464
   -14.5226 -14.4813 -14.4627 -14.4478 -14.4281 -14.3254 -14.3226 -14.3194
   -14.2584 -14.2176 -14.2152 -14.1117 -14.0045 -13.9897 -13.9892 -13.9824
   -13.9821 -13.9533 -13.9441 -13.9079 -13.7338 -13.5512  -9.5776  -9.2963
[...]
    -2.0648  -2.0468  -2.0231  -1.9543  -1.8653  -1.7351  -1.7207  -1.5499
    -1.4878  -1.4696  -1.4656  -1.4650  -1.4630  -1.3746  -1.3555  -1.3364
    -1.1275  -1.0990  -1.0804  -1.0502  -0.9958  -0.9806  -0.9778  -0.9475
    -0.9265  -0.9144  -0.8969  -0.8449  -0.8383  -0.7015  -0.6871  -0.6812
    -0.6699  -0.6553  -0.6476  -0.6083  -0.5884  -0.5789  -0.5263  -0.4406
    -0.4255  -0.3279  -0.3051  -0.2790  -0.2277  -0.2210  -0.2086  -0.2005
    -0.1698  -0.1351  -0.1123  -0.0962  -0.0676  -0.0056   0.0296   0.0534
     0.0686   0.0692   0.1127   0.1382   0.1408   0.2006   0.2095   0.2359
     0.2891   0.3216   0.3241   0.3391   0.3480   0.3701   0.3995   0.4025
     0.4083   0.4440   0.4540   0.4801   0.5159   0.5747   0.5862   0.6332
     0.6502   0.6815   0.8227   0.8464   0.8545   0.8850   0.8934   0.9445
     0.9603   0.9819   0.9864   1.0081   1.0252   1.0633   1.0800   1.0959
     1.1214   1.1818   1.2032   1.2044   1.2405   1.2477   1.2592   1.3235
     1.3450   1.3563   1.3805   1.4061   1.4233   1.4530   1.4676   1.4993
     1.5052   1.5085   1.5234   1.5530   1.6226   1.6866   1.7066   1.7146
     1.7298   1.7540   1.7590   1.7910   1.8871   1.9648   2.0264   2.1276
     2.5311   2.5741   2.6407   2.6927   2.7529   2.7906   2.8002   2.8507
     2.8529   2.8627   2.8887   2.9355   3.0006   3.1093   5.4076   5.7805
     6.0620   6.0663   6.0793   6.0828   6.3785   6.3924   6.6177   6.6667
     6.9825   7.0610   7.1203   7.3896   7.6432   7.6706   7.6945   7.7226
     7.8809   7.9601   7.9776   8.0671   8.1535   8.2386   8.2783   8.4128
     8.5051   8.5882   8.6642   8.6773   8.7765   8.8531   8.8633   8.9591
     9.0758   9.0942

          k =-0.5000 0.5236 0.0000 ( 71094 PWs)   bands (ev):

   -38.1441 -37.8688 -35.7754 -35.4649 -24.0154 -23.6725 -22.8103 -22.7876
   -22.7809 -22.7614 -22.6616 -22.5768 -18.5072 -18.4859 -18.4778 -18.2426
   -18.2218 -18.1793 -17.0474 -17.0433 -17.0193 -16.7598 -16.7288 -16.6954
   -14.9558 -14.9072 -14.9060 -14.8750 -14.8542 -14.8314 -14.7221 -14.6566
   -14.6147 -14.5878 -14.5684 -14.5532 -14.3421 -14.2666 -14.2437 -14.2349
   -14.2016 -14.1885 -14.1127 -14.1056 -14.0651 -14.0621 -14.0613 -14.0524
   -14.0479 -14.0434 -13.9864 -13.9328 -13.7486 -13.5147  -9.3704  -9.2795
    -9.2437  -8.9386  -8.7062  -8.5742  -8.3867  -8.3662  -8.3576  -8.3378
    -8.1790  -8.1440  -8.1311  -8.1062  -8.0638  -8.0424  -8.0239  -7.9065
    -7.7878  -7.7769  -7.7679  -7.7565  -7.6368  -7.5541  -3.1935  -3.1151
    -3.0800  -3.0385  -2.8713  -2.8349  -2.7727  -2.7461  -2.4882  -2.4554
    -2.4309  -2.4107  -2.3908  -2.3664  -2.2863  -2.2695  -2.2632  -2.2585
    -2.2478  -2.2440  -2.1289  -2.1240  -2.1081  -2.1057  -2.1005  -2.0710
    -1.9882  -1.8950  -1.7236  -1.6373  -1.5750  -1.5697  -1.5263  -1.5109
    -1.4789  -1.4484  -1.4259  -1.3905  -1.3797  -1.3221  -1.1192  -1.0822
    -1.0820  -1.0555  -0.9712  -0.9692  -0.9387  -0.9135  -0.9068  -0.8745
    -0.8592  -0.7783  -0.7507  -0.7063  -0.6438  -0.6166  -0.5619  -0.5404
    -0.5232  -0.5140  -0.5074  -0.5027  -0.5016  -0.4843  -0.3997  -0.3757
    -0.3268  -0.2871  -0.2217  -0.2194  -0.2119  -0.1386  -0.1377  -0.1182
     0.0598   0.0670   0.1071   0.1301   0.2870   0.2917   0.3436   0.3824
     0.3845   0.4152   0.4337   0.4569   0.5227   0.5444   0.5499   0.5600
     0.7116   0.7697   0.7794   0.8591   0.8612   0.8786   0.9092   0.9209
     0.9304   0.9676   0.9795   1.0033   1.0067   1.0101   1.0101   1.0687
     1.0862   1.0923   1.1623   1.2183   1.2310   1.2715   1.2850   1.3146
     1.3346   1.3521   1.3627   1.3828   1.3857   1.3981   1.4210   1.4508
     1.4773   1.4982   1.5007   1.5029   1.5040   1.5304   1.5498   1.6113
     1.6494   1.6647   1.6867   1.6966   1.7006   1.7907   1.8564   1.8824
     1.8971   1.9011   1.9061   1.9327   1.9516   2.0023   2.0576   2.1443
     2.9892   2.9956   3.0194   3.0244   3.1653   3.2095   3.2163   3.2710
     3.3088   3.3982   3.4510   3.4887   3.5236   3.6011   5.6461   6.2023
     6.3164   6.4440   6.5798   6.5900   6.6057   6.6134   7.1039   7.1169
     7.1659   7.2338   7.3309   7.3940   7.8935   7.9700   8.1154   8.2311
     8.2469   8.2560   8.2668   8.2700   8.3923   8.4087   8.4645   8.5235
     8.6633   8.7990   8.8285   8.8817   8.9368   8.9619   8.9880   9.0283
     9.0920   9.2435

          k =-0.5000 0.7854 0.0000 ( 71114 PWs)   bands (ev):

   -38.1376 -37.8622 -35.7713 -35.4608 -23.9691 -23.6265 -22.7550 -22.7323
   -22.7254 -22.7060 -22.6061 -22.5252 -18.7160 -18.4609 -18.4511 -18.3805
   -18.2048 -18.0737 -17.1515 -17.0315 -16.9579 -16.8539 -16.7432 -16.6156
   -14.8238 -14.7964 -14.7754 -14.7685 -14.7136 -14.6998 -14.6598 -14.5763
   -14.5314 -14.5123 -14.4934 -14.4648 -14.3778 -14.3682 -14.3620 -14.2424
   -14.1821 -14.1732 -14.1455 -14.1292 -14.0303 -14.0134 -14.0125 -14.0071
   -14.0051 -14.0034 -13.9999 -13.9691 -13.7277 -13.5401  -9.4428  -9.3614
    -9.3128  -9.0075  -8.8653  -8.7401  -8.5134  -8.4922  -8.4749  -8.4552
    -8.3294  -8.2383  -8.1108  -8.0963  -8.0861  -8.0749  -8.0599  -8.0169
    -8.0163  -7.9970  -7.9962  -7.9001  -7.8585  -7.7450  -3.7046  -3.6000
    -3.5261  -3.4484  -3.3717  -3.3312  -3.2648  -3.1979  -2.9784  -2.8841
    -2.8803  -2.8794  -2.8779  -2.8547  -2.4511  -2.4308  -2.3709  -2.3456
    -2.2963  -2.2625  -2.1524  -2.1354  -2.1284  -2.1112  -2.0949  -2.0765
    -2.0021  -1.9420  -1.8957  -1.8880  -1.8574  -1.8462  -1.8092  -1.7889
    -1.6672  -1.6660  -1.5405  -1.4953  -1.4569  -1.4341  -1.3869  -1.3228
    -1.2417  -1.2330  -1.1592  -1.1420  -1.1198  -1.1080  -1.0004  -0.9212
    -0.9146  -0.8249  -0.8234  -0.8117  -0.8037  -0.7686  -0.7444  -0.7278
    -0.7087  -0.7040  -0.6045  -0.5977  -0.5966  -0.5370  -0.5272  -0.4923
    -0.4213  -0.4125  -0.3925  -0.3530  -0.2210  -0.1718  -0.1247  -0.0886
     0.1098   0.1492   0.1721   0.1763   0.3821   0.3849   0.4095   0.4235
     0.4877   0.4881   0.5282   0.5976   0.6653   0.6762   0.7137   0.7888
     0.9120   0.9266   0.9557   0.9906   0.9966   1.0270   1.0309   1.0404
     1.0816   1.0996   1.1501   1.2274   1.2425   1.2536   1.2954   1.3076
     1.3478   1.3494   1.3626   1.3807   1.3851   1.3986   1.4095   1.4209
     1.4336   1.4899   1.5088   1.5107   1.5144   1.5272   1.5588   1.5948
     1.5995   1.6340   1.7010   1.7091   1.7143   1.7351   1.7522   1.7866
     1.7954   1.7961   1.8541   1.8703   1.9149   1.9259   1.9417   1.9728
     2.0808   2.1190   2.1739   2.1981   2.3049   2.3058   2.3150   2.3161
     2.8565   2.8603   2.8814   2.8856   3.4064   3.4520   3.4692   3.5233
     3.5949   3.6057   3.7830   3.7844   3.8123   3.8435   5.6630   6.0132
     6.3350   6.7217   6.7347   6.7611   6.7642   6.7910   6.9874   7.0732
     7.4109   7.5456   7.5464   7.6765   7.7124   8.0724   8.2381   8.4081
     8.5886   8.6466   8.6648   8.7066   8.7413   8.7835   8.8593   9.0777
     9.1311   9.1748   9.3211   9.4295   9.4638   9.4829   9.4912   9.5243
     9.6003   9.6095

          k =-0.5000-1.0472 0.0000 ( 71164 PWs)   bands (ev):

   -38.1349 -37.8595 -35.7696 -35.4591 -23.9496 -23.6072 -22.7316 -22.7089
   -22.7020 -22.6826 -22.5827 -22.5034 -18.7965 -18.5317 -18.4539 -18.3336
   -18.1977 -18.0265 -17.2021 -17.0251 -16.9212 -16.9044 -16.7366 -16.5784
   -14.8483 -14.7802 -14.7698 -14.7534 -14.6249 -14.6002 -14.5455 -14.5452
   -14.5017 -14.4627 -14.4457 -14.4446 -14.4293 -14.3666 -14.3508 -14.2880
   -14.2570 -14.2526 -14.1912 -14.1389 -13.9893 -13.9865 -13.9861 -13.9857
   -13.9854 -13.9695 -13.9462 -13.9327 -13.7268 -13.5591  -9.4771  -9.3317
    -9.2959  -9.1840  -8.8532  -8.8269  -8.5168  -8.4948  -8.4662  -8.4467
    -8.3536  -8.2502  -8.1917  -8.1709  -8.1683  -8.1494  -8.0897  -8.0881
    -8.0676  -8.0653  -8.0650  -8.0163  -7.8630  -7.8531  -3.9057  -3.8052
    -3.6894  -3.6130  -3.5784  -3.5379  -3.4588  -3.3583  -3.1733  -3.1154
    -3.1131  -3.1124  -3.1095  -3.0187  -2.4568  -2.4385  -2.3470  -2.3236
    -2.2964  -2.2286  -2.2189  -2.1290  -2.1124  -2.1053  -2.0981  -2.0655
    -2.0389  -2.0285  -2.0230  -1.9699  -1.9679  -1.9410  -1.8490  -1.8267
    -1.7477  -1.7268  -1.5769  -1.5731  -1.5475  -1.4727  -1.4643  -1.3724
    -1.3277  -1.3014  -1.2240  -1.2077  -1.1951  -1.1869  -1.0246  -0.9218
    -0.9177  -0.9009  -0.8935  -0.8253  -0.8249  -0.8215  -0.8092  -0.7915
    -0.7835  -0.7801  -0.6678  -0.6676  -0.6343  -0.5507  -0.5278  -0.4655
    -0.4504  -0.4457  -0.4126  -0.3650  -0.2284  -0.1767  -0.0986  -0.0778
     0.1239   0.1733   0.2226   0.2230   0.4195   0.4247   0.4323   0.4584
     0.4860   0.5740   0.5859   0.6473   0.6682   0.7069   0.8247   0.8769
     0.9154   0.9457   0.9914   1.0603   1.0740   1.0860   1.0903   1.1237
     1.1478   1.1594   1.1729   1.2443   1.2931   1.2992   1.3025   1.3028
     1.3035   1.3786   1.3872   1.4188   1.4293   1.4532   1.4674   1.4842
     1.4883   1.5238   1.5292   1.5462   1.5463   1.5889   1.6164   1.6529
     1.7003   1.7435   1.7555   1.7649   1.8311   1.8555   1.8596   1.8677
     1.8820   1.9522   2.0198   2.0565   2.1180   2.1358   2.1363   2.1391
     2.1813   2.2003   2.2586   2.2908   2.4843   2.4844   2.4932   2.4939
     2.6541   2.6578   2.6689   2.6728   3.4200   3.4832   3.5059   3.5902
     3.6032   3.6819   3.7941   3.8433   3.8749   3.9542   5.5602   5.8685
     6.5245   6.6673   6.6768   6.7068   6.7770   6.9133   7.0794   7.0954
     7.2254   7.2971   7.5411   7.6936   7.7312   8.1002   8.3315   8.5330
     8.5400   8.5987   8.9935   9.1274   9.1977   9.3231   9.3354   9.3673
     9.3749   9.3782   9.3977   9.4397   9.6886   9.7078   9.7133   9.7503
     9.7925   9.8236

     the Fermi energy is     2.6650 ev

!    total energy              =   -3711.64697431 Ry
     Harris-Foulkes estimate   =   -3711.64697430 Ry
     estimated scf accuracy    <          7.1E-09 Ry

     The total energy is the sum of the following terms:

     one-electron contribution =  -58347.69751523 Ry
     hartree contribution      =   29478.39960392 Ry
     xc contribution           =   -1263.76597991 Ry
     ewald contribution        =   26421.43037808 Ry
     smearing contrib. (-TS)   =      -0.01346117 Ry

     convergence has been achieved in  36 iterations

     negative rho (up, down):  9.200E-02 0.000E+00

     Forces acting on atoms (cartesian axes, Ry/au):

     atom    1 type  4   force =    -0.00001053    0.00000000   -0.00011593
     atom    2 type  4   force =     0.00001053    0.00000000   -0.00011593
     atom    3 type  3   force =    -0.00001136    0.00000000   -0.00008811
     atom    4 type  3   force =     0.00001136    0.00000000   -0.00008811
     atom    5 type  4   force =     0.00000370    0.00000000   -0.00004564
     atom    6 type  4   force =    -0.00000370    0.00000000   -0.00004564
     atom    7 type  1   force =     0.00000000    0.00000000   -0.00017520
     atom    8 type  1   force =     0.00000000    0.00000000   -0.00016642
     atom    9 type  3   force =     0.00002454    0.00000000    0.00003671
     atom   10 type  3   force =    -0.00002454    0.00000000    0.00003671
     atom   11 type  4   force =     0.00000000    0.00000000    0.00019944
     atom   12 type  4   force =     0.00000517    0.00000000    0.00019403
     atom   13 type  4   force =    -0.00000517    0.00000000    0.00019403
     atom   14 type  4   force =     0.00000000    0.00000000    0.00030939
     atom   15 type  2   force =     0.00000000    0.00000000   -0.00087428
     atom   16 type  5   force =     0.00000000    0.00000000   -0.00135047
     atom   17 type  4   force =     0.00015133    0.00000000    0.00142818
     atom   18 type  4   force =    -0.00015133    0.00000000    0.00142818
     atom   19 type  4   force =     0.00000000    0.00000000    0.00167242
     atom   20 type  4   force =     0.00000000    0.00000000    0.00209746
     atom   21 type  3   force =    -0.00009934    0.00000000   -0.00166522
     atom   22 type  3   force =     0.00009934    0.00000000   -0.00166522
     atom   23 type  1   force =     0.00000000    0.00000000   -0.00531040
     atom   24 type  1   force =     0.00000000    0.00000000   -0.00606595
     atom   25 type  4   force =    -0.00081927    0.00000000    0.00575399
     atom   26 type  4   force =     0.00081927    0.00000000    0.00575399
     atom   27 type  4   force =     0.00029883    0.00000000    0.01288027
     atom   28 type  4   force =    -0.00029883    0.00000000    0.01288027
     atom   29 type  3   force =     0.00211123    0.00000000   -0.01130259
     atom   30 type  3   force =    -0.00211123    0.00000000   -0.01130259
     atom   31 type  4   force =    -0.00867249    0.00000000    0.01972484
     atom   32 type  4   force =     0.00867249    0.00000000    0.01972484
     atom   33 type  1   force =     0.00000000    0.00000000   -0.01546062
     atom   34 type  1   force =     0.00000000    0.00000000   -0.00095763
     atom   35 type  3   force =    -0.00828049    0.00000000   -0.00017423
     atom   36 type  3   force =     0.00828049    0.00000000   -0.00017423
     atom   37 type  4   force =     0.00000000    0.00000000    0.00298102
     atom   38 type  4   force =     0.00000000    0.00000000    0.01003256
     atom   39 type  4   force =     0.00188338    0.00000000    0.00357218
     atom   40 type  4   force =    -0.00188338    0.00000000    0.00357218
     atom   41 type  5   force =     0.00000000    0.00000000   -0.03496270
     atom   42 type  2   force =     0.00000000    0.00000000   -0.02768196
     atom   43 type  4   force =     0.00000000    0.00000000    0.00495078
     atom   44 type  4   force =     0.00037026    0.00000000    0.00252159
     atom   45 type  4   force =    -0.00037026    0.00000000    0.00252159
     atom   46 type  4   force =     0.00000000    0.00000000    0.00370305
     atom   47 type  3   force =     0.00055279    0.00000000    0.00098702
     atom   48 type  3   force =    -0.00055279    0.00000000    0.00098702
     atom   49 type  1   force =     0.00000000    0.00000000   -0.00082059
     atom   50 type  1   force =     0.00000000    0.00000000   -0.00096731
     atom   51 type  4   force =     0.00007314    0.00000000    0.00074336
     atom   52 type  4   force =    -0.00007314    0.00000000    0.00074336
     atom   53 type  3   force =    -0.00003916    0.00000000   -0.00028544
     atom   54 type  3   force =     0.00003916    0.00000000   -0.00028544
     atom   55 type  4   force =     0.00000223    0.00000000    0.00025871
     atom   56 type  4   force =    -0.00000223    0.00000000    0.00025871

     Total force =     0.065131     Total SCF correction =     0.000290


     Computing stress (Cartesian axis) and pressure


     negative rho (up, down):  9.200E-02 0.000E+00
          total   stress  (Ry/bohr**3)                   (kbar)     P=       -7.29
  -0.00007229   0.00000000   0.00000000          -10.63        0.00        0.00
   0.00000000  -0.00003870   0.00000000            0.00       -5.69        0.00
   0.00000000   0.00000000  -0.00003765            0.00        0.00       -5.54

 
     init_run     :     24.47s CPU     25.09s WALL (       1 calls)
     electrons    :   1800.04s CPU   1877.73s WALL (       1 calls)
     forces       :     10.36s CPU     10.97s WALL (       1 calls)
     stress       :     88.89s CPU     90.53s WALL (       1 calls)

     Called by init_run:
     wfcinit      :     20.06s CPU     20.38s WALL (       1 calls)
     potinit      :      0.98s CPU      1.00s WALL (       1 calls)
     hinit0       :      1.52s CPU      1.55s WALL (       1 calls)

     Called by electrons:
     c_bands      :   1517.93s CPU   1554.98s WALL (      36 calls)
     sum_band     :    215.96s CPU    238.22s WALL (      36 calls)
     v_of_rho     :      4.22s CPU      4.28s WALL (      37 calls)
     newd         :     31.18s CPU     49.36s WALL (      37 calls)
     mix_rho      :     31.42s CPU     31.73s WALL (      36 calls)

     Called by c_bands:
     init_us_2    :      8.21s CPU      8.25s WALL (    1875 calls)
     cegterg      :   1449.07s CPU   1485.43s WALL (     900 calls)

     Called by sum_band:
     sum_band:bec :      0.93s CPU      0.94s WALL (     900 calls)
     addusdens    :     34.07s CPU     54.32s WALL (      36 calls)

     Called by *egterg:
     h_psi        :    673.54s CPU    687.17s WALL (    4909 calls)
     s_psi        :    102.51s CPU    103.06s WALL (    4909 calls)
     g_psi        :      1.51s CPU      1.52s WALL (    3984 calls)
     cdiaghg      :    376.47s CPU    377.81s WALL (    4884 calls)

     Called by h_psi:
     h_psi:calbec :    111.05s CPU    111.44s WALL (    4909 calls)
     vloc_psi     :    456.99s CPU    463.44s WALL (    4909 calls)
     add_vuspsi   :    102.84s CPU    103.28s WALL (    4909 calls)

     General routines
     calbec       :    174.02s CPU    174.61s WALL (    5934 calls)
     fft          :      3.63s CPU      3.67s WALL (     504 calls)
     ffts         :     17.55s CPU     17.73s WALL (   20664 calls)
     fftw         :    529.34s CPU    536.80s WALL ( 1283412 calls)
     interpolate  :      0.29s CPU      0.29s WALL (      37 calls)
 
     Parallel routines
     fft_scatt_xy :     59.74s CPU     60.66s WALL ( 1304580 calls)
     fft_scatt_yz :    351.71s CPU    356.58s WALL ( 1304580 calls)
 
     PWSCF        :  32m 5.41s CPU  33m26.25s WALL

 
   This run was terminated on:  17:10: 0  25May2021            

=------------------------------------------------------------------------------=
   JOB DONE.
=------------------------------------------------------------------------------=
[1621977000.960118] [holy7c04401:67742:0]          mpool.c:43   UCX  WARN  object 0x438eb40 was not returned to mpool ucp_requests
[1621977000.959930] [holy7c04104:40746:0]          mpool.c:43   UCX  WARN  object 0x46c9e40 was not returned to mpool ucp_requests
[1621977000.960354] [holy7c04401:67741:0]          mpool.c:43   UCX  WARN  object 0x2b931c0 was not returned to mpool ucp_requests
[1621977000.963841] [holy7c04106:107655:0]          mpool.c:43   UCX  WARN  object 0x31a6a00 was not returned to mpool ucp_requests
[1621977000.964927] [holy7c04209:202169:0]          mpool.c:43   UCX  WARN  object 0x31969c0 was not returned to mpool ucp_requests
[1621977000.965228] [holy7c04309:187961:0]          mpool.c:43   UCX  WARN  object 0x28e5940 was not returned to mpool ucp_requests
[1621977000.968813] [holy7c04306:113075:0]          mpool.c:43   UCX  WARN  object 0x3519b40 was not returned to mpool ucp_requests
[1621977000.968488] [holy7c04310:249317:0]          mpool.c:43   UCX  WARN  object 0x3e38200 was not returned to mpool ucp_requests
[1621977000.968505] [holy7c04310:249317:0]          mpool.c:43   UCX  WARN  object 0x3e383c0 was not returned to mpool ucp_requests
[1621977000.969717] [holy7c04208:111270:0]          mpool.c:43   UCX  WARN  object 0x2fc0400 was not returned to mpool ucp_requests
[1621977000.970832] [holy7c04107:9249 :0]          mpool.c:43   UCX  WARN  object 0x2b80d40 was not returned to mpool ucp_requests
[1621977000.970853] [holy7c04107:9249 :0]          mpool.c:43   UCX  WARN  object 0x2b81440 was not returned to mpool ucp_requests
[1621977000.970460] [holy7c04111:112130:0]          mpool.c:43   UCX  WARN  object 0x3810280 was not returned to mpool ucp_requests
[1621977000.970504] [holy7c04111:112131:0]          mpool.c:43   UCX  WARN  object 0x3cdb2c0 was not returned to mpool ucp_requests
[1621977000.966142] [holy7c04210:51187:0]          mpool.c:43   UCX  WARN  object 0x27ea100 was not returned to mpool ucp_requests
[1621977000.966159] [holy7c04210:51187:0]          mpool.c:43   UCX  WARN  object 0x27ea2c0 was not returned to mpool ucp_requests
[1621977000.986616] [holy7c04201:177831:0]          mpool.c:43   UCX  WARN  object 0x2e79140 was not returned to mpool ucp_requests
[1621977000.986644] [holy7c04201:177831:0]          mpool.c:43   UCX  WARN  object 0x2e79a00 was not returned to mpool ucp_requests
