
     Program PWSCF v.6.5 starts on 27May2021 at 23:38:46 

     This program is part of the open-source Quantum ESPRESSO suite
     for quantum simulation of materials; please cite
         "P. Giannozzi et al., J. Phys.:Condens. Matter 21 395502 (2009);
         "P. Giannozzi et al., J. Phys.:Condens. Matter 29 465901 (2017);
          URL http://www.quantum-espresso.org", 
     in publications or presentations arising from this work. More details at
     http://www.quantum-espresso.org/quote

     Parallel version (MPI), running on    32 processors

     MPI processes distributed on    14 nodes
     R & G space division:  proc/nbgrp/npool/nimage =      32
     Reading input from YCBCO50_212_CuO_cleave_1.0_sep.pwi
Warning: card &IONS ignored
Warning: card     ION_DYNAMICS = 'BFGS' ignored
Warning: card / ignored
Warning: card &CELL ignored
Warning: card     CELL_DYNAMICS = 'BFGS' ignored
Warning: card     PRESS_CONV_THR = 5 ignored
Warning: card / ignored

     Current dimensions of program PWSCF are:
     Max number of different atomic species (ntypx) = 10
     Max number of k-points (npk) =  40000
     Max angular momentum in pseudopotentials (lmaxx) =  3

     Subspace diagonalization in iterative solution of the eigenvalue problem:
     one sub-group per band group will be used
     scalapack distributed-memory algorithm (size of sub-group:  5*  5 procs)

     Message from routine setup:
     using ibrav=0 with symmetry is DISCOURAGED, use correct ibrav instead
 
     Parallelization info
     --------------------
     sticks:   dense  smooth     PW     G-vecs:    dense   smooth      PW
     Min         188      62     17                90874    17478    2607
     Max         189      63     18                90902    17523    2646
     Sum        6019    2003    565              2908509   560041   84211
 


     bravais-lattice index     =            0
     lattice parameter (alat)  =      14.8133  a.u.
     unit-cell volume          =    8915.2456 (a.u.)^3
     number of atoms/cell      =           56
     number of atomic types    =            5
     number of electrons       =       456.00
     number of Kohn-Sham states=          274
     kinetic-energy cutoff     =      60.0000  Ry
     charge density cutoff     =     720.0000  Ry
     convergence threshold     =      1.0E-08
     mixing beta               =       0.5000
     number of iterations used =           10  local-TF  mixing
     Exchange-correlation= SLA PW PBE PBE
                           (   1   4   3   4   0   0   0)

     celldm(1)=  14.813271  celldm(2)=   0.000000  celldm(3)=   0.000000
     celldm(4)=   0.000000  celldm(5)=   0.000000  celldm(6)=   0.000000

     crystal axes: (cart. coord. in units of alat)
               a(1) = (   1.000000   0.000000   0.000000 )  
               a(2) = (   0.000000   0.477453   0.000000 )  
               a(3) = (   0.000000   0.000000   5.744471 )  

     reciprocal axes: (cart. coord. in units 2 pi/alat)
               b(1) = (  1.000000  0.000000  0.000000 )  
               b(2) = (  0.000000  2.094448  0.000000 )  
               b(3) = (  0.000000  0.000000  0.174080 )  


     PseudoPot. # 1 for Ba read from file:
     ./pseudo/Ba.pbe-nsp-van.UPF
     MD5 check sum: 2b9c31dd849566dd297d80989662b7a0
     Pseudo is Ultrasoft + core correction, Zval = 10.0
     Generated by new atomic code, or converted to UPF format
     Using radial grid of  907 points,  6 beta functions with: 
                l(1) =   0
                l(2) =   0
                l(3) =   1
                l(4) =   1
                l(5) =   2
                l(6) =   2
     Q(r) pseudized with  6 coefficients,  rinner =    1.200   1.200   1.200
                                                       1.200   1.200

     PseudoPot. # 2 for Ca read from file:
     ./pseudo/Ca.pbe-nsp-van.UPF
     MD5 check sum: 6471098428ff4fa451746d08035ff179
     Pseudo is Ultrasoft + core correction, Zval = 10.0
     Generated by new atomic code, or converted to UPF format
     Using radial grid of  845 points,  6 beta functions with: 
                l(1) =   0
                l(2) =   0
                l(3) =   1
                l(4) =   1
                l(5) =   2
                l(6) =   2
     Q(r) pseudized with  6 coefficients,  rinner =    1.200   1.200   1.200
                                                       1.200   1.200

     PseudoPot. # 3 for Cu read from file:
     ./pseudo/Cu.pbe-n-van_ak.UPF
     MD5 check sum: 34e3282627ffb533726feb647e090d62
     Pseudo is Ultrasoft + core correction, Zval = 11.0
     Generated by new atomic code, or converted to UPF format
     Using radial grid of  867 points,  6 beta functions with: 
                l(1) =   0
                l(2) =   0
                l(3) =   1
                l(4) =   1
                l(5) =   2
                l(6) =   2
     Q(r) pseudized with  8 coefficients,  rinner =    1.400   1.400   1.400
                                                       1.400   1.400

     PseudoPot. # 4 for O  read from file:
     ./pseudo/O.pbe-van_ak.UPF
     MD5 check sum: 783ce7fe4c79b6a4916957118fed0856
     Pseudo is Ultrasoft, Zval =  6.0
     Generated by new atomic code, or converted to UPF format
     Using radial grid of  737 points,  4 beta functions with: 
                l(1) =   0
                l(2) =   0
                l(3) =   1
                l(4) =   1
     Q(r) pseudized with  8 coefficients,  rinner =    0.800   0.800   0.800


     PseudoPot. # 5 for Y  read from file:
     ./pseudo/Y.pbe-nsp-van.UPF
     MD5 check sum: 4412fed3ab108fed87a1b7d6a69a4a38
     Pseudo is Ultrasoft + core correction, Zval = 11.0
     Generated by new atomic code, or converted to UPF format
     Using radial grid of  885 points,  6 beta functions with: 
                l(1) =   0
                l(2) =   0
                l(3) =   1
                l(4) =   1
                l(5) =   2
                l(6) =   2
     Q(r) pseudized with  6 coefficients,  rinner =    1.200   1.200   1.200
                                                       1.200   1.200

     atomic species   valence    mass     pseudopotential
        Ba            10.00   137.32700     Ba( 1.00)
        Ca            10.00    40.07800     Ca( 1.00)
        Cu            11.00    63.54600     Cu( 1.00)
        O              6.00    15.99900     O ( 1.00)
        Y             11.00    88.90584     Y ( 1.00)

      4 Sym. Ops. (no inversion) found ( 2 have fractional translation)



   Cartesian axes

     site n.     atom                  positions (alat units)
         1           O   tau(   1) = (  -0.0008343   0.2387265  -0.0222443  )
         2           O   tau(   2) = (   0.5008340   0.2387265  -0.0222443  )
         3           Cu  tau(   3) = (   0.5017257   0.0000000   0.0109608  )
         4           Cu  tau(   4) = (  -0.0017260   0.0000000   0.0109608  )
         5           O   tau(   5) = (  -0.0028933   0.0000000   0.2506504  )
         6           O   tau(   6) = (   0.5028929   0.0000000   0.2506504  )
         7           Ba  tau(   7) = (   0.7499995   0.2387265   0.2749435  )
         8           Ba  tau(   8) = (   0.2499998   0.2387265   0.2755214  )
         9           Cu  tau(   9) = (   0.4980963   0.0000000   0.5208446  )
        10           Cu  tau(  10) = (   0.0019033   0.0000000   0.5208446  )
        11           O   tau(  11) = (   0.2499998   0.0000000   0.5341884  )
        12           O   tau(  12) = (   0.5083351   0.2387265   0.5569851  )
        13           O   tau(  13) = (  -0.0083354   0.2387265   0.5569851  )
        14           O   tau(  14) = (   0.7499995   0.0000000   0.5573831  )
        15           Ca  tau(  15) = (   0.2499998   0.2387265   0.7436937  )
        16           Y   tau(  16) = (   0.7499995   0.2387265   0.7469544  )
        17           O   tau(  17) = (  -0.0063798   0.2387265   0.9248530  )
        18           O   tau(  18) = (   0.5063794   0.2387265   0.9248530  )
        19           O   tau(  19) = (   0.7499995   0.0000000   0.9338544  )
        20           O   tau(  20) = (   0.2499998   0.0000000   0.9461329  )
        21           Cu  tau(  21) = (   0.0015717   0.0000000   0.9686860  )
        22           Cu  tau(  22) = (   0.4984280   0.0000000   0.9686860  )
        23           Ba  tau(  23) = (   0.2499998   0.2387265   1.2085224  )
        24           Ba  tau(  24) = (   0.7499995   0.2387265   1.2233294  )
        25           O   tau(  25) = (   0.0063772   0.0000000   1.2547537  )
        26           O   tau(  26) = (   0.4936224   0.0000000   1.2547537  )
        27           O   tau(  27) = (   0.5384045   0.2387265   1.4952521  )
        28           O   tau(  28) = (  -0.0384049   0.2387265   1.4952521  )
        29           Cu  tau(  29) = (   0.5006120   0.0000000   1.4952546  )
        30           Cu  tau(  30) = (  -0.0006123   0.0000000   1.4952546  )
        31           O   tau(  31) = (   0.4936212   0.0000000   1.8633229  )
        32           O   tau(  32) = (   0.0063785   0.0000000   1.8633229  )
        33           Ba  tau(  33) = (   0.7499995   0.2387265   1.8947522  )
        34           Ba  tau(  34) = (   0.2499998   0.2387265   1.9095618  )
        35           Cu  tau(  35) = (   0.4984280   0.0000000   2.1493930  )
        36           Cu  tau(  36) = (   0.0015717   0.0000000   2.1493930  )
        37           O   tau(  37) = (   0.2499998   0.0000000   2.1719512  )
        38           O   tau(  38) = (   0.7499995   0.0000000   2.1842209  )
        39           O   tau(  39) = (   0.5063781   0.2387265   2.1932260  )
        40           O   tau(  40) = (  -0.0063785   0.2387265   2.1932260  )
        41           Y   tau(  41) = (   0.7499995   0.2387265   2.3711196  )
        42           Ca  tau(  42) = (   0.2499998   0.2387265   2.3743892  )
        43           O   tau(  43) = (   0.7499995   0.0000000   2.5606870  )
        44           O   tau(  44) = (  -0.0083354   0.2387265   2.5610889  )
        45           O   tau(  45) = (   0.5083351   0.2387265   2.5610889  )
        46           O   tau(  46) = (   0.2499998   0.0000000   2.5838869  )
        47           Cu  tau(  47) = (   0.0019059   0.0000000   2.5972205  )
        48           Cu  tau(  48) = (   0.4980938   0.0000000   2.5972205  )
        49           Ba  tau(  49) = (   0.2499998   0.2387265   2.8425602  )
        50           Ba  tau(  50) = (   0.7499995   0.2387265   2.8431023  )
        51           O   tau(  51) = (  -0.0028895   0.0000000   2.8674095  )
        52           O   tau(  52) = (   0.5028891   0.0000000   2.8674095  )
        53           Cu  tau(  53) = (   0.5017844   0.0000000   3.1070940  )
        54           Cu  tau(  54) = (  -0.0017847   0.0000000   3.1070940  )
        55           O   tau(  55) = (   0.5008990   0.2387265   3.1403004  )
        56           O   tau(  56) = (  -0.0008994   0.2387265   3.1403004  )

     number of k points=    25  Gaussian smearing, width (Ry)=  0.0100
                       cart. coord. in units 2pi/alat
        k(    1) = (   0.0000000   0.0000000   0.0000000), wk =   0.0312500
        k(    2) = (   0.0000000   0.2618060   0.0000000), wk =   0.0625000
        k(    3) = (   0.0000000   0.5236121   0.0000000), wk =   0.0625000
        k(    4) = (   0.0000000   0.7854181   0.0000000), wk =   0.0625000
        k(    5) = (   0.0000000  -1.0472241   0.0000000), wk =   0.0312500
        k(    6) = (   0.1250000   0.0000000   0.0000000), wk =   0.0625000
        k(    7) = (   0.1250000   0.2618060   0.0000000), wk =   0.1250000
        k(    8) = (   0.1250000   0.5236121   0.0000000), wk =   0.1250000
        k(    9) = (   0.1250000   0.7854181   0.0000000), wk =   0.1250000
        k(   10) = (   0.1250000  -1.0472241   0.0000000), wk =   0.0625000
        k(   11) = (   0.2500000   0.0000000   0.0000000), wk =   0.0625000
        k(   12) = (   0.2500000   0.2618060   0.0000000), wk =   0.1250000
        k(   13) = (   0.2500000   0.5236121   0.0000000), wk =   0.1250000
        k(   14) = (   0.2500000   0.7854181   0.0000000), wk =   0.1250000
        k(   15) = (   0.2500000  -1.0472241   0.0000000), wk =   0.0625000
        k(   16) = (   0.3750000   0.0000000   0.0000000), wk =   0.0625000
        k(   17) = (   0.3750000   0.2618060   0.0000000), wk =   0.1250000
        k(   18) = (   0.3750000   0.5236121   0.0000000), wk =   0.1250000
        k(   19) = (   0.3750000   0.7854181   0.0000000), wk =   0.1250000
        k(   20) = (   0.3750000  -1.0472241   0.0000000), wk =   0.0625000
        k(   21) = (  -0.5000000   0.0000000   0.0000000), wk =   0.0312500
        k(   22) = (  -0.5000000   0.2618060   0.0000000), wk =   0.0625000
        k(   23) = (  -0.5000000   0.5236121   0.0000000), wk =   0.0625000
        k(   24) = (  -0.5000000   0.7854181   0.0000000), wk =   0.0625000
        k(   25) = (  -0.5000000  -1.0472241   0.0000000), wk =   0.0312500

     Dense  grid:  2908509 G-vectors     FFT dimensions: ( 128,  64, 729)

     Smooth grid:   560041 G-vectors     FFT dimensions: (  80,  36, 432)

     Estimated max dynamical RAM per process >     842.52 MB

     Estimated total dynamical RAM >      26.33 GB

     Initial potential from superposition of free atoms

     starting charge  455.69457, renormalised to  456.00000

     negative rho (up, down):  9.328E-02 0.000E+00
     Starting wfcs are  396 randomized atomic wfcs

     total cpu time spent up to now is       31.3 secs

     Self-consistent Calculation

     iteration #  1     ecut=    60.00 Ry     beta= 0.50
     Davidson diagonalization with overlap
     ethr =  1.00E-02,  avg # of iterations =  2.0

     negative rho (up, down):  8.606E-02 0.000E+00

     total cpu time spent up to now is       86.7 secs

     total energy              =   -3708.28634996 Ry
     Harris-Foulkes estimate   =   -3716.37164215 Ry
     estimated scf accuracy    <      30.54531465 Ry

     iteration #  2     ecut=    60.00 Ry     beta= 0.50
     Davidson diagonalization with overlap
     ethr =  6.70E-03,  avg # of iterations =  2.0

     negative rho (up, down):  8.576E-02 0.000E+00

     total cpu time spent up to now is      142.9 secs

     total energy              =   -3711.03214901 Ry
     Harris-Foulkes estimate   =   -3712.25226763 Ry
     estimated scf accuracy    <       6.20933786 Ry

     iteration #  3     ecut=    60.00 Ry     beta= 0.50
     Davidson diagonalization with overlap
     ethr =  1.36E-03,  avg # of iterations =  2.0

     negative rho (up, down):  8.621E-02 0.000E+00

     total cpu time spent up to now is      201.0 secs

     total energy              =   -3711.54909863 Ry
     Harris-Foulkes estimate   =   -3711.90675764 Ry
     estimated scf accuracy    <       6.64956464 Ry

     iteration #  4     ecut=    60.00 Ry     beta= 0.50
     Davidson diagonalization with overlap
     ethr =  1.36E-03,  avg # of iterations =  1.0

     negative rho (up, down):  8.738E-02 0.000E+00

     total cpu time spent up to now is      250.8 secs

     total energy              =   -3711.60670561 Ry
     Harris-Foulkes estimate   =   -3711.74562458 Ry
     estimated scf accuracy    <       1.01178397 Ry

     iteration #  5     ecut=    60.00 Ry     beta= 0.50
     Davidson diagonalization with overlap
     ethr =  2.22E-04,  avg # of iterations =  7.6

     negative rho (up, down):  8.881E-02 0.000E+00

     total cpu time spent up to now is      327.8 secs

     total energy              =   -3711.61643290 Ry
     Harris-Foulkes estimate   =   -3711.67154094 Ry
     estimated scf accuracy    <       0.81015998 Ry

     iteration #  6     ecut=    60.00 Ry     beta= 0.50
     Davidson diagonalization with overlap
     ethr =  1.78E-04,  avg # of iterations =  1.9

     negative rho (up, down):  8.975E-02 0.000E+00

     total cpu time spent up to now is      381.9 secs

     total energy              =   -3711.62253097 Ry
     Harris-Foulkes estimate   =   -3711.63901923 Ry
     estimated scf accuracy    <       0.38205418 Ry

     iteration #  7     ecut=    60.00 Ry     beta= 0.50
     Davidson diagonalization with overlap
     ethr =  8.38E-05,  avg # of iterations =  5.6

     negative rho (up, down):  9.035E-02 0.000E+00

     total cpu time spent up to now is      450.5 secs

     total energy              =   -3711.62224418 Ry
     Harris-Foulkes estimate   =   -3711.63377814 Ry
     estimated scf accuracy    <       0.46639493 Ry

     iteration #  8     ecut=    60.00 Ry     beta= 0.50
     Davidson diagonalization with overlap
     ethr =  8.38E-05,  avg # of iterations =  1.1

     negative rho (up, down):  9.065E-02 0.000E+00

     total cpu time spent up to now is      502.1 secs

     total energy              =   -3711.61716442 Ry
     Harris-Foulkes estimate   =   -3711.62858778 Ry
     estimated scf accuracy    <       0.16317672 Ry

     iteration #  9     ecut=    60.00 Ry     beta= 0.50
     Davidson diagonalization with overlap
     ethr =  3.58E-05,  avg # of iterations =  9.3

     negative rho (up, down):  9.069E-02 0.000E+00

     total cpu time spent up to now is      586.0 secs

     total energy              =   -3711.61523106 Ry
     Harris-Foulkes estimate   =   -3711.62137372 Ry
     estimated scf accuracy    <       0.10165439 Ry

     iteration # 10     ecut=    60.00 Ry     beta= 0.50
     Davidson diagonalization with overlap
     ethr =  2.23E-05,  avg # of iterations =  4.3

     negative rho (up, down):  9.007E-02 0.000E+00

     total cpu time spent up to now is      647.8 secs

     total energy              =   -3711.60925929 Ry
     Harris-Foulkes estimate   =   -3711.61667440 Ry
     estimated scf accuracy    <       0.04748308 Ry

     iteration # 11     ecut=    60.00 Ry     beta= 0.50
     Davidson diagonalization with overlap
     ethr =  1.04E-05,  avg # of iterations =  8.0

     negative rho (up, down):  9.060E-02 0.000E+00

     total cpu time spent up to now is      726.9 secs

     total energy              =   -3711.60927242 Ry
     Harris-Foulkes estimate   =   -3711.61068964 Ry
     estimated scf accuracy    <       0.04533773 Ry

     iteration # 12     ecut=    60.00 Ry     beta= 0.50
     Davidson diagonalization with overlap
     ethr =  9.94E-06,  avg # of iterations =  1.3

     negative rho (up, down):  9.412E-02 0.000E+00

     total cpu time spent up to now is      774.8 secs

     total energy              =   -3711.60694289 Ry
     Harris-Foulkes estimate   =   -3711.60959092 Ry
     estimated scf accuracy    <       0.02850608 Ry

     iteration # 13     ecut=    60.00 Ry     beta= 0.50
     Davidson diagonalization with overlap
     ethr =  6.25E-06,  avg # of iterations =  6.8

     negative rho (up, down):  1.113E-01 0.000E+00

     total cpu time spent up to now is      847.6 secs

     total energy              =   -3711.60556506 Ry
     Harris-Foulkes estimate   =   -3711.60729119 Ry
     estimated scf accuracy    <       0.02338456 Ry

     iteration # 14     ecut=    60.00 Ry     beta= 0.50
     Davidson diagonalization with overlap
     ethr =  5.13E-06,  avg # of iterations =  9.9

     negative rho (up, down):  1.286E-01 0.000E+00

     total cpu time spent up to now is      933.3 secs

     total energy              =   -3711.60361066 Ry
     Harris-Foulkes estimate   =   -3711.60589471 Ry
     estimated scf accuracy    <       0.01435875 Ry

     iteration # 15     ecut=    60.00 Ry     beta= 0.50
     Davidson diagonalization with overlap
     ethr =  3.15E-06,  avg # of iterations =  9.3

     negative rho (up, down):  1.320E-01 0.000E+00

     total cpu time spent up to now is     1009.7 secs

     total energy              =   -3711.60207890 Ry
     Harris-Foulkes estimate   =   -3711.60392426 Ry
     estimated scf accuracy    <       0.00965947 Ry

     iteration # 16     ecut=    60.00 Ry     beta= 0.50
     Davidson diagonalization with overlap
     c_bands:  1 eigenvalues not converged
     ethr =  2.12E-06,  avg # of iterations = 11.0

     negative rho (up, down):  1.243E-01 0.000E+00

     total cpu time spent up to now is     1101.5 secs

     total energy              =   -3711.60142322 Ry
     Harris-Foulkes estimate   =   -3711.60225279 Ry
     estimated scf accuracy    <       0.00529609 Ry

     iteration # 17     ecut=    60.00 Ry     beta= 0.50
     Davidson diagonalization with overlap
     ethr =  1.16E-06,  avg # of iterations =  4.7

     negative rho (up, down):  1.336E-01 0.000E+00

     total cpu time spent up to now is     1165.3 secs

     total energy              =   -3711.60065567 Ry
     Harris-Foulkes estimate   =   -3711.60152576 Ry
     estimated scf accuracy    <       0.00650952 Ry

     iteration # 18     ecut=    60.00 Ry     beta= 0.50
     Davidson diagonalization with overlap
     ethr =  1.16E-06,  avg # of iterations = 10.3

     negative rho (up, down):  1.173E-01 0.000E+00

     total cpu time spent up to now is     1256.5 secs

     total energy              =   -3711.60000624 Ry
     Harris-Foulkes estimate   =   -3711.60072881 Ry
     estimated scf accuracy    <       0.00278236 Ry

     iteration # 19     ecut=    60.00 Ry     beta= 0.50
     Davidson diagonalization with overlap
     ethr =  6.10E-07,  avg # of iterations =  5.4

     negative rho (up, down):  1.061E-01 0.000E+00

     total cpu time spent up to now is     1324.5 secs

     total energy              =   -3711.59977312 Ry
     Harris-Foulkes estimate   =   -3711.60006155 Ry
     estimated scf accuracy    <       0.00097324 Ry

     iteration # 20     ecut=    60.00 Ry     beta= 0.50
     Davidson diagonalization with overlap
     c_bands:  1 eigenvalues not converged
     ethr =  2.13E-07,  avg # of iterations =  7.2

     negative rho (up, down):  9.855E-02 0.000E+00

     total cpu time spent up to now is     1400.1 secs

     total energy              =   -3711.59969321 Ry
     Harris-Foulkes estimate   =   -3711.59979394 Ry
     estimated scf accuracy    <       0.00072833 Ry

     iteration # 21     ecut=    60.00 Ry     beta= 0.50
     Davidson diagonalization with overlap
     c_bands:  1 eigenvalues not converged
     c_bands:  1 eigenvalues not converged
     c_bands:  1 eigenvalues not converged
     c_bands:  1 eigenvalues not converged
     c_bands:  1 eigenvalues not converged
     c_bands:  1 eigenvalues not converged
     c_bands:  1 eigenvalues not converged
     ethr =  1.60E-07,  avg # of iterations = 11.0

     negative rho (up, down):  9.216E-02 0.000E+00

     total cpu time spent up to now is     1487.8 secs

     total energy              =   -3711.59972437 Ry
     Harris-Foulkes estimate   =   -3711.59971127 Ry
     estimated scf accuracy    <       0.00034977 Ry

     iteration # 22     ecut=    60.00 Ry     beta= 0.50
     Davidson diagonalization with overlap
     c_bands:  1 eigenvalues not converged
     c_bands:  2 eigenvalues not converged
     c_bands:  1 eigenvalues not converged
     c_bands:  2 eigenvalues not converged
     ethr =  7.67E-08,  avg # of iterations = 11.9

     negative rho (up, down):  9.235E-02 0.000E+00

     total cpu time spent up to now is     1582.3 secs

     total energy              =   -3711.59975500 Ry
     Harris-Foulkes estimate   =   -3711.59973824 Ry
     estimated scf accuracy    <       0.00008330 Ry

     iteration # 23     ecut=    60.00 Ry     beta= 0.50
     Davidson diagonalization with overlap
     c_bands:  1 eigenvalues not converged
     c_bands:  2 eigenvalues not converged
     ethr =  1.83E-08,  avg # of iterations =  4.3

     negative rho (up, down):  9.179E-02 0.000E+00

     total cpu time spent up to now is     1641.9 secs

     total energy              =   -3711.59976190 Ry
     Harris-Foulkes estimate   =   -3711.59975734 Ry
     estimated scf accuracy    <       0.00003769 Ry

     iteration # 24     ecut=    60.00 Ry     beta= 0.50
     Davidson diagonalization with overlap
     c_bands:  1 eigenvalues not converged
     ethr =  8.26E-09,  avg # of iterations =  6.5

     negative rho (up, down):  9.185E-02 0.000E+00

     total cpu time spent up to now is     1708.0 secs

     total energy              =   -3711.59976198 Ry
     Harris-Foulkes estimate   =   -3711.59976341 Ry
     estimated scf accuracy    <       0.00001324 Ry

     iteration # 25     ecut=    60.00 Ry     beta= 0.50
     Davidson diagonalization with overlap
     ethr =  2.90E-09,  avg # of iterations =  2.2

     negative rho (up, down):  9.177E-02 0.000E+00

     total cpu time spent up to now is     1763.9 secs

     total energy              =   -3711.59976273 Ry
     Harris-Foulkes estimate   =   -3711.59976270 Ry
     estimated scf accuracy    <       0.00000434 Ry

     iteration # 26     ecut=    60.00 Ry     beta= 0.50
     Davidson diagonalization with overlap
     ethr =  9.51E-10,  avg # of iterations =  2.3

     negative rho (up, down):  9.175E-02 0.000E+00

     total cpu time spent up to now is     1819.5 secs

     total energy              =   -3711.59976278 Ry
     Harris-Foulkes estimate   =   -3711.59976294 Ry
     estimated scf accuracy    <       0.00000314 Ry

     iteration # 27     ecut=    60.00 Ry     beta= 0.50
     Davidson diagonalization with overlap
     ethr =  6.88E-10,  avg # of iterations =  1.0

     negative rho (up, down):  9.189E-02 0.000E+00

     total cpu time spent up to now is     1869.7 secs

     total energy              =   -3711.59976250 Ry
     Harris-Foulkes estimate   =   -3711.59976285 Ry
     estimated scf accuracy    <       0.00000118 Ry

     iteration # 28     ecut=    60.00 Ry     beta= 0.50
     Davidson diagonalization with overlap
     ethr =  2.58E-10,  avg # of iterations =  1.6

     negative rho (up, down):  9.200E-02 0.000E+00

     total cpu time spent up to now is     1922.9 secs

     total energy              =   -3711.59976242 Ry
     Harris-Foulkes estimate   =   -3711.59976254 Ry
     estimated scf accuracy    <       0.00000031 Ry

     iteration # 29     ecut=    60.00 Ry     beta= 0.50
     Davidson diagonalization with overlap
     ethr =  6.70E-11,  avg # of iterations =  2.9

     negative rho (up, down):  9.202E-02 0.000E+00

     total cpu time spent up to now is     1981.2 secs

     total energy              =   -3711.59976247 Ry
     Harris-Foulkes estimate   =   -3711.59976245 Ry
     estimated scf accuracy    <       0.00000022 Ry

     iteration # 30     ecut=    60.00 Ry     beta= 0.50
     Davidson diagonalization with overlap
     ethr =  4.78E-11,  avg # of iterations =  1.0

     negative rho (up, down):  9.200E-02 0.000E+00

     total cpu time spent up to now is     2031.1 secs

     total energy              =   -3711.59976250 Ry
     Harris-Foulkes estimate   =   -3711.59976247 Ry
     estimated scf accuracy    <       0.00000004 Ry

     iteration # 31     ecut=    60.00 Ry     beta= 0.50
     Davidson diagonalization with overlap
     ethr =  9.00E-12,  avg # of iterations =  3.0

     negative rho (up, down):  9.198E-02 0.000E+00

     total cpu time spent up to now is     2093.1 secs

     total energy              =   -3711.59976253 Ry
     Harris-Foulkes estimate   =   -3711.59976250 Ry
     estimated scf accuracy    <       0.00000002 Ry

     iteration # 32     ecut=    60.00 Ry     beta= 0.50
     Davidson diagonalization with overlap
     ethr =  4.47E-12,  avg # of iterations =  2.0

     negative rho (up, down):  9.198E-02 0.000E+00

     total cpu time spent up to now is     2146.5 secs

     End of self-consistent calculation

          k = 0.0000 0.0000 0.0000 ( 70025 PWs)   bands (ev):

   -38.1472 -38.1033 -35.7784 -35.7254 -22.9066 -22.8987 -22.7782 -22.7704
   -22.7179 -22.6964 -22.5303 -22.3063 -18.6207 -18.5830 -18.5198 -18.4766
   -18.1508 -18.1066 -17.1249 -17.0733 -16.9914 -16.9418 -16.8091 -16.7538
   -15.5267 -15.4957 -15.0762 -15.0625 -14.8300 -14.7493 -14.6750 -14.6586
   -14.6422 -14.5977 -14.5541 -14.5444 -14.5355 -14.4659 -14.3885 -14.3852
   -14.2126 -14.1832 -14.0997 -14.0826 -14.0752 -14.0722 -14.0679 -14.0595
   -14.0128 -13.9521 -13.8275 -13.7548 -13.0455 -12.6000  -8.1451  -8.1374
    -8.0366  -8.0285  -8.0152  -7.9557  -7.9483  -7.9421  -7.8176  -7.8105
    -7.8100  -7.7212  -7.7138  -7.7031  -7.6092  -7.6024  -7.5801  -7.5797
    -7.5720  -7.5227  -7.4764  -7.3484  -7.1642  -7.0559  -3.0806  -3.0653
    -2.9487  -2.8747  -2.2605  -2.2560  -2.1723  -2.1689  -2.1573  -2.1324
    -2.0072  -1.9644  -1.9614  -1.9339  -1.9175  -1.8723  -1.8453  -1.7978
    -1.7900  -1.7648  -1.7492  -1.7089  -1.6432  -1.6026  -1.4525  -1.4310
    -1.2490  -1.2161  -1.1953  -1.1887  -1.1191  -1.0593  -1.0075  -1.0072
    -1.0059  -1.0010  -0.9991  -0.9973  -0.9668  -0.9653  -0.8915  -0.8338
    -0.7812  -0.7761  -0.5188  -0.4788  -0.4287  -0.3648  -0.3426  -0.3370
    -0.3273  -0.3270  -0.3058  -0.2839  -0.2743  -0.2523  -0.2360  -0.2227
    -0.2179  -0.2177  -0.2168  -0.1679  -0.1401  -0.1215  -0.0564  -0.0482
    -0.0406  -0.0299  -0.0235  -0.0218   0.0298   0.0500   0.0735   0.0769
     0.0810   0.0900   0.0909   0.0924   0.1876   0.1932   0.2270   0.2325
     0.2411   0.2634   0.2868   0.3196   0.3241   0.3347   0.3935   0.4307
     0.4700   0.4972   0.4993   0.5190   0.5250   0.5276   0.5355   0.5940
     0.7058   0.7235   0.7702   0.8608   0.8764   0.9088   0.9531   0.9614
     0.9870   1.0047   1.0087   1.0482   1.1436   1.1601   1.1809   1.1822
     1.1866   1.1919   1.1986   1.2108   1.2853   1.3042   1.3072   1.3394
     1.3493   1.3695   1.3791   1.3970   1.4255   1.4369   1.5341   1.5699
     1.5941   1.6221   1.6820   1.6868   1.7367   1.7549   1.7603   1.7710
     1.8173   1.8407   1.8410   1.8470   1.9131   2.0258   2.0344   2.1508
     2.2019   2.2045   2.3458   2.3622   2.3846   2.4054   2.4302   2.5055
     2.5497   2.5739   2.6050   2.6187   2.8358   2.8669   5.1354   5.2024
     5.2919   5.8960   6.0205   6.5790   6.5998   6.7251   6.9032   7.0841
     7.2432   7.2538   7.3378   7.3431   7.5185   7.5850   7.6361   7.9860
     8.0277   8.0762   8.1178   8.1298   8.2374   8.4347   8.4669   8.4997
     8.5610   8.6248   8.7584   8.9179   9.0131   9.0653   9.1539   9.2027
     9.3497   9.3561

          k = 0.0000 0.2618 0.0000 ( 69989 PWs)   bands (ev):

   -38.1445 -38.1006 -35.7767 -35.7237 -22.8820 -22.8741 -22.7591 -22.7513
   -22.6985 -22.6727 -22.5114 -22.2858 -18.5821 -18.5442 -18.5126 -18.4694
   -18.2615 -18.2177 -17.0955 -17.0439 -16.9871 -16.9374 -16.8750 -16.8199
   -15.4206 -15.3898 -15.0203 -15.0066 -14.7794 -14.7112 -14.6709 -14.6383
   -14.6097 -14.5396 -14.5259 -14.5083 -14.4692 -14.4339 -14.3532 -14.3503
   -14.2075 -14.1797 -14.1621 -14.1295 -14.0817 -14.0641 -14.0605 -14.0530
   -14.0482 -13.9883 -13.8191 -13.7980 -13.0014 -12.6621  -8.1384  -8.1302
    -8.0495  -8.0416  -8.0078  -7.9533  -7.9120  -7.9047  -7.8603  -7.8531
    -7.8524  -7.8456  -7.8018  -7.7868  -7.7793  -7.6981  -7.6350  -7.6262
    -7.6200  -7.6004  -7.5600  -7.5531  -7.2494  -7.1838  -3.1870  -3.1621
    -3.0053  -2.9308  -2.3847  -2.3748  -2.3256  -2.2737  -2.2711  -2.2687
    -2.1498  -2.1447  -2.1132  -2.0809  -2.0060  -1.9635  -1.8591  -1.8122
    -1.7961  -1.7901  -1.7558  -1.7287  -1.7097  -1.6899  -1.5708  -1.5362
    -1.5293  -1.5097  -1.4542  -1.4464  -1.4393  -1.4217  -1.4208  -1.4139
    -1.3589  -1.2941  -1.0714  -0.9450  -0.8998  -0.8695  -0.8037  -0.7915
    -0.7249  -0.6694  -0.6571  -0.6535  -0.5954  -0.5798  -0.4337  -0.4288
    -0.4007  -0.3836  -0.3644  -0.3572  -0.3286  -0.3107  -0.2735  -0.2631
    -0.2426  -0.2168  -0.1788  -0.1760  -0.1726  -0.0830  -0.0751  -0.0373
    -0.0339  -0.0239  -0.0180   0.0640   0.0695   0.1204   0.1257   0.1272
     0.1443   0.1571   0.1583   0.1784   0.2268   0.2527   0.2550   0.2757
     0.2821   0.3007   0.3018   0.3406   0.3551   0.3628   0.3796   0.3849
     0.4039   0.4238   0.4295   0.4520   0.6071   0.6309   0.6365   0.7227
     0.7408   0.7409   0.8030   0.8168   0.9155   0.9317   0.9421   0.9743
     1.0515   1.1039   1.1158   1.1190   1.1693   1.1879   1.1896   1.1919
     1.2555   1.2779   1.2795   1.2937   1.3270   1.3432   1.3592   1.3686
     1.4404   1.4590   1.4685   1.4863   1.4955   1.5019   1.5186   1.6098
     1.6602   1.6878   1.6953   1.7185   1.7363   1.7376   1.7995   1.8033
     1.8193   1.8219   1.8429   1.8527   1.8809   1.9790   2.0220   2.0970
     2.2558   2.2848   2.5429   2.5818   2.7574   2.7656   2.7777   2.8513
     2.8527   2.8646   2.9173   2.9319   3.1212   3.1445   5.4777   5.5811
     5.5968   6.1696   6.2523   6.8392   6.9175   6.9237   7.0780   7.0837
     7.1761   7.2953   7.5147   7.5554   7.6972   7.7257   7.7298   7.8010
     7.8974   8.1775   8.2021   8.3245   8.4045   8.6364   8.6690   8.7007
     8.7590   8.8473   8.9019   9.0890   9.1417   9.2172   9.2531   9.2901
     9.3410   9.3861

          k = 0.0000 0.5236 0.0000 ( 69935 PWs)   bands (ev):

   -38.1380 -38.0941 -35.7726 -35.7196 -22.8215 -22.8136 -22.7122 -22.7045
   -22.6511 -22.6143 -22.4647 -22.2352 -18.5020 -18.4951 -18.4821 -18.4589
   -18.4518 -18.4440 -17.0279 -17.0123 -16.9766 -16.9726 -16.9610 -16.9270
   -15.1797 -15.1505 -14.8731 -14.8589 -14.7234 -14.6956 -14.6587 -14.6189
   -14.5456 -14.5182 -14.4716 -14.3759 -14.3208 -14.3041 -14.2968 -14.2670
   -14.2646 -14.2419 -14.1883 -14.1725 -14.1370 -14.0644 -14.0476 -14.0378
   -14.0096 -14.0019 -13.8841 -13.8138 -12.8889 -12.8078  -8.3253  -8.3175
    -8.1656  -8.1582  -8.1017  -8.0984  -8.0932  -8.0306  -8.0226  -7.9895
    -7.9377  -7.9328  -7.9247  -7.9212  -7.9166  -7.7952  -7.7877  -7.7754
    -7.7725  -7.7048  -7.6116  -7.5324  -7.3424  -7.3093  -3.5886  -3.5490
    -3.2455  -3.1736  -2.8765  -2.8601  -2.7185  -2.6665  -2.4985  -2.4898
    -2.3921  -2.3580  -2.3081  -2.3030  -2.2870  -2.2672  -2.2618  -2.1735
    -2.1236  -2.1180  -2.1133  -2.1077  -2.0227  -1.9923  -1.8539  -1.8213
    -1.8140  -1.7854  -1.7344  -1.6957  -1.6675  -1.6633  -1.6275  -1.6243
    -1.2807  -1.2440  -1.1532  -1.0323  -1.0298  -0.9983  -0.9372  -0.8885
    -0.8755  -0.8676  -0.8468  -0.8259  -0.6934  -0.6864  -0.6668  -0.6287
    -0.6092  -0.5991  -0.5981  -0.5766  -0.5463  -0.5405  -0.4810  -0.4690
    -0.4509  -0.4207  -0.3753  -0.3740  -0.3696  -0.3164  -0.3058  -0.2972
    -0.2192  -0.2050  -0.1660  -0.1257  -0.0001   0.0276   0.1039   0.1196
     0.1740   0.1755   0.1951   0.2219   0.2695   0.2700   0.2930   0.3122
     0.3357   0.3724   0.3841   0.4772   0.5787   0.6043   0.6054   0.6201
     0.7352   0.7781   0.7933   0.8057   0.8377   0.9911   1.0130   1.0206
     1.0386   1.0425   1.0548   1.0781   1.1485   1.1720   1.2156   1.2230
     1.2348   1.2407   1.2440   1.2663   1.2693   1.3352   1.3636   1.3703
     1.3756   1.3969   1.4078   1.4168   1.4416   1.4744   1.4864   1.5469
     1.5487   1.5644   1.6202   1.6477   1.6627   1.6880   1.6978   1.7138
     1.7841   1.7878   1.7918   1.7989   1.8165   1.8453   1.8962   1.8980
     1.9166   1.9260   1.9633   1.9771   2.0453   2.0515   2.0940   2.1401
     2.1549   2.2442   2.4722   2.6757   3.0326   3.0606   3.0616   3.0976
     3.2201   3.2216   3.7787   3.7916   3.8701   3.8942   5.8948   6.4778
     6.4835   6.5957   6.6026   6.8734   6.9362   6.9467   7.0300   7.0841
     7.7742   7.7839   7.9791   8.1489   8.1740   8.2302   8.2875   8.3902
     8.4006   8.5827   8.6344   8.6423   8.6604   8.7028   8.7143   8.9109
     9.0078   9.0207   9.1133   9.1305   9.2678   9.2978   9.3383   9.4005
     9.4178   9.4726

          k = 0.0000 0.7854 0.0000 ( 69898 PWs)   bands (ev):

   -38.1315 -38.0876 -35.7685 -35.7155 -22.7591 -22.7512 -22.6643 -22.6565
   -22.6028 -22.5544 -22.4169 -22.1831 -18.7103 -18.6677 -18.4776 -18.4343
   -18.3768 -18.3382 -17.1497 -17.0945 -16.9663 -16.9392 -16.9166 -16.8880
   -14.9525 -14.9361 -14.8350 -14.7967 -14.6976 -14.6808 -14.6256 -14.5852
   -14.5497 -14.5334 -14.4353 -14.3485 -14.3300 -14.2807 -14.2208 -14.1978
   -14.1811 -14.1767 -14.1399 -14.1354 -14.1049 -14.0574 -13.9947 -13.9860
   -13.9635 -13.9556 -13.9445 -13.8545 -12.9456 -12.7663  -8.7203  -8.7126
    -8.4824  -8.4607  -8.4532  -8.2933  -8.1993  -8.1053  -8.0969  -8.0468
    -8.0363  -8.0279  -7.9935  -7.9862  -7.9738  -7.9529  -7.8080  -7.7273
    -7.6741  -7.6666  -7.6359  -7.4204  -7.4169  -7.2506  -4.0746  -4.0349
    -3.6496  -3.5824  -3.2806  -3.2669  -3.0834  -3.0266  -2.8828  -2.8761
    -2.8417  -2.8167  -2.8099  -2.7390  -2.6399  -2.6345  -2.5194  -2.4790
    -2.3907  -2.3563  -2.2303  -2.2265  -2.1633  -2.1598  -1.9302  -1.8843
    -1.8518  -1.8145  -1.8066  -1.7984  -1.7062  -1.6827  -1.5349  -1.4967
    -1.4963  -1.2645  -1.2566  -1.2247  -1.1645  -1.1100  -1.1044  -1.0635
    -1.0416  -1.0350  -0.9930  -0.9877  -0.9404  -0.9064  -0.8852  -0.8302
    -0.8202  -0.8111  -0.7779  -0.7666  -0.7593  -0.7465  -0.7382  -0.7108
    -0.6439  -0.6243  -0.6184  -0.5970  -0.5756  -0.5628  -0.4731  -0.2350
    -0.2291  -0.2031  -0.1906  -0.1461  -0.0710  -0.0207  -0.0095   0.1052
     0.1815   0.1946   0.2047   0.2265   0.2380   0.2789   0.2801   0.3252
     0.4260   0.4862   0.5129   0.5581   0.7739   0.7870   0.8460   0.8655
     0.9519   0.9790   1.0307   1.0400   1.0436   1.0567   1.1835   1.1885
     1.2116   1.2458   1.2536   1.2702   1.2817   1.2991   1.3059   1.3632
     1.3747   1.3850   1.4296   1.4433   1.5277   1.5365   1.5413   1.5638
     1.5879   1.6545   1.6729   1.6803   1.6807   1.7019   1.7035   1.7195
     1.7314   1.7775   1.7832   1.7970   1.8194   1.8256   1.8398   1.8555
     1.8902   1.9129   1.9201   1.9487   1.9794   1.9980   2.0120   2.0471
     2.0893   2.2241   2.2303   2.2323   2.2407   2.2555   2.3356   2.4495
     2.4558   2.4958   2.5182   2.5922   2.8788   2.9136   2.9762   3.0135
     3.2434   3.3178   4.4147   4.4335   4.4739   4.4891   5.8481   6.0660
     6.0714   6.6738   6.7425   7.3306   7.4047   7.4196   7.7539   7.8059
     8.3046   8.3850   8.4033   8.4719   8.4905   8.5549   8.5986   8.7287
     8.7559   8.7973   8.8510   8.9431   9.0005   9.0199   9.0660   9.1417
     9.2183   9.2287   9.2874   9.3260   9.3888   9.4442   9.4953   9.5418
     9.6068   9.6329

          k = 0.0000-1.0472 0.0000 ( 70018 PWs)   bands (ev):

   -38.1287 -38.0849 -35.7668 -35.7138 -22.7327 -22.7248 -22.6441 -22.6363
   -22.5825 -22.5291 -22.3967 -22.1611 -18.7908 -18.7484 -18.4704 -18.4271
   -18.3296 -18.2908 -17.2001 -17.1449 -16.9620 -16.9123 -16.9036 -16.8524
   -14.9547 -14.9380 -14.7708 -14.7447 -14.6964 -14.6439 -14.6050 -14.5813
   -14.5173 -14.5141 -14.4929 -14.3649 -14.3172 -14.2386 -14.2058 -14.1839
   -14.1588 -14.1489 -14.1069 -14.0975 -14.0423 -13.9950 -13.9671 -13.9639
   -13.9563 -13.9459 -13.9377 -13.9209 -12.9998 -12.7120  -8.8736  -8.8658
    -8.6362  -8.5794  -8.5720  -8.4350  -8.3053  -8.1685  -8.1110  -8.1025
    -8.0302  -8.0219  -8.0210  -8.0135  -7.9793  -7.9477  -7.8361  -7.7203
    -7.6451  -7.6215  -7.6139  -7.4396  -7.3713  -7.2158  -4.2766  -4.2377
    -3.8359  -3.7701  -3.4357  -3.4236  -3.2336  -3.1726  -3.1174  -3.1096
    -3.0509  -3.0468  -3.0400  -2.9556  -2.6685  -2.6631  -2.5401  -2.5161
    -2.4970  -2.4812  -2.2525  -2.2490  -2.1504  -2.1471  -1.9920  -1.9531
    -1.9456  -1.9160  -1.8189  -1.7711  -1.6208  -1.6207  -1.5985  -1.3757
    -1.3566  -1.3403  -1.3397  -1.3295  -1.2486  -1.2186  -1.2078  -1.1624
    -1.0921  -1.0900  -1.0768  -1.0687  -1.0646  -1.0598  -0.9387  -0.9189
    -0.8899  -0.8718  -0.8662  -0.8555  -0.8484  -0.8463  -0.8185  -0.8143
    -0.7344  -0.7134  -0.7074  -0.6698  -0.5862  -0.5445  -0.5014  -0.1989
    -0.1931  -0.1859  -0.1546  -0.1188  -0.1175  -0.0949  -0.0787  -0.0428
     0.1570   0.1933   0.2027   0.2490   0.2572   0.2655   0.2709   0.3311
     0.4597   0.5409   0.5741   0.5780   0.8416   0.8559   0.8691   0.9780
     0.9799   1.0339   1.0660   1.0784   1.1584   1.1596   1.1858   1.2094
     1.2181   1.2910   1.3284   1.3442   1.3477   1.3513   1.3602   1.3680
     1.3729   1.4097   1.4122   1.4634   1.5816   1.5933   1.6165   1.6462
     1.6924   1.7153   1.7163   1.7298   1.7808   1.8127   1.8545   1.8753
     1.8803   1.8819   1.9110   1.9154   1.9196   1.9337   1.9489   1.9627
     1.9914   2.0083   2.0919   2.1029   2.1508   2.1661   2.1899   2.1963
     2.2047   2.2090   2.3080   2.3577   2.4283   2.4347   2.4501   2.4539
     2.6128   2.6192   2.6410   2.6531   2.6830   2.6888   2.8039   2.8485
     3.1622   3.2889   4.6121   4.6343   4.6929   4.7050   5.7455   5.8264
     5.8321   6.5526   6.6341   7.7321   7.8040   7.8113   8.0451   8.1751
     8.2631   8.3334   8.3586   8.3800   8.5079   8.6625   8.7923   8.7949
     8.8771   8.9272   8.9480   8.9679   9.1080   9.1173   9.2088   9.2172
     9.2280   9.2594   9.3298   9.3571   9.3830   9.5729   9.5783   9.7158
     9.7582   9.8297

          k = 0.1250 0.0000 0.0000 ( 70027 PWs)   bands (ev):

   -38.1472 -38.1033 -35.7784 -35.7254 -22.9021 -22.8942 -22.7830 -22.7752
   -22.7170 -22.6933 -22.5338 -22.3074 -18.6200 -18.5823 -18.5166 -18.4734
   -18.1508 -18.1066 -17.1278 -17.0763 -17.0034 -16.9540 -16.8091 -16.7538
   -15.4991 -15.4681 -15.0608 -15.0478 -14.8217 -14.7408 -14.6890 -14.6571
   -14.6548 -14.6258 -14.6014 -14.5531 -14.5431 -14.4729 -14.3648 -14.3559
   -14.2050 -14.1770 -14.1019 -14.0833 -14.0776 -14.0743 -14.0696 -14.0610
   -14.0182 -13.9560 -13.8313 -13.7560 -13.0300 -12.6182  -8.1474  -8.1395
    -8.0408  -8.0325  -8.0159  -7.9465  -7.9419  -7.9345  -7.8224  -7.8094
    -7.8017  -7.7277  -7.7204  -7.6854  -7.6282  -7.5890  -7.5814  -7.5784
    -7.5727  -7.5233  -7.4736  -7.3569  -7.1680  -7.0593  -3.0458  -3.0304
    -2.9155  -2.8413  -2.2569  -2.2519  -2.1915  -2.1874  -2.1534  -2.1288
    -2.0352  -1.9883  -1.9592  -1.9358  -1.9317  -1.8884  -1.8498  -1.8275
    -1.7978  -1.7720  -1.7525  -1.7473  -1.6244  -1.5826  -1.4940  -1.4707
    -1.2228  -1.1919  -1.1573  -1.1347  -1.1197  -1.0498  -1.0384  -1.0055
    -1.0043  -0.9987  -0.9978  -0.9918  -0.9722  -0.9401  -0.8499  -0.7856
    -0.7612  -0.7561  -0.4976  -0.4734  -0.4288  -0.4146  -0.3870  -0.3553
    -0.3358  -0.3122  -0.2959  -0.2895  -0.2720  -0.2701  -0.2648  -0.2422
    -0.2367  -0.2351  -0.2327  -0.2042  -0.1821  -0.1704  -0.0634  -0.0526
    -0.0416  -0.0361  -0.0257  -0.0177   0.0081   0.0244   0.0301   0.0889
     0.1298   0.1357   0.1377   0.1418   0.1893   0.1949   0.2258   0.2310
     0.2316   0.2820   0.2987   0.3277   0.3406   0.3539   0.3980   0.4382
     0.4743   0.4920   0.4942   0.5152   0.5321   0.5395   0.5459   0.6001
     0.6861   0.7035   0.7691   0.8536   0.8670   0.8856   0.9084   0.9275
     0.9880   1.0021   1.0350   1.0504   1.0909   1.1195   1.1312   1.1443
     1.1561   1.1854   1.2072   1.2335   1.2364   1.2486   1.3265   1.3596
     1.3744   1.4001   1.4245   1.4335   1.4468   1.4544   1.5257   1.5589
     1.6444   1.6807   1.6948   1.7050   1.7343   1.7632   1.7879   1.7905
     1.7924   1.8114   1.8661   1.8834   1.8883   2.0125   2.0216   2.1358
     2.1929   2.1951   2.3442   2.3552   2.3744   2.3985   2.4491   2.4788
     2.5575   2.5808   2.6076   2.6198   2.8301   2.8618   5.1928   5.2511
     5.3303   5.9472   6.0595   6.6276   6.6562   6.7101   6.8789   6.8830
     6.9265   7.0507   7.4903   7.5396   7.7075   7.7153   7.8231   7.9461
     8.0040   8.0774   8.1183   8.1189   8.2738   8.4249   8.4674   8.5726
     8.6245   8.6564   8.7508   8.8263   8.9631   9.0525   9.1450   9.2006
     9.3532   9.3962

          k = 0.1250 0.2618 0.0000 ( 69979 PWs)   bands (ev):

   -38.1445 -38.1006 -35.7767 -35.7237 -22.8777 -22.8698 -22.7636 -22.7559
   -22.6977 -22.6697 -22.5146 -22.2868 -18.5814 -18.5435 -18.5094 -18.4662
   -18.2615 -18.2177 -17.0983 -17.0468 -16.9985 -16.9491 -16.8749 -16.8198
   -15.3938 -15.3630 -15.0068 -14.9938 -14.7723 -14.7036 -14.6771 -14.6447
   -14.6103 -14.5524 -14.5397 -14.5311 -14.5277 -14.4401 -14.3266 -14.3152
   -14.2010 -14.1747 -14.1635 -14.1322 -14.0841 -14.0646 -14.0632 -14.0548
   -14.0505 -13.9910 -13.8287 -13.7917 -12.9891 -12.6754  -8.1403  -8.1321
    -8.0555  -8.0476  -8.0079  -7.9681  -7.9605  -7.9572  -7.8954  -7.8879
    -7.8138  -7.7971  -7.7898  -7.7403  -7.7328  -7.7233  -7.6779  -7.6476
    -7.6255  -7.5610  -7.5432  -7.5254  -7.2338  -7.1695  -3.1510  -3.1259
    -2.9696  -2.8950  -2.3935  -2.3831  -2.3285  -2.2736  -2.2658  -2.2597
    -2.1589  -2.1523  -2.1158  -2.0851  -2.0218  -1.9804  -1.8828  -1.8415
    -1.8255  -1.7985  -1.7894  -1.7772  -1.7171  -1.6798  -1.5569  -1.5276
    -1.5195  -1.5080  -1.4489  -1.4417  -1.4238  -1.4160  -1.4081  -1.3908
    -1.3360  -1.2704  -1.0656  -0.9447  -0.9131  -0.8789  -0.7913  -0.7755
    -0.7131  -0.6924  -0.6673  -0.6564  -0.6160  -0.6063  -0.4745  -0.4604
    -0.4067  -0.3961  -0.3910  -0.3723  -0.3647  -0.3414  -0.3084  -0.2523
    -0.2074  -0.1923  -0.1674  -0.1621  -0.1536  -0.0858  -0.0759  -0.0438
    -0.0370  -0.0272  -0.0198   0.0434   0.0461   0.1156   0.1278   0.1293
     0.1386   0.1424   0.1759   0.1989   0.2322   0.2595   0.2631   0.2667
     0.2701   0.2958   0.3188   0.3473   0.3540   0.3612   0.3725   0.3891
     0.4259   0.4372   0.4429   0.4545   0.6104   0.6159   0.6259   0.7162
     0.7394   0.7556   0.8184   0.8333   0.9012   0.9179   0.9642   1.0043
     1.0569   1.0672   1.0870   1.1266   1.1621   1.1841   1.1947   1.2060
     1.2134   1.2431   1.2649   1.2700   1.3176   1.3497   1.3710   1.3732
     1.3770   1.3800   1.4726   1.4885   1.4971   1.5565   1.5730   1.5972
     1.6570   1.6820   1.6977   1.7119   1.7394   1.7500   1.7584   1.7676
     1.7742   1.8205   1.8295   1.9099   1.9455   2.0815   2.1108   2.1251
     2.1973   2.3960   2.5456   2.5925   2.7513   2.7693   2.7762   2.8511
     2.8535   2.8667   2.9161   2.9309   3.1134   3.1366   5.5138   5.6178
     5.6304   6.2090   6.2859   6.7823   6.9119   6.9180   6.9678   6.9770
     7.2081   7.3398   7.5611   7.6035   7.7033   7.7342   7.8524   7.8635
     8.0028   8.1784   8.2158   8.3121   8.4352   8.6020   8.6450   8.7430
     8.8013   8.8789   8.9020   8.9951   9.1190   9.1557   9.2098   9.2644
     9.2820   9.3314

          k = 0.1250 0.5236 0.0000 ( 69940 PWs)   bands (ev):

   -38.1380 -38.0941 -35.7726 -35.7196 -22.8177 -22.8098 -22.7162 -22.7084
   -22.6505 -22.6118 -22.4674 -22.2360 -18.5019 -18.4920 -18.4815 -18.4588
   -18.4487 -18.4434 -17.0293 -17.0134 -16.9867 -16.9745 -16.9618 -16.9371
   -15.1549 -15.1259 -14.8650 -14.8517 -14.7214 -14.6937 -14.6546 -14.6129
   -14.5458 -14.5183 -14.4765 -14.3792 -14.3594 -14.3578 -14.3122 -14.2787
   -14.2312 -14.2046 -14.1891 -14.1751 -14.1375 -14.0622 -14.0462 -14.0358
   -14.0111 -14.0033 -13.8840 -13.8146 -12.8854 -12.8104  -8.3590  -8.3514
    -8.1264  -8.1202  -8.1129  -8.0890  -8.0809  -8.0369  -8.0291  -7.9928
    -7.9914  -7.9850  -7.9515  -7.9381  -7.8698  -7.7843  -7.7624  -7.7530
    -7.7431  -7.7357  -7.6140  -7.4965  -7.3920  -7.2508  -3.5530  -3.5134
    -3.2083  -3.1364  -2.8867  -2.8691  -2.7211  -2.6691  -2.4930  -2.4844
    -2.3901  -2.3556  -2.3092  -2.3041  -2.2838  -2.2668  -2.2614  -2.1762
    -2.1243  -2.1187  -2.1123  -2.1067  -1.9898  -1.9596  -1.8945  -1.8533
    -1.8249  -1.7934  -1.7305  -1.7092  -1.7054  -1.6722  -1.6514  -1.6158
    -1.2870  -1.2512  -1.1625  -1.0427  -1.0392  -1.0040  -0.9460  -0.9202
    -0.8911  -0.8669  -0.8307  -0.8013  -0.7514  -0.7425  -0.7106  -0.6702
    -0.6601  -0.6330  -0.5952  -0.5669  -0.5418  -0.5338  -0.5106  -0.4671
    -0.4598  -0.4177  -0.3831  -0.3640  -0.3479  -0.3126  -0.2986  -0.2928
    -0.2218  -0.1990  -0.1600  -0.1285   0.0440   0.0653   0.1009   0.1189
     0.1330   0.1542   0.2051   0.2176   0.2594   0.2679   0.2895   0.2969
     0.3683   0.3909   0.4074   0.4732   0.5908   0.6064   0.6234   0.6511
     0.7249   0.7722   0.8084   0.8210   0.8527   0.9654   0.9973   1.0286
     1.0399   1.0588   1.0668   1.0866   1.1240   1.1329   1.1710   1.1802
     1.2090   1.2365   1.2657   1.2927   1.3060   1.3258   1.3332   1.3490
     1.3841   1.3873   1.4061   1.4282   1.4505   1.4726   1.5090   1.5425
     1.5464   1.5906   1.6063   1.6102   1.6553   1.6816   1.7044   1.7141
     1.7432   1.7682   1.7803   1.7843   1.7975   1.8057   1.8269   1.8941
     1.9134   1.9553   2.0043   2.0354   2.0440   2.1358   2.1850   2.2637
     2.2715   2.3705   2.4827   2.6969   3.0335   3.0612   3.0622   3.0991
     3.2133   3.2284   3.7461   3.7593   3.8422   3.8664   5.9121   6.4933
     6.4991   6.6031   6.6103   6.8871   6.9461   6.9555   7.0601   7.1090
     7.8233   7.8322   8.0170   8.1442   8.1907   8.2322   8.2895   8.3767
     8.3879   8.5035   8.5501   8.6727   8.6898   8.7100   8.7224   8.9145
     8.9857   9.0022   9.0895   9.1640   9.2858   9.3107   9.3478   9.3754
     9.3974   9.4832

          k = 0.1250 0.7854 0.0000 ( 69958 PWs)   bands (ev):

   -38.1315 -38.0876 -35.7685 -35.7155 -22.7560 -22.7480 -22.6676 -22.6599
   -22.6023 -22.5523 -22.4191 -22.1838 -18.7103 -18.6677 -18.4746 -18.4313
   -18.3763 -18.3377 -17.1497 -17.0945 -16.9756 -16.9413 -16.9260 -16.8902
   -14.9352 -14.9199 -14.8200 -14.7799 -14.6959 -14.6806 -14.6196 -14.5815
   -14.5519 -14.5333 -14.4362 -14.3488 -14.3286 -14.2946 -14.2315 -14.2146
   -14.2054 -14.1940 -14.1355 -14.1322 -14.0988 -14.0510 -13.9936 -13.9849
   -13.9644 -13.9563 -13.9422 -13.8567 -12.9392 -12.7735  -8.7105  -8.7029
    -8.4709  -8.4186  -8.4111  -8.2854  -8.1618  -8.1044  -8.0962  -8.0408
    -8.0369  -8.0332  -8.0287  -8.0139  -7.9727  -7.9529  -7.8452  -7.7308
    -7.6891  -7.6815  -7.6359  -7.4624  -7.4387  -7.2546  -4.0376  -3.9983
    -3.6147  -3.5478  -3.2959  -3.2812  -3.0917  -3.0345  -2.8803  -2.8736
    -2.8387  -2.8192  -2.8124  -2.7414  -2.6262  -2.6206  -2.5072  -2.4656
    -2.3614  -2.3278  -2.2320  -2.2280  -2.1622  -2.1587  -1.9223  -1.8766
    -1.8335  -1.8212  -1.8011  -1.7972  -1.7348  -1.7034  -1.6182  -1.5881
    -1.4618  -1.2799  -1.2569  -1.2479  -1.1724  -1.1263  -1.1032  -1.0772
    -1.0661  -1.0639  -1.0270  -1.0174  -1.0093  -0.9908  -0.8689  -0.8437
    -0.8382  -0.8021  -0.7908  -0.7661  -0.7562  -0.7445  -0.7361  -0.7200
    -0.6331  -0.6252  -0.6209  -0.5767  -0.5526  -0.5308  -0.4756  -0.2458
    -0.2420  -0.1927  -0.1868  -0.1515  -0.0123   0.0306   0.0543   0.1316
     0.1496   0.1529   0.2052   0.2190   0.2477   0.2822   0.3050   0.3098
     0.4178   0.5274   0.5498   0.5589   0.7472   0.8049   0.8346   0.8618
     0.9495   0.9744   1.0189   1.0523   1.0659   1.0731   1.1760   1.1932
     1.2232   1.2314   1.2412   1.2518   1.2701   1.2871   1.3030   1.3578
     1.3670   1.3741   1.4169   1.4344   1.5091   1.5178   1.5397   1.5576
     1.5934   1.6359   1.6518   1.6711   1.6782   1.6940   1.7322   1.7325
     1.7411   1.7763   1.7926   1.8022   1.8225   1.8332   1.8432   1.8700
     1.8935   1.9169   1.9454   1.9731   2.0090   2.0239   2.0883   2.1000
     2.1325   2.2216   2.2345   2.2406   2.3017   2.3215   2.3581   2.3948
     2.4413   2.4475   2.5846   2.6162   2.8809   2.9150   2.9786   3.0197
     3.2409   3.3211   4.3505   4.3691   4.4159   4.4318   5.8884   6.1211
     6.1267   6.7033   6.7715   7.3172   7.3721   7.3906   7.7435   7.7953
     8.2511   8.3139   8.3359   8.4427   8.5338   8.5677   8.5840   8.7366
     8.7711   8.8369   8.8843   8.9704   9.0273   9.0385   9.0644   9.1618
     9.2146   9.2641   9.3247   9.3536   9.3961   9.4497   9.5031   9.5444
     9.5945   9.6347

          k = 0.1250-1.0472 0.0000 ( 70006 PWs)   bands (ev):

   -38.1287 -38.0849 -35.7668 -35.7138 -22.7298 -22.7219 -22.6471 -22.6394
   -22.5821 -22.5272 -22.3987 -22.1617 -18.7908 -18.7483 -18.4674 -18.4241
   -18.3292 -18.2904 -17.2001 -17.1449 -16.9710 -16.9214 -16.9056 -16.8544
   -14.9435 -14.9268 -14.7468 -14.7208 -14.6923 -14.6449 -14.5919 -14.5684
   -14.5467 -14.5319 -14.4801 -14.3598 -14.3116 -14.2496 -14.2169 -14.2014
   -14.1664 -14.1528 -14.1270 -14.0934 -14.0346 -14.0015 -13.9671 -13.9637
   -13.9558 -13.9469 -13.9386 -13.9210 -12.9900 -12.7243  -8.8433  -8.8356
    -8.6074  -8.5489  -8.5415  -8.4073  -8.2767  -8.1408  -8.1072  -8.0987
    -8.0560  -8.0485  -8.0330  -8.0248  -7.9778  -7.9477  -7.8682  -7.7207
    -7.6653  -7.6579  -7.6450  -7.4687  -7.4120  -7.2542  -4.2385  -4.2001
    -3.8014  -3.7358  -3.4528  -3.4396  -3.2442  -3.1826  -3.1149  -3.1074
    -3.0495  -3.0486  -3.0427  -2.9579  -2.6518  -2.6462  -2.5245  -2.4894
    -2.4800  -2.4552  -2.2549  -2.2513  -2.1514  -2.1480  -1.9846  -1.9405
    -1.9114  -1.8808  -1.8295  -1.7727  -1.6852  -1.6233  -1.5348  -1.4768
    -1.4494  -1.4153  -1.3890  -1.3218  -1.3141  -1.2475  -1.1910  -1.1688
    -1.1564  -1.1543  -1.0926  -1.0817  -1.0724  -1.0491  -0.9452  -0.9389
    -0.8888  -0.8677  -0.8664  -0.8576  -0.8450  -0.8361  -0.8255  -0.7910
    -0.7292  -0.7170  -0.7124  -0.6399  -0.5919  -0.5167  -0.4775  -0.2124
    -0.2096  -0.1860  -0.1533  -0.1180  -0.0457  -0.0268   0.0040   0.0092
     0.1418   0.1542   0.1736   0.2454   0.2526   0.2850   0.2868   0.3025
     0.4515   0.5635   0.5912   0.6281   0.8071   0.8837   0.8969   0.9345
     0.9792   1.0237   1.0601   1.0906   1.1210   1.1663   1.1976   1.2046
     1.2217   1.2791   1.3005   1.3248   1.3592   1.3633   1.3722   1.3722
     1.3753   1.4072   1.4509   1.4553   1.4935   1.5584   1.5971   1.6281
     1.6764   1.6966   1.7877   1.8024   1.8084   1.8196   1.8702   1.9017
     1.9100   1.9125   1.9205   1.9292   1.9402   1.9458   1.9807   1.9868
     1.9994   2.0576   2.0914   2.1311   2.1496   2.1758   2.1866   2.1951
     2.2057   2.2301   2.3035   2.3978   2.4347   2.4380   2.4415   2.4590
     2.6055   2.6084   2.6119   2.6459   2.6468   2.6921   2.8105   2.8608
     3.1618   3.2935   4.5339   4.5559   4.6177   4.6307   5.7972   5.8944
     5.9002   6.5843   6.6652   7.6789   7.7111   7.7198   8.0613   8.1555
     8.1837   8.2021   8.2321   8.3412   8.5711   8.7090   8.8463   8.9001
     8.9520   9.0020   9.0140   9.0683   9.0949   9.1473   9.2249   9.2447
     9.2618   9.3195   9.3315   9.3912   9.4127   9.5819   9.6042   9.7082
     9.7619   9.8378

          k = 0.2500 0.0000 0.0000 ( 69961 PWs)   bands (ev):

   -38.1472 -38.1033 -35.7784 -35.7254 -22.8895 -22.8816 -22.7963 -22.7886
   -22.7149 -22.6852 -22.5426 -22.3100 -18.6183 -18.5805 -18.5087 -18.4655
   -18.1507 -18.1065 -17.1349 -17.0836 -17.0317 -16.9828 -16.8091 -16.7538
   -15.4250 -15.3941 -15.0228 -15.0116 -14.8184 -14.7319 -14.7297 -14.7142
   -14.6865 -14.6527 -14.6195 -14.5752 -14.5621 -14.4928 -14.3326 -14.3146
   -14.1863 -14.1618 -14.1062 -14.0873 -14.0827 -14.0785 -14.0748 -14.0646
   -14.0307 -13.9647 -13.8409 -13.7584 -12.9854 -12.6694  -8.1522  -8.1442
    -8.0483  -8.0398  -8.0167  -7.9567  -7.9089  -7.9014  -7.8426  -7.7857
    -7.7781  -7.7468  -7.7394  -7.6512  -7.6430  -7.6153  -7.6076  -7.5517
    -7.5513  -7.5248  -7.4667  -7.3801  -7.1778  -7.0678  -2.9450  -2.9294
    -2.8207  -2.7457  -2.2773  -2.2694  -2.2283  -2.2236  -2.1437  -2.1271
    -2.1197  -2.0539  -2.0182  -1.9857  -1.9531  -1.9259  -1.8605  -1.8308
    -1.8170  -1.7897  -1.7805  -1.7579  -1.5815  -1.5624  -1.5375  -1.5363
    -1.1773  -1.1560  -1.1224  -1.0702  -1.0670  -1.0439  -1.0263  -1.0029
    -0.9991  -0.9960  -0.9922  -0.9687  -0.9035  -0.8694  -0.8061  -0.7290
    -0.7023  -0.6973  -0.5439  -0.4987  -0.4589  -0.4416  -0.3879  -0.3832
    -0.3751  -0.3602  -0.3484  -0.3342  -0.3154  -0.3094  -0.2997  -0.2949
    -0.2885  -0.2879  -0.2506  -0.2226  -0.2141  -0.1710  -0.0942  -0.0724
    -0.0542  -0.0474  -0.0371  -0.0260  -0.0188  -0.0060   0.0097   0.1006
     0.1621   0.1918   0.1972   0.1986   0.2111   0.2169   0.2273   0.2363
     0.2433   0.2891   0.3407   0.3529   0.3687   0.3952   0.4221   0.4405
     0.4754   0.4798   0.4844   0.5155   0.5374   0.5493   0.5759   0.6186
     0.6479   0.6583   0.7672   0.8172   0.8336   0.8484   0.8885   0.9400
     0.9550   0.9770   0.9892   0.9960   1.0175   1.0516   1.0728   1.0860
     1.1805   1.1907   1.2132   1.2444   1.2580   1.2800   1.3296   1.3513
     1.3883   1.4094   1.4196   1.4962   1.5082   1.5093   1.5125   1.5366
     1.6194   1.6602   1.6968   1.7113   1.7438   1.7585   1.7836   1.7867
     1.7874   1.8211   1.9506   1.9768   1.9891   1.9922   2.0246   2.0962
     2.1676   2.1743   2.2506   2.3666   2.3853   2.4055   2.4202   2.4836
     2.5795   2.6017   2.6106   2.6223   2.8083   2.8415   5.3471   5.3874
     5.4390   6.0919   6.1737   6.4906   6.4974   6.5213   6.8132   6.8264
     7.0392   7.1827   7.3681   7.4244   7.9038   7.9452   7.9654   8.0070
     8.0803   8.1218   8.1607   8.2137   8.3402   8.3691   8.4142   8.5468
     8.6689   8.7358   8.7759   8.8341   8.8810   9.0065   9.1320   9.2752
     9.3625   9.3974

          k = 0.2500 0.2618 0.0000 ( 69968 PWs)   bands (ev):

   -38.1445 -38.1006 -35.7767 -35.7237 -22.8657 -22.8578 -22.7763 -22.7686
   -22.6957 -22.6621 -22.5229 -22.2892 -18.5797 -18.5419 -18.5016 -18.4583
   -18.2615 -18.2177 -17.1051 -17.0537 -17.0255 -16.9765 -16.8747 -16.8196
   -15.3213 -15.2906 -14.9734 -14.9623 -14.7644 -14.7008 -14.6875 -14.6718
   -14.6452 -14.6168 -14.5704 -14.5557 -14.5444 -14.4572 -14.2941 -14.2738
   -14.1877 -14.1649 -14.1637 -14.1385 -14.0918 -14.0692 -14.0656 -14.0596
   -14.0543 -13.9960 -13.8445 -13.7838 -12.9540 -12.7130  -8.1467  -8.1384
    -8.0755  -8.0676  -8.0217  -8.0156  -8.0064  -7.9675  -7.9407  -7.9333
    -7.8483  -7.7524  -7.7240  -7.7175  -7.7165  -7.6810  -7.6803  -7.6731
    -7.6428  -7.5727  -7.4834  -7.4676  -7.1997  -7.1385  -3.0471  -3.0215
    -2.8680  -2.7934  -2.4301  -2.4170  -2.3436  -2.2831  -2.2452  -2.2384
    -2.1862  -2.1757  -2.1234  -2.0947  -2.0712  -2.0303  -1.9712  -1.9249
    -1.9237  -1.8818  -1.8088  -1.7858  -1.7145  -1.6692  -1.5342  -1.5225
    -1.4997  -1.4815  -1.4434  -1.4351  -1.4260  -1.4189  -1.3265  -1.3085
    -1.2610  -1.1971  -1.0469  -0.9486  -0.9373  -0.8951  -0.8162  -0.7788
    -0.7508  -0.7185  -0.6918  -0.6711  -0.6344  -0.6232  -0.5957  -0.5813
    -0.5133  -0.4894  -0.3976  -0.3799  -0.3500  -0.3287  -0.3180  -0.2567
    -0.1904  -0.1799  -0.1474  -0.1338  -0.1165  -0.0927  -0.0780  -0.0463
    -0.0434  -0.0364  -0.0145  -0.0061   0.0073   0.0924   0.1176   0.1216
     0.1321   0.1347   0.1477   0.2154   0.2523   0.2662   0.2831   0.2975
     0.3034   0.3136   0.3299   0.3480   0.3543   0.3686   0.3778   0.4024
     0.4394   0.4592   0.4772   0.5104   0.5657   0.5742   0.6657   0.6989
     0.7265   0.7677   0.8402   0.8595   0.8878   0.8982   0.9993   1.0392
     1.0656   1.0873   1.0976   1.1080   1.1267   1.1325   1.1551   1.1823
     1.1874   1.2117   1.2253   1.2507   1.2907   1.3000   1.3322   1.3549
     1.4075   1.4127   1.4500   1.4856   1.4895   1.5844   1.6127   1.6328
     1.6387   1.6466   1.6544   1.6597   1.6952   1.7079   1.7289   1.7293
     1.7588   1.8183   1.8251   1.9425   2.0283   2.1306   2.2670   2.3208
     2.3955   2.4852   2.5511   2.6297   2.7340   2.7634   2.7824   2.8491
     2.8584   2.8724   2.9085   2.9235   3.0830   3.1061   5.6080   5.7235
     5.7309   6.3222   6.3852   6.6216   6.6332   6.6456   7.1259   7.1374
     7.3378   7.4246   7.4575   7.5235   7.7967   7.8332   8.0453   8.0520
     8.1540   8.2243   8.2459   8.3739   8.4949   8.5347   8.5733   8.7343
     8.7774   8.8130   8.9185   8.9810   9.0110   9.1129   9.1480   9.1861
     9.2108   9.2530

          k = 0.2500 0.5236 0.0000 ( 69928 PWs)   bands (ev):

   -38.1380 -38.0941 -35.7726 -35.7196 -22.8072 -22.7993 -22.7272 -22.7195
   -22.6489 -22.6053 -22.4744 -22.2379 -18.5018 -18.4844 -18.4801 -18.4587
   -18.4420 -18.4411 -17.0335 -17.0162 -17.0099 -16.9797 -16.9651 -16.9593
   -15.0877 -15.0593 -14.8469 -14.8359 -14.7168 -14.6890 -14.6467 -14.5967
   -14.5470 -14.5191 -14.5093 -14.4528 -14.4067 -14.3806 -14.3208 -14.2894
   -14.2075 -14.2039 -14.1873 -14.1769 -14.1273 -14.0530 -14.0424 -14.0304
   -14.0153 -14.0075 -13.8842 -13.8162 -12.8757 -12.8180  -8.3944  -8.3868
    -8.1547  -8.1413  -8.1337  -8.1048  -8.0964  -8.0419  -8.0338  -7.9987
    -7.9701  -7.9606  -7.9529  -7.9420  -7.8935  -7.7825  -7.7695  -7.7456
    -7.6960  -7.6886  -7.6197  -7.4610  -7.3884  -7.2078  -3.4522  -3.4132
    -3.1054  -3.0345  -2.9230  -2.9009  -2.7316  -2.6787  -2.4750  -2.4669
    -2.3808  -2.3443  -2.3142  -2.3090  -2.2757  -2.2644  -2.2592  -2.1831
    -2.1321  -2.1258  -2.1091  -2.1036  -1.9964  -1.9500  -1.9282  -1.8926
    -1.8823  -1.8585  -1.8142  -1.7523  -1.6549  -1.6255  -1.6176  -1.5924
    -1.3201  -1.2854  -1.1851  -1.0876  -1.0732  -1.0316  -0.9840  -0.9602
    -0.9548  -0.9328  -0.9183  -0.8745  -0.8654  -0.8446  -0.7632  -0.7338
    -0.6573  -0.6272  -0.5779  -0.5559  -0.5280  -0.5166  -0.5047  -0.4773
    -0.4490  -0.4299  -0.3982  -0.3440  -0.3282  -0.3125  -0.2896  -0.2724
    -0.2224  -0.1917  -0.1559  -0.1370  -0.0250  -0.0199   0.0984   0.1096
     0.1358   0.1834   0.2100   0.2411   0.2553   0.2967   0.3529   0.3570
     0.4240   0.4388   0.4791   0.4898   0.5545   0.5807   0.6991   0.7181
     0.7409   0.7692   0.8355   0.8499   0.8861   0.9275   0.9697   1.0163
     1.0336   1.0496   1.0536   1.0722   1.0941   1.0991   1.1174   1.1323
     1.1954   1.2089   1.2216   1.2277   1.2533   1.3470   1.3555   1.3703
     1.4039   1.4178   1.4472   1.4505   1.4531   1.4889   1.5035   1.5325
     1.5392   1.5679   1.5967   1.6184   1.6255   1.6361   1.6607   1.6989
     1.7021   1.7138   1.7385   1.7635   1.8063   1.8231   1.8246   1.8433
     1.8846   1.9196   2.0106   2.0157   2.1714   2.3782   2.4041   2.4793
     2.5056   2.5303   2.6614   2.8039   3.0355   3.0630   3.0648   3.1065
     3.2071   3.2358   3.6439   3.6580   3.7526   3.7778   5.9545   6.5337
     6.5396   6.6202   6.6280   6.9074   6.9796   7.0096   7.1166   7.1696
     7.9600   7.9670   8.0793   8.1081   8.1660   8.2869   8.3217   8.3556
     8.3709   8.3807   8.4137   8.6813   8.6996   8.7534   8.7905   8.9254
     8.9748   9.0069   9.0951   9.1790   9.2441   9.2759   9.2994   9.3346
     9.4203   9.4717

          k = 0.2500 0.7854 0.0000 ( 69960 PWs)   bands (ev):

   -38.1314 -38.0876 -35.7685 -35.7155 -22.7471 -22.7391 -22.6768 -22.6691
   -22.6011 -22.5471 -22.4247 -22.1852 -18.7102 -18.6676 -18.4672 -18.4239
   -18.3750 -18.3364 -17.1497 -17.0945 -16.9980 -16.9487 -16.9465 -16.8954
   -14.8920 -14.8793 -14.7743 -14.7296 -14.7030 -14.6911 -14.6007 -14.5689
   -14.5504 -14.5262 -14.4408 -14.3497 -14.3426 -14.3194 -14.2843 -14.2602
   -14.2376 -14.2221 -14.1272 -14.1229 -14.0920 -14.0462 -13.9903 -13.9816
   -13.9671 -13.9587 -13.9364 -13.8623 -12.9206 -12.7938  -8.6706  -8.6630
    -8.4293  -8.3094  -8.3019  -8.2527  -8.1677  -8.1601  -8.0889  -8.0806
    -8.0647  -8.0433  -8.0353  -7.9711  -7.9540  -7.9467  -7.9408  -7.7452
    -7.7377  -7.7341  -7.6365  -7.5483  -7.4976  -7.2914  -3.9344  -3.8966
    -3.5198  -3.4544  -3.3452  -3.3268  -3.1189  -3.0602  -2.8731  -2.8664
    -2.8308  -2.8263  -2.8196  -2.7479  -2.5823  -2.5762  -2.4665  -2.4205
    -2.2756  -2.2499  -2.2411  -2.2312  -2.1578  -2.1540  -1.9326  -1.8927
    -1.8818  -1.8333  -1.8111  -1.7930  -1.7778  -1.7445  -1.7179  -1.6912
    -1.4190  -1.4122  -1.3979  -1.2797  -1.2625  -1.2570  -1.2229  -1.1542
    -1.1203  -1.1034  -1.0862  -1.0656  -1.0026  -0.9903  -0.8635  -0.8018
    -0.7945  -0.7905  -0.7833  -0.7808  -0.7415  -0.7346  -0.7199  -0.6962
    -0.6400  -0.6303  -0.6005  -0.5574  -0.5041  -0.5005  -0.4731  -0.2808
    -0.2787  -0.2016  -0.1818  -0.1658  -0.0815  -0.0695   0.1185   0.1464
     0.1953   0.2050   0.2464   0.2958   0.3207   0.3487   0.3633   0.3899
     0.4137   0.5176   0.6516   0.6763   0.6797   0.7528   0.8518   0.9016
     0.9490   0.9543   0.9715   1.0516   1.1189   1.1303   1.1436   1.1550
     1.1841   1.1876   1.2265   1.2418   1.2884   1.2983   1.3148   1.3361
     1.3511   1.3614   1.4004   1.4117   1.4823   1.4953   1.5151   1.5162
     1.5574   1.6020   1.6172   1.6573   1.6881   1.6959   1.7311   1.7347
     1.7582   1.7666   1.7894   1.7989   1.8160   1.8376   1.8556   1.8650
     1.8752   1.8957   1.9166   1.9759   1.9999   2.0864   2.1059   2.1515
     2.2213   2.2593   2.2657   2.3663   2.4139   2.4171   2.4238   2.4682
     2.5091   2.5933   2.6575   2.7449   2.8877   2.9192   2.9986   3.0580
     3.2374   3.3301   4.1594   4.1781   4.2441   4.2617   5.9940   6.2769
     6.2832   6.7843   6.8520   7.2462   7.2625   7.3155   7.6916   7.7424
     8.1330   8.1864   8.2921   8.3871   8.5643   8.5742   8.5986   8.7167
     8.8050   8.8721   8.9177   8.9735   9.0689   9.1482   9.1715   9.2251
     9.2371   9.3116   9.3744   9.3994   9.4090   9.4782   9.5123   9.5753
     9.6956   9.7314

          k = 0.2500-1.0472 0.0000 ( 69940 PWs)   bands (ev):

   -38.1287 -38.0849 -35.7668 -35.7138 -22.7217 -22.7137 -22.6555 -22.6478
   -22.5810 -22.5225 -22.4037 -22.1630 -18.7907 -18.7482 -18.4601 -18.4167
   -18.3280 -18.2892 -17.2001 -17.1450 -16.9927 -16.9434 -16.9104 -16.8593
   -14.9115 -14.8945 -14.6889 -14.6815 -14.6581 -14.6556 -14.5909 -14.5644
   -14.5561 -14.5333 -14.4727 -14.3524 -14.2977 -14.2807 -14.2514 -14.2482
   -14.2162 -14.1675 -14.1355 -14.0820 -14.0277 -14.0198 -13.9675 -13.9624
   -13.9543 -13.9493 -13.9411 -13.9213 -12.9618 -12.7586  -8.7565  -8.7488
    -8.5254  -8.4602  -8.4527  -8.3325  -8.1943  -8.1542  -8.1467  -8.0968
    -8.0888  -8.0618  -8.0415  -8.0334  -7.9741  -7.9582  -7.9478  -7.7856
    -7.7780  -7.7217  -7.6453  -7.5471  -7.5230  -7.3585  -4.1326  -4.0959
    -3.7075  -3.6432  -3.5060  -3.4893  -3.2775  -3.2141  -3.1076  -3.1004
    -3.0572  -3.0504  -3.0423  -2.9640  -2.5991  -2.5929  -2.4730  -2.4236
    -2.4108  -2.3786  -2.2624  -2.2586  -2.1519  -2.1482  -1.9641  -1.9205
    -1.8776  -1.8181  -1.7998  -1.7773  -1.7276  -1.6973  -1.6857  -1.6716
    -1.6171  -1.5528  -1.4695  -1.4548  -1.4188  -1.3470  -1.3150  -1.2336
    -1.1636  -1.1422  -1.1297  -1.1242  -1.0190  -0.9956  -0.9241  -0.8860
    -0.8788  -0.8696  -0.8648  -0.8554  -0.8206  -0.8071  -0.8033  -0.7312
    -0.7305  -0.7213  -0.7021  -0.6026  -0.5704  -0.4944  -0.4740  -0.2560
    -0.2544  -0.2001  -0.1688  -0.1482  -0.1095  -0.0885   0.1253   0.1608
     0.1762   0.2079   0.2343   0.3078   0.3112   0.3232   0.3300   0.3575
     0.4301   0.5332   0.7196   0.7287   0.7646   0.8213   0.9610   0.9752
     0.9908   1.0222   1.0285   1.0819   1.1435   1.1847   1.2019   1.2118
     1.2211   1.2333   1.2469   1.3013   1.3099   1.3643   1.3698   1.3757
     1.3783   1.3802   1.4096   1.4354   1.5335   1.5654   1.5743   1.6190
     1.6212   1.6371   1.7404   1.7446   1.8028   1.8111   1.8337   1.8704
     1.8855   1.8885   1.8967   1.9061   1.9320   1.9488   2.0173   2.0614
     2.0903   2.1092   2.1571   2.1683   2.1770   2.1832   2.1924   2.2830
     2.3825   2.4037   2.4082   2.4544   2.4607   2.4637   2.4753   2.5440
     2.5582   2.5850   2.5914   2.5959   2.6629   2.7020   2.8659   2.9389
     3.1646   3.3049   4.3052   4.3268   4.4023   4.4174   5.9369   6.0867
     6.0930   6.6719   6.7513   7.4620   7.4687   7.5245   7.8793   7.9307
     8.1031   8.1796   8.2038   8.3111   8.6786   8.7201   8.9592   8.9854
     9.0957   9.1509   9.1729   9.1841   9.2112   9.2549   9.2665   9.3422
     9.3505   9.4042   9.4186   9.4860   9.5638   9.6007   9.6536   9.6816
     9.7104   9.8468

          k = 0.3750 0.0000 0.0000 ( 70026 PWs)   bands (ev):

   -38.1472 -38.1033 -35.7784 -35.7255 -22.8714 -22.8634 -22.8152 -22.8075
   -22.7127 -22.6759 -22.5526 -22.3127 -18.6165 -18.5788 -18.5007 -18.4574
   -18.1507 -18.1065 -17.1420 -17.0907 -17.0593 -17.0108 -16.8091 -16.7538
   -15.3293 -15.2993 -15.0030 -14.9886 -14.8523 -14.7944 -14.7541 -14.7255
   -14.6929 -14.6648 -14.6122 -14.5857 -14.5844 -14.5231 -14.3132 -14.2902
   -14.1682 -14.1473 -14.1090 -14.0945 -14.0865 -14.0824 -14.0812 -14.0690
   -14.0414 -13.9718 -13.8510 -13.7605 -12.9175 -12.7439  -8.1563  -8.1482
    -8.0539  -8.0454  -8.0171  -7.9665  -7.8687  -7.8613  -7.8574  -7.7756
    -7.7681  -7.7509  -7.7432  -7.6549  -7.6527  -7.6452  -7.6157  -7.5419
    -7.5225  -7.5179  -7.4595  -7.4115  -7.1885  -7.0765  -2.7892  -2.7741
    -2.6805  -2.6049  -2.4097  -2.3996  -2.2973  -2.2150  -2.2004  -2.1787
    -2.1331  -2.1098  -2.0906  -2.0831  -1.9451  -1.9185  -1.8518  -1.8375
    -1.8214  -1.8081  -1.7739  -1.7720  -1.6137  -1.5882  -1.5365  -1.4868
    -1.1602  -1.1277  -1.1193  -1.0828  -1.0151  -1.0006  -0.9970  -0.9939
    -0.9904  -0.9216  -0.9195  -0.9094  -0.8269  -0.8042  -0.7652  -0.7458
    -0.6663  -0.6163  -0.6113  -0.5463  -0.5177  -0.5028  -0.4734  -0.4470
    -0.4307  -0.4083  -0.3837  -0.3784  -0.3702  -0.3427  -0.3371  -0.3235
    -0.2987  -0.2787  -0.2150  -0.2072  -0.1940  -0.1832  -0.1435  -0.0941
    -0.0834  -0.0632  -0.0556  -0.0550  -0.0451  -0.0091   0.0211   0.1014
     0.1231   0.1986   0.2040   0.2105   0.2123   0.2177   0.2714   0.3116
     0.3142   0.3159   0.3658   0.3870   0.3956   0.4207   0.4397   0.4510
     0.4578   0.4901   0.4994   0.5124   0.5247   0.5554   0.6022   0.6327
     0.6715   0.6869   0.7581   0.7693   0.7857   0.8065   0.8363   0.8421
     0.8680   0.8845   0.9513   0.9839   0.9946   1.0403   1.1271   1.1561
     1.1787   1.2246   1.2454   1.3006   1.3034   1.3116   1.3235   1.3389
     1.4062   1.4219   1.4230   1.4567   1.4653   1.4926   1.5039   1.5160
     1.5176   1.6053   1.6333   1.6813   1.7299   1.8002   1.8142   1.8572
     1.8663   1.8707   1.9294   1.9398   2.0069   2.0399   2.0481   2.1250
     2.1409   2.1854   2.2310   2.3065   2.3707   2.3991   2.4644   2.5257
     2.5891   2.6169   2.6303   2.6453   2.7633   2.7988   5.5492   5.5904
     5.6028   6.1460   6.1520   6.2186   6.3322   6.4162   7.0531   7.0778
     7.1304   7.1763   7.2783   7.4452   7.7860   7.7952   8.0181   8.0529
     8.0831   8.0925   8.1246   8.3283   8.3529   8.4240   8.4647   8.5569
     8.6293   8.7463   8.8441   8.9908   9.0205   9.0372   9.1206   9.2237
     9.2314   9.3152

          k = 0.3750 0.2618 0.0000 ( 69986 PWs)   bands (ev):

   -38.1445 -38.1006 -35.7767 -35.7238 -22.8485 -22.8406 -22.7942 -22.7865
   -22.6937 -22.6534 -22.5322 -22.2916 -18.5781 -18.5402 -18.4936 -18.4503
   -18.2615 -18.2177 -17.1118 -17.0605 -17.0518 -17.0032 -16.8746 -16.8194
   -15.2261 -15.1965 -14.9515 -14.9396 -14.7941 -14.7329 -14.7324 -14.7006
   -14.6541 -14.6342 -14.5867 -14.5611 -14.5409 -14.4831 -14.2761 -14.2516
   -14.1816 -14.1639 -14.1554 -14.1452 -14.0983 -14.0730 -14.0663 -14.0645
   -14.0574 -13.9986 -13.8572 -13.7790 -12.9009 -12.7685  -8.1565  -8.1483
    -8.1007  -8.0929  -8.0485  -8.0412  -8.0073  -7.9783  -7.9641  -7.9568
    -7.8843  -7.7683  -7.7354  -7.7085  -7.6718  -7.6645  -7.6607  -7.6406
    -7.6331  -7.5807  -7.4426  -7.4236  -7.1694  -7.1109  -2.8881  -2.8622
    -2.7187  -2.6446  -2.5279  -2.5091  -2.4020  -2.3246  -2.2299  -2.2204
    -2.2126  -2.2011  -2.1499  -2.1165  -2.1106  -2.0884  -2.0771  -2.0580
    -1.9605  -1.9239  -1.8064  -1.7852  -1.7162  -1.6600  -1.5273  -1.5184
    -1.4771  -1.4468  -1.4388  -1.4305  -1.4263  -1.4235  -1.2140  -1.1897
    -1.1334  -1.0789  -1.0188  -0.9694  -0.9533  -0.9405  -0.8972  -0.8861
    -0.7844  -0.7603  -0.7571  -0.7233  -0.7119  -0.6933  -0.6362  -0.6301
    -0.5579  -0.5551  -0.4337  -0.3986  -0.3524  -0.3063  -0.2939  -0.2365
    -0.1914  -0.1755  -0.1675  -0.1374  -0.1243  -0.1114  -0.0901  -0.0536
    -0.0511  -0.0347  -0.0281   0.0158   0.0213   0.0821   0.1052   0.1063
     0.1224   0.1476   0.1666   0.2174   0.2436   0.2903   0.2970   0.3133
     0.3393   0.3406   0.3477   0.3554   0.3660   0.3798   0.3981   0.4214
     0.4383   0.4746   0.4881   0.5071   0.5516   0.6196   0.6691   0.6902
     0.7099   0.7817   0.8564   0.8731   0.8929   0.9138   0.9630   0.9916
     1.0052   1.0273   1.0793   1.0889   1.1347   1.1748   1.1991   1.2022
     1.2124   1.2175   1.2287   1.2341   1.2737   1.2835   1.3350   1.3534
     1.4247   1.4472   1.4584   1.4841   1.4867   1.5218   1.5426   1.5626
     1.5956   1.6029   1.6144   1.6197   1.6477   1.7175   1.7225   1.7449
     1.7572   1.7997   1.8361   1.8556   2.1420   2.2441   2.4472   2.4875
     2.5244   2.5539   2.6267   2.6991   2.7157   2.7393   2.7980   2.8459
     2.8677   2.8792   2.8939   2.9059   3.0178   3.0415   5.7180   5.8882
     5.8940   6.3512   6.3568   6.4313   6.5146   6.5719   7.2004   7.2480
     7.3829   7.3941   7.5748   7.7494   7.8609   7.9187   8.0162   8.0255
     8.1958   8.2333   8.2926   8.4355   8.4767   8.5623   8.5950   8.6533
     8.6995   8.7672   8.8290   9.0158   9.0543   9.0766   9.1189   9.1760
     9.1885   9.2242

          k = 0.3750 0.5236 0.0000 ( 69907 PWs)   bands (ev):

   -38.1380 -38.0941 -35.7726 -35.7196 -22.7925 -22.7844 -22.7425 -22.7348
   -22.6473 -22.5981 -22.4821 -22.2399 -18.5017 -18.4787 -18.4767 -18.4585
   -18.4406 -18.4333 -17.0388 -17.0346 -17.0160 -16.9874 -16.9842 -16.9627
   -14.9983 -14.9722 -14.8376 -14.8283 -14.7120 -14.6834 -14.6566 -14.5813
   -14.5567 -14.5481 -14.5388 -14.5218 -14.4098 -14.3897 -14.3275 -14.2995
   -14.2305 -14.2071 -14.1965 -14.1638 -14.1125 -14.0407 -14.0378 -14.0254
   -14.0206 -14.0126 -13.8848 -13.8174 -12.8616 -12.8299  -8.3926  -8.3850
    -8.2550  -8.2475  -8.1489  -8.1042  -8.0956  -8.0366  -8.0285  -8.0124
    -7.9964  -7.9717  -7.9328  -7.8496  -7.8445  -7.8416  -7.7675  -7.6989
    -7.6914  -7.6429  -7.6212  -7.4662  -7.3247  -7.2084  -3.3068  -3.2693
    -3.0071  -2.9811  -2.9579  -2.8865  -2.7611  -2.7043  -2.4409  -2.4338
    -2.3531  -2.3303  -2.3272  -2.3079  -2.2678  -2.2574  -2.2519  -2.1915
    -2.1707  -2.1624  -2.1371  -2.1032  -2.0986  -2.0660  -2.0488  -2.0420
    -1.8015  -1.7635  -1.7295  -1.7077  -1.5954  -1.5730  -1.5552  -1.5163
    -1.3883  -1.3518  -1.2768  -1.2533  -1.2208  -1.1540  -1.0902  -1.0312
    -1.0283  -0.9856  -0.9422  -0.9171  -0.8967  -0.8731  -0.7121  -0.6976
    -0.6789  -0.6381  -0.5960  -0.5623  -0.5073  -0.4949  -0.4782  -0.4636
    -0.4530  -0.4142  -0.4014  -0.3429  -0.3277  -0.3193  -0.2889  -0.2482
    -0.2193  -0.2156  -0.1805  -0.1515  -0.1371  -0.1241   0.0968   0.0975
     0.1751   0.2376   0.2494   0.2767   0.3026   0.3544   0.4018   0.4041
     0.4619   0.4931   0.5233   0.5508   0.5579   0.5909   0.6821   0.7465
     0.7738   0.8292   0.8626   0.8883   0.9208   0.9347   0.9482   0.9639
     0.9885   1.0101   1.0388   1.0498   1.0563   1.0586   1.0802   1.0981
     1.1291   1.1495   1.1977   1.2632   1.2764   1.3034   1.3387   1.3782
     1.4055   1.4091   1.4619   1.4776   1.4992   1.4996   1.5179   1.5224
     1.5255   1.5533   1.5756   1.5834   1.5919   1.6127   1.6287   1.6612
     1.6792   1.6976   1.7140   1.7566   1.7973   1.8096   1.8435   1.8812
     1.8871   1.9226   1.9728   1.9778   2.3263   2.4336   2.4938   2.5287
     2.8380   2.8623   2.9681   3.0143   3.0386   3.0653   3.0849   3.1576
     3.2028   3.2492   3.4640   3.4797   3.5919   3.6195   5.9981   6.5814
     6.5878   6.6340   6.6416   6.9134   7.0561   7.0910   7.1569   7.2130
     8.0078   8.0669   8.1332   8.1467   8.1677   8.2171   8.2687   8.3217
     8.3327   8.4410   8.5785   8.6712   8.6961   8.8470   8.9028   8.9655
     8.9724   9.0713   9.0933   9.1254   9.1484   9.1951   9.2227   9.2763
     9.3116   9.3661

          k = 0.3750 0.7854 0.0000 ( 69976 PWs)   bands (ev):

   -38.1314 -38.0876 -35.7685 -35.7155 -22.7349 -22.7269 -22.6894 -22.6817
   -22.5998 -22.5413 -22.4308 -22.1868 -18.7101 -18.6675 -18.4597 -18.4163
   -18.3737 -18.3352 -17.1496 -17.0944 -17.0201 -16.9712 -16.9516 -16.9006
   -14.8399 -14.8285 -14.7344 -14.7236 -14.7036 -14.6554 -14.5739 -14.5524
   -14.5419 -14.5052 -14.4606 -14.3834 -14.3753 -14.3450 -14.3324 -14.2824
   -14.2783 -14.2465 -14.1214 -14.1064 -14.0909 -14.0512 -13.9853 -13.9767
   -13.9715 -13.9626 -13.9297 -13.8689 -12.8926 -12.8235  -8.5892  -8.5816
    -8.3507  -8.3168  -8.3092  -8.1934  -8.1642  -8.1567  -8.0865  -8.0796
    -8.0715  -8.0498  -8.0419  -7.9665  -7.9611  -7.9255  -7.9119  -7.8501
    -7.8426  -7.7351  -7.6438  -7.5942  -7.5672  -7.3734  -3.7919  -3.7572
    -3.4321  -3.4096  -3.3941  -3.3308  -3.1706  -3.1076  -2.8623  -2.8556
    -2.8370  -2.8303  -2.8213  -2.7559  -2.5035  -2.4965  -2.3858  -2.3304
    -2.2807  -2.2751  -2.1481  -2.1422  -2.1346  -2.1067  -2.0851  -2.0124
    -2.0059  -1.9681  -1.8056  -1.7887  -1.7627  -1.7587  -1.6659  -1.6451
    -1.6267  -1.6118  -1.5498  -1.4796  -1.3448  -1.3098  -1.2587  -1.1554
    -1.1392  -1.1128  -1.1058  -1.0786  -0.9478  -0.9275  -0.8781  -0.8340
    -0.8057  -0.7941  -0.7585  -0.7448  -0.7084  -0.6938  -0.6770  -0.6572
    -0.6551  -0.6101  -0.5759  -0.5485  -0.5058  -0.4990  -0.4175  -0.3347
    -0.3319  -0.2611  -0.2354  -0.2148  -0.1831  -0.1644   0.1211   0.1789
     0.2252   0.3309   0.3487   0.3563   0.3616   0.4574   0.4714   0.4853
     0.5012   0.5803   0.5889   0.6355   0.7837   0.8396   0.8825   0.9111
     0.9530   0.9742   0.9915   1.0179   1.0370   1.0607   1.0816   1.1106
     1.1269   1.2010   1.2389   1.2488   1.3023   1.3146   1.3250   1.3396
     1.3677   1.3736   1.3936   1.4082   1.4317   1.4537   1.4683   1.5021
     1.5611   1.5740   1.5988   1.6280   1.6550   1.6872   1.6974   1.7244
     1.7284   1.7570   1.7676   1.7804   1.8070   1.8250   1.8326   1.8671
     1.8859   1.9088   1.9353   1.9525   1.9897   2.0135   2.0973   2.1530
     2.2070   2.2964   2.3027   2.3823   2.3884   2.3982   2.4513   2.5271
     2.8343   2.8473   2.8924   2.9226   2.9855   3.0207   3.1516   3.2405
     3.2603   3.3651   3.8498   3.8692   3.9687   3.9883   6.1163   6.5069
     6.5147   6.8797   6.9442   7.0700   7.0819   7.2435   7.5841   7.6335
     8.0761   8.1261   8.2551   8.3276   8.6039   8.6185   8.6296   8.6870
     8.8057   8.8301   8.8623   8.9153   9.1632   9.2325   9.2954   9.3161
     9.3852   9.3949   9.4456   9.4575   9.5085   9.5768   9.6256   9.7067
     9.7460   9.8189

          k = 0.3750-1.0472 0.0000 ( 69970 PWs)   bands (ev):

   -38.1287 -38.0849 -35.7668 -35.7138 -22.7106 -22.7026 -22.6669 -22.6593
   -22.5799 -22.5173 -22.4091 -22.1643 -18.7906 -18.7481 -18.4527 -18.4093
   -18.3268 -18.2880 -17.2002 -17.1450 -17.0141 -16.9650 -16.9152 -16.8642
   -14.8642 -14.8462 -14.7172 -14.7016 -14.6080 -14.5945 -14.5783 -14.5695
   -14.5095 -14.4889 -14.4745 -14.3493 -14.3238 -14.3227 -14.2907 -14.2856
   -14.2771 -14.2104 -14.1095 -14.0667 -14.0469 -14.0305 -13.9680 -13.9598
   -13.9527 -13.9516 -13.9445 -13.9214 -12.9184 -12.8080  -8.6250  -8.6174
    -8.4024  -8.3221  -8.3146  -8.2969  -8.2894  -8.2392  -8.0890  -8.0820
    -8.0741  -8.0713  -8.0567  -8.0488  -7.9705  -7.9558  -7.9522  -7.9451
    -7.9423  -7.7233  -7.6773  -7.6439  -7.6400  -7.4958  -3.9884  -3.9552
    -3.5953  -3.5835  -3.5740  -3.5215  -3.3361  -3.2687  -3.0963  -3.0893
    -3.0689  -3.0621  -3.0344  -2.9716  -2.5084  -2.5012  -2.3749  -2.3172
    -2.2886  -2.2803  -2.2731  -2.2588  -2.1418  -2.1360  -2.0346  -1.9578
    -1.9398  -1.9073  -1.8711  -1.8454  -1.8154  -1.7925  -1.7873  -1.7781
    -1.7381  -1.7049  -1.6475  -1.5946  -1.3879  -1.3520  -1.3029  -1.2050
    -1.1828  -1.1673  -1.1628  -1.1364  -0.9642  -0.9402  -0.9224  -0.9175
    -0.8992  -0.8698  -0.7927  -0.7905  -0.7819  -0.7790  -0.7445  -0.7315
    -0.7098  -0.6736  -0.6448  -0.6178  -0.5635  -0.5050  -0.4352  -0.3279
    -0.3264  -0.2835  -0.2636  -0.2146  -0.1798  -0.1696   0.1351   0.2125
     0.2536   0.3718   0.3832   0.3893   0.3901   0.3934   0.4171   0.4851
     0.5105   0.5789   0.6055   0.6745   0.8912   0.9150   0.9470   1.0272
     1.0484   1.0647   1.0706   1.0764   1.1024   1.1118   1.1290   1.1879
     1.2086   1.2137   1.2259   1.2777   1.3269   1.3684   1.3775   1.3927
     1.3956   1.4008   1.4121   1.4138   1.4506   1.4540   1.5242   1.5458
     1.6356   1.6403   1.6985   1.7534   1.7771   1.7999   1.8085   1.8101
     1.8221   1.8523   1.8682   1.8955   1.9410   1.9545   2.0157   2.0391
     2.0854   2.1099   2.1629   2.1656   2.1718   2.1743   2.1796   2.2085
     2.3054   2.3378   2.4672   2.4835   2.4898   2.4939   2.5546   2.5610
     2.6491   2.6698   2.6793   2.7118   2.9482   2.9841   3.1250   3.1831
     3.2356   3.3467   3.9442   3.9660   4.0722   4.0897   6.1125   6.3747
[...]
    -1.4642  -1.4355  -1.4350  -1.4344  -1.4274  -1.4171  -1.0986  -1.0870
    -1.0797  -1.0341  -0.9818  -0.9807  -0.9617  -0.9570  -0.9415  -0.8930
    -0.8869  -0.8653  -0.8533  -0.8035  -0.7351  -0.7117  -0.6278  -0.6100
    -0.5229  -0.5010  -0.4985  -0.4594  -0.3519  -0.2976  -0.2650  -0.2388
    -0.2020  -0.1852  -0.1718  -0.1570  -0.1356  -0.1015  -0.0908  -0.0738
    -0.0421  -0.0319  -0.0219   0.0273   0.0401   0.0864   0.0979   0.1014
     0.1220   0.1561   0.1788   0.2182   0.2386   0.2974   0.3031   0.3090
     0.3424   0.3483   0.3641   0.3697   0.3961   0.3982   0.4134   0.4276
     0.4321   0.4400   0.4669   0.5076   0.5683   0.6381   0.6591   0.7089
     0.7337   0.7949   0.8527   0.8724   0.8960   0.9131   0.9139   0.9314
     1.0098   1.0189   1.0392   1.0485   1.1305   1.1895   1.2223   1.2247
     1.2398   1.2454   1.2642   1.2728   1.2791   1.3452   1.3606   1.3822
     1.3907   1.4000   1.4184   1.4453   1.4736   1.5086   1.5318   1.5364
     1.5404   1.5575   1.6059   1.6072   1.6650   1.7046   1.7432   1.7466
     1.7477   1.7524   1.8482   1.8584   2.2214   2.2401   2.5449   2.5478
     2.5531   2.5753   2.6509   2.7011   2.7430   2.8045   2.8049   2.8485
     2.8611   2.8868   2.8895   2.9139   2.9496   2.9730   5.7727   6.0924
     6.0977   6.1098   6.1155   6.3836   6.6239   6.6727   7.0578   7.1140
     7.6641   7.6775   7.7211   7.7317   7.7875   7.9053   7.9391   7.9758
     8.0708   8.2077   8.2501   8.4083   8.5010   8.5796   8.6767   8.6902
     8.7197   8.8355   8.8696   8.8954   8.9591   9.0536   9.1218   9.1337
     9.1507   9.1802

          k =-0.5000 0.5236 0.0000 ( 69914 PWs)   bands (ev):

   -38.1380 -38.0941 -35.7726 -35.7196 -22.7824 -22.7742 -22.7527 -22.7452
   -22.6466 -22.5947 -22.4856 -22.2407 -18.5016 -18.4781 -18.4734 -18.4585
   -18.4401 -18.4301 -17.0452 -17.0400 -17.0165 -16.9965 -16.9873 -16.9629
   -14.9396 -14.9165 -14.8497 -14.8387 -14.7089 -14.6794 -14.6779 -14.5991
   -14.5623 -14.5527 -14.5525 -14.5252 -14.4025 -14.3986 -14.3297 -14.3037
   -14.2439 -14.2173 -14.1930 -14.1595 -14.1067 -14.0355 -14.0323 -14.0277
   -14.0234 -14.0138 -13.8852 -13.8179 -12.8481 -12.8424  -8.3586  -8.3510
    -8.3295  -8.3219  -8.1153  -8.1035  -8.0951  -8.0817  -8.0359  -8.0279
    -7.9894  -7.9667  -7.9349  -7.8839  -7.7678  -7.7591  -7.7521  -7.7487
    -7.7411  -7.6229  -7.5791  -7.4918  -7.2631  -7.2428  -3.1829  -3.1475
    -3.0976  -3.0684  -2.8431  -2.8255  -2.7688  -2.7686  -2.4028  -2.3964
    -2.3636  -2.3568  -2.2897  -2.2882  -2.2509  -2.2422  -2.2338  -2.2302
    -2.2174  -2.2166  -2.1952  -2.1862  -2.0986  -2.0932  -2.0767  -2.0712
    -1.7903  -1.7668  -1.5704  -1.5576  -1.5524  -1.5309  -1.5129  -1.4927
    -1.4313  -1.4283  -1.4131  -1.3763  -1.3318  -1.2705  -1.0913  -1.0708
    -1.0342  -0.9907  -0.9644  -0.9049  -0.8803  -0.8688  -0.7263  -0.7163
    -0.6403  -0.6312  -0.6121  -0.5789  -0.4877  -0.4781  -0.4775  -0.4654
    -0.4230  -0.3968  -0.3640  -0.3639  -0.3576  -0.3373  -0.2961  -0.2823
    -0.2370  -0.1999  -0.1956  -0.1884  -0.1450  -0.1437   0.0959   0.0967
     0.2131   0.2163   0.2918   0.3148   0.3451   0.3678   0.4023   0.4510
     0.4514   0.4826   0.5377   0.5408   0.5918   0.6395   0.7048   0.7604
     0.7699   0.8217   0.8798   0.9186   0.9249   0.9432   0.9566   0.9592
     0.9731   0.9807   1.0297   1.0356   1.0403   1.0425   1.0457   1.0515
     1.1072   1.1375   1.1878   1.2690   1.3038   1.3118   1.3376   1.4038
     1.4158   1.4332   1.4336   1.4581   1.4706   1.4713   1.4933   1.5054
     1.5277   1.5450   1.5528   1.5762   1.5950   1.6156   1.6342   1.6718
     1.6879   1.6917   1.7263   1.7367   1.7688   1.8344   1.8477   1.9157
     1.9247   1.9285   1.9292   1.9349   2.4138   2.4232   2.5098   2.5376
     3.0126   3.0295   3.0350   3.0626   3.1672   3.1857   3.1953   3.1972
     3.2355   3.2552   3.3320   3.3570   3.3967   3.4271   6.0165   6.6074
     6.6145   6.6348   6.6418   6.9142   7.1125   7.1529   7.1614   7.1988
     7.9698   8.0412   8.1046   8.1679   8.2579   8.2698   8.2855   8.2902
     8.2924   8.5301   8.6724   8.7185   8.7618   8.8554   8.9088   8.9611
     9.0036   9.0279   9.0687   9.1235   9.1250   9.1422   9.2127   9.2270
     9.2952   9.3498

          k =-0.5000 0.7854 0.0000 ( 69938 PWs)   bands (ev):

   -38.1314 -38.0876 -35.7685 -35.7155 -22.7271 -22.7189 -22.6973 -22.6898
   -22.5993 -22.5387 -22.4335 -22.1874 -18.7101 -18.6675 -18.4566 -18.4131
   -18.3732 -18.3346 -17.1496 -17.0944 -17.0292 -16.9804 -16.9538 -16.9028
   -14.7992 -14.7868 -14.7687 -14.7602 -14.6580 -14.6091 -14.5540 -14.5460
   -14.5388 -14.4925 -14.4902 -14.4301 -14.3717 -14.3686 -14.3405 -14.3039
   -14.2776 -14.2616 -14.1185 -14.0966 -14.0917 -14.0571 -13.9814 -13.9752
   -13.9729 -13.9661 -13.9265 -13.8721 -12.8633 -12.8535  -8.4853  -8.4776
    -8.4466  -8.4391  -8.2654  -8.1926  -8.1516  -8.0832  -8.0749  -8.0682
    -8.0602  -7.9889  -7.9881  -7.9812  -7.9807  -7.9631  -7.9600  -7.9392
    -7.8350  -7.7309  -7.6829  -7.6400  -7.4943  -7.4712  -3.6930  -3.6622
    -3.5066  -3.4786  -3.3036  -3.2502  -3.2290  -3.1563  -2.8501  -2.8491
    -2.8435  -2.8424  -2.8165  -2.7600  -2.4233  -2.4159  -2.3448  -2.3367
    -2.2627  -2.2499  -2.1969  -2.1756  -2.1206  -2.1118  -2.0904  -2.0802
    -1.9869  -1.9584  -1.8514  -1.8256  -1.7819  -1.7604  -1.7204  -1.7085
    -1.6741  -1.6697  -1.5403  -1.5046  -1.4116  -1.3718  -1.1860  -1.1576
    -1.1549  -1.1438  -1.1105  -1.0850  -0.9005  -0.8817  -0.8800  -0.8506
    -0.8139  -0.7922  -0.7855  -0.7678  -0.6857  -0.6835  -0.6736  -0.6697
    -0.6040  -0.5584  -0.5448  -0.5430  -0.5238  -0.4746  -0.3907  -0.3755
    -0.3674  -0.3476  -0.2834  -0.2575  -0.1877  -0.1728   0.1366   0.1640
     0.2999   0.3134   0.4047   0.4185   0.4220   0.4331   0.4936   0.5273
     0.5282   0.5665   0.6342   0.7193   0.7198   0.8926   0.9393   0.9450
     0.9579   0.9746   0.9824   1.0107   1.0153   1.0451   1.0485   1.0714
     1.1189   1.1628   1.2383   1.2697   1.2714   1.2836   1.3237   1.3330
     1.3497   1.3525   1.3776   1.4017   1.4107   1.5131   1.5210   1.5266
     1.5493   1.5670   1.5739   1.5818   1.6628   1.6958   1.6984   1.7392
     1.7501   1.7577   1.7677   1.7736   1.7800   1.7811   1.8021   1.8107
     1.8587   1.8893   1.9017   1.9304   2.0066   2.0550   2.1002   2.1485
     2.3029   2.3348   2.3416   2.3449   2.3513   2.3550   2.4429   2.4826
     2.8813   2.8980   2.8998   2.9262   3.2215   3.2648   3.4274   3.4493
     3.4623   3.4813   3.5951   3.6213   3.6368   3.6561   6.1744   6.7531
     6.7598   6.7813   6.8041   6.9912   7.0515   7.2062   7.5163   7.5642
     8.0663   8.1141   8.2372   8.3104   8.6215   8.6790   8.6822   8.7008
     8.7543   8.7595   8.7816   8.8853   9.1866   9.2462   9.3865   9.4675
     9.4756   9.4996   9.5323   9.5527   9.5955   9.6211   9.6433   9.6900
     9.7195   9.7457

          k =-0.5000-1.0472 0.0000 ( 69948 PWs)   bands (ev):

   -38.1287 -38.0849 -35.7668 -35.7138 -22.7038 -22.6956 -22.6739 -22.6664
   -22.5794 -22.5150 -22.4116 -22.1649 -18.7906 -18.7481 -18.4496 -18.4061
   -18.3263 -18.2875 -17.2002 -17.1451 -17.0229 -16.9740 -16.9172 -16.8662
   -14.8280 -14.8072 -14.7527 -14.7423 -14.6054 -14.5795 -14.5377 -14.5140
   -14.4844 -14.4776 -14.4675 -14.3700 -14.3505 -14.3489 -14.3293 -14.3163
   -14.2516 -14.2446 -14.0796 -14.0772 -14.0565 -14.0364 -13.9682 -13.9567
   -13.9560 -13.9486 -13.9477 -13.9214 -12.8718 -12.8571  -8.4887  -8.4810
    -8.4378  -8.4304  -8.2862  -8.2085  -8.1904  -8.1637  -8.1559  -8.1401
    -8.1327  -8.0620  -8.0593  -8.0541  -8.0511  -7.9774  -7.9708  -7.9434
    -7.8810  -7.7818  -7.7229  -7.6942  -7.6363  -7.5838  -3.8934  -3.8640
    -3.6665  -3.6398  -3.4981  -3.4443  -3.3930  -3.3179  -3.0831  -3.0822
    -3.0762  -3.0753  -3.0303  -2.9755  -2.4284  -2.4217  -2.3219  -2.3128
    -2.2430  -2.1977  -2.1860  -2.1591  -2.1581  -2.1446  -2.0756  -2.0641
    -2.0521  -2.0257  -1.9926  -1.9782  -1.9059  -1.8354  -1.8197  -1.7796
    -1.7783  -1.7521  -1.5583  -1.5239  -1.4391  -1.4011  -1.2210  -1.2065
    -1.1953  -1.1938  -1.1696  -1.1464  -0.9788  -0.9464  -0.9040  -0.8763
    -0.8763  -0.8557  -0.8005  -0.7834  -0.7658  -0.7658  -0.7564  -0.7467
    -0.6523  -0.6403  -0.6333  -0.5825  -0.5562  -0.4829  -0.3997  -0.3923
    -0.3880  -0.3705  -0.2986  -0.2710  -0.1907  -0.1779   0.1585   0.1929
     0.3351   0.3416   0.4246   0.4343   0.4633   0.4851   0.4991   0.5061
     0.5224   0.5474   0.6541   0.7415   0.7693   0.9465   0.9829   1.0202
     1.0407   1.0580   1.0705   1.1003   1.1175   1.1387   1.1546   1.1828
     1.2000   1.2082   1.2630   1.2836   1.3120   1.3194   1.3301   1.3582
     1.3847   1.4114   1.4338   1.4377   1.4412   1.4852   1.4922   1.5241
     1.5638   1.5717   1.5779   1.7265   1.7670   1.7733   1.8310   1.8389
     1.8546   1.8758   1.9484   1.9646   1.9730   1.9996   2.0044   2.0181
     2.0271   2.0449   2.1117   2.1135   2.1660   2.1672   2.1747   2.1765
     2.2358   2.3144   2.4694   2.4786   2.5143   2.5205   2.5232   2.5298
     2.6770   2.6842   2.6992   2.7179   3.1533   3.2501   3.4489   3.4730
     3.5119   3.5336   3.6038   3.6304   3.7136   3.7316   6.2051   6.6965
     6.7028   6.7213   6.7525   6.9135   6.9772   7.1926   7.5326   7.5850
     8.1544   8.1801   8.2305   8.2617   8.6172   8.9881   9.0476   9.1088
     9.1669   9.2371   9.3602   9.3631   9.3930   9.3984   9.4029   9.4182
     9.4345   9.6265   9.6453   9.7279   9.7282   9.7747   9.7807   9.8081
     9.8135   9.8677

     the Fermi energy is     2.6949 ev

!    total energy              =   -3711.59976252 Ry
     Harris-Foulkes estimate   =   -3711.59976253 Ry
     estimated scf accuracy    <          5.7E-09 Ry

     The total energy is the sum of the following terms:

     one-electron contribution =  -60680.63838146 Ry
     hartree contribution      =   30646.58419746 Ry
     xc contribution           =   -1263.82980872 Ry
     ewald contribution        =   27586.30127539 Ry
     smearing contrib. (-TS)   =      -0.01704519 Ry

     convergence has been achieved in  32 iterations

     negative rho (up, down):  9.198E-02 0.000E+00

     Forces acting on atoms (cartesian axes, Ry/au):

     atom    1 type  4   force =    -0.00000608    0.00000000   -0.00027800
     atom    2 type  4   force =     0.00000608    0.00000000   -0.00027800
     atom    3 type  3   force =    -0.00001740    0.00000000   -0.00001299
     atom    4 type  3   force =     0.00001740    0.00000000   -0.00001299
     atom    5 type  4   force =    -0.00000910    0.00000000    0.00002200
     atom    6 type  4   force =     0.00000910    0.00000000    0.00002200
     atom    7 type  1   force =     0.00000000    0.00000000   -0.00030463
     atom    8 type  1   force =     0.00000000    0.00000000   -0.00027204
     atom    9 type  3   force =     0.00011390    0.00000000   -0.00020785
     atom   10 type  3   force =    -0.00011390    0.00000000   -0.00020785
     atom   11 type  4   force =     0.00000000    0.00000000    0.00077673
     atom   12 type  4   force =     0.00000887    0.00000000    0.00085327
     atom   13 type  4   force =    -0.00000887    0.00000000    0.00085327
     atom   14 type  4   force =     0.00000000    0.00000000    0.00101405
     atom   15 type  2   force =     0.00000000    0.00000000   -0.00217362
     atom   16 type  5   force =     0.00000000    0.00000000   -0.00328486
     atom   17 type  4   force =     0.00063940    0.00000000    0.00368155
     atom   18 type  4   force =    -0.00063940    0.00000000    0.00368155
     atom   19 type  4   force =     0.00000000    0.00000000    0.00271288
     atom   20 type  4   force =     0.00000000    0.00000000    0.00336402
     atom   21 type  3   force =     0.00041784    0.00000000   -0.00085311
     atom   22 type  3   force =    -0.00041784    0.00000000   -0.00085311
     atom   23 type  1   force =     0.00000000    0.00000000    0.00718240
     atom   24 type  1   force =     0.00000000    0.00000000    0.01305591
     atom   25 type  4   force =     0.00215007    0.00000000   -0.01165634
     atom   26 type  4   force =    -0.00215007    0.00000000   -0.01165634
     atom   27 type  4   force =    -0.00584455    0.00000000    0.02420061
     atom   28 type  4   force =     0.00584455    0.00000000    0.02420061
     atom   29 type  3   force =     0.00698942    0.00000000    0.00735974
     atom   30 type  3   force =    -0.00698942    0.00000000    0.00735974
     atom   31 type  4   force =     0.01094798    0.00000000   -0.00025630
     atom   32 type  4   force =    -0.01094798    0.00000000   -0.00025630
     atom   33 type  1   force =     0.00000000    0.00000000   -0.02222082
     atom   34 type  1   force =     0.00000000    0.00000000   -0.02013005
     atom   35 type  3   force =    -0.00295722    0.00000000   -0.01700868
     atom   36 type  3   force =     0.00295722    0.00000000   -0.01700868
     atom   37 type  4   force =     0.00000000    0.00000000    0.00452673
     atom   38 type  4   force =     0.00000000    0.00000000    0.00135014
     atom   39 type  4   force =     0.00247386    0.00000000    0.00090033
     atom   40 type  4   force =    -0.00247386    0.00000000    0.00090033
     atom   41 type  5   force =     0.00000000    0.00000000    0.00161021
     atom   42 type  2   force =     0.00000000    0.00000000    0.00002696
     atom   43 type  4   force =     0.00000000    0.00000000    0.00005494
     atom   44 type  4   force =     0.00002233    0.00000000   -0.00075961
     atom   45 type  4   force =    -0.00002233    0.00000000   -0.00075961
     atom   46 type  4   force =     0.00000000    0.00000000   -0.00000097
     atom   47 type  3   force =     0.00001256    0.00000000    0.00021579
     atom   48 type  3   force =    -0.00001256    0.00000000    0.00021579
     atom   49 type  1   force =     0.00000000    0.00000000    0.00014735
     atom   50 type  1   force =     0.00000000    0.00000000    0.00019140
     atom   51 type  4   force =    -0.00004208    0.00000000   -0.00046391
     atom   52 type  4   force =     0.00004208    0.00000000   -0.00046391
     atom   53 type  3   force =    -0.00004367    0.00000000    0.00067840
     atom   54 type  3   force =     0.00004367    0.00000000    0.00067840
     atom   55 type  4   force =     0.00001997    0.00000000   -0.00022826
     atom   56 type  4   force =    -0.00001997    0.00000000   -0.00022826

     Total force =     0.061584     Total SCF correction =     0.000331


     Computing stress (Cartesian axis) and pressure


     negative rho (up, down):  9.198E-02 0.000E+00
          total   stress  (Ry/bohr**3)                   (kbar)     P=       -6.49
  -0.00000164   0.00000000   0.00000000           -0.24        0.00        0.00
   0.00000000  -0.00006774   0.00000000            0.00       -9.96        0.00
   0.00000000   0.00000000  -0.00006290            0.00        0.00       -9.25

 
     init_run     :     29.55s CPU     30.18s WALL (       1 calls)
     electrons    :   2063.24s CPU   2115.30s WALL (       1 calls)
     forces       :     11.77s CPU     12.04s WALL (       1 calls)
     stress       :    114.36s CPU    115.34s WALL (       1 calls)

     Called by init_run:
     wfcinit      :     24.87s CPU     25.18s WALL (       1 calls)
     potinit      :      0.96s CPU      0.98s WALL (       1 calls)
     hinit0       :      1.71s CPU      1.73s WALL (       1 calls)

     Called by electrons:
     c_bands      :   1747.98s CPU   1782.99s WALL (      32 calls)
     sum_band     :    239.22s CPU    248.38s WALL (      32 calls)
     v_of_rho     :      4.31s CPU      4.35s WALL (      33 calls)
     newd         :     39.54s CPU     46.75s WALL (      33 calls)
     mix_rho      :     32.80s CPU     33.07s WALL (      32 calls)

     Called by c_bands:
     init_us_2    :      7.86s CPU      7.91s WALL (    1675 calls)
     cegterg      :   1682.38s CPU   1704.19s WALL (     800 calls)

     Called by sum_band:
     sum_band:bec :      0.98s CPU      0.99s WALL (     800 calls)
     addusdens    :     35.00s CPU     42.18s WALL (      32 calls)

     Called by *egterg:
     h_psi        :    753.67s CPU    764.05s WALL (    4835 calls)
     s_psi        :     94.48s CPU     94.90s WALL (    4835 calls)
     g_psi        :      1.40s CPU      1.41s WALL (    4010 calls)
     cdiaghg      :    455.88s CPU    457.83s WALL (    4810 calls)

     Called by h_psi:
     h_psi:calbec :    120.34s CPU    120.83s WALL (    4835 calls)
     vloc_psi     :    535.99s CPU    542.48s WALL (    4835 calls)
     add_vuspsi   :     95.10s CPU     95.54s WALL (    4835 calls)

     General routines
     calbec       :    219.56s CPU    220.40s WALL (    5760 calls)
     fft          :      4.29s CPU      4.32s WALL (     452 calls)
     ffts         :     17.57s CPU     17.73s WALL (   16038 calls)
     fftw         :    618.07s CPU    625.53s WALL ( 1152242 calls)
     interpolate  :      0.33s CPU      0.33s WALL (      33 calls)
 
     Parallel routines
     fft_scatt_xy :     56.09s CPU     56.77s WALL ( 1168732 calls)
     fft_scatt_yz :    452.59s CPU    457.98s WALL ( 1168732 calls)
 
     PWSCF        :  37m 0.04s CPU  37m54.03s WALL

 
   This run was terminated on:   0:16:40  28May2021            

=------------------------------------------------------------------------------=
   JOB DONE.
=------------------------------------------------------------------------------=
[1622175400.396356] [holy7c16604:59461:0]          mpool.c:43   UCX  WARN  object 0x35f8940 was not returned to mpool ucp_requests
[1622175400.396373] [holy7c16604:59461:0]          mpool.c:43   UCX  WARN  object 0x35f9040 was not returned to mpool ucp_requests
[1622175400.394527] [holy7c16610:222736:0]          mpool.c:43   UCX  WARN  object 0x3f36240 was not returned to mpool ucp_requests
[1622175400.395707] [holy7c16503:47637:0]          mpool.c:43   UCX  WARN  object 0x2ae0600 was not returned to mpool ucp_requests
[1622175400.398569] [holy7c16304:219299:0]          mpool.c:43   UCX  WARN  object 0x33e5800 was not returned to mpool ucp_requests
[1622175400.399399] [holy7c12407:22017:0]          mpool.c:43   UCX  WARN  object 0x3001f40 was not returned to mpool ucp_requests
[1622175400.400324] [holy7c16511:89314:0]          mpool.c:43   UCX  WARN  object 0x3d50a40 was not returned to mpool ucp_requests
[1622175400.402570] [holy7c16511:89315:0]          mpool.c:43   UCX  WARN  object 0x44fadc0 was not returned to mpool ucp_requests
[1622175400.401163] [holy7c12407:22018:0]          mpool.c:43   UCX  WARN  object 0x2a7d180 was not returned to mpool ucp_requests
[1622175400.401186] [holy7c12407:22018:0]          mpool.c:43   UCX  WARN  object 0x2a7d500 was not returned to mpool ucp_requests
[1622175400.403951] [holy7c10510:177331:0]          mpool.c:43   UCX  WARN  object 0x392b440 was not returned to mpool ucp_requests
[1622175400.403977] [holy7c10510:177331:0]          mpool.c:43   UCX  WARN  object 0x392b7c0 was not returned to mpool ucp_requests
[1622175400.406461] [holy7c16504:122750:0]          mpool.c:43   UCX  WARN  object 0x44c3800 was not returned to mpool ucp_requests
[1622175400.406488] [holy7c16504:122750:0]          mpool.c:43   UCX  WARN  object 0x44c39c0 was not returned to mpool ucp_requests
[1622175400.404202] [holy7c16611:220268:0]          mpool.c:43   UCX  WARN  object 0x4701400 was not returned to mpool ucp_requests
[1622175400.417352] [holy7c06410:78476:0]          mpool.c:43   UCX  WARN  object 0x433d240 was not returned to mpool ucp_requests
[1622175400.418552] [holy7c06410:78477:0]          mpool.c:43   UCX  WARN  object 0x469d3c0 was not returned to mpool ucp_requests
[1622175400.418577] [holy7c06410:78477:0]          mpool.c:43   UCX  WARN  object 0x469d580 was not returned to mpool ucp_requests
[1622175400.417904] [holy7c06410:78475:0]          mpool.c:43   UCX  WARN  object 0x3014b80 was not returned to mpool ucp_requests
