
     Program PWSCF v.6.5 starts on 27May2021 at 23:30:40 

     This program is part of the open-source Quantum ESPRESSO suite
     for quantum simulation of materials; please cite
         "P. Giannozzi et al., J. Phys.:Condens. Matter 21 395502 (2009);
         "P. Giannozzi et al., J. Phys.:Condens. Matter 29 465901 (2017);
          URL http://www.quantum-espresso.org", 
     in publications or presentations arising from this work. More details at
     http://www.quantum-espresso.org/quote

     Parallel version (MPI), running on    32 processors

     MPI processes distributed on    10 nodes
     R & G space division:  proc/nbgrp/npool/nimage =      32
     Reading input from YCBCO50_212_CuO_cleave_0.5_sep.pwi
Warning: card &IONS ignored
Warning: card     ION_DYNAMICS = 'BFGS' ignored
Warning: card / ignored
Warning: card &CELL ignored
Warning: card     CELL_DYNAMICS = 'BFGS' ignored
Warning: card     PRESS_CONV_THR = 5 ignored
Warning: card / ignored

     Current dimensions of program PWSCF are:
     Max number of different atomic species (ntypx) = 10
     Max number of k-points (npk) =  40000
     Max angular momentum in pseudopotentials (lmaxx) =  3

     Subspace diagonalization in iterative solution of the eigenvalue problem:
     one sub-group per band group will be used
     scalapack distributed-memory algorithm (size of sub-group:  5*  5 procs)

     Message from routine setup:
     using ibrav=0 with symmetry is DISCOURAGED, use correct ibrav instead
 
     Parallelization info
     --------------------
     sticks:   dense  smooth     PW     G-vecs:    dense   smooth      PW
     Min         188      62     17                89868    17286    2577
     Max         189      63     18                89896    17331    2618
     Sum        6019    2003    565              2876277   553869   83293
 


     bravais-lattice index     =            0
     lattice parameter (alat)  =      14.8133  a.u.
     unit-cell volume          =    8816.2533 (a.u.)^3
     number of atoms/cell      =           56
     number of atomic types    =            5
     number of electrons       =       456.00
     number of Kohn-Sham states=          274
     kinetic-energy cutoff     =      60.0000  Ry
     charge density cutoff     =     720.0000  Ry
     convergence threshold     =      1.0E-08
     mixing beta               =       0.5000
     number of iterations used =           10  local-TF  mixing
     Exchange-correlation= SLA PW PBE PBE
                           (   1   4   3   4   0   0   0)

     celldm(1)=  14.813271  celldm(2)=   0.000000  celldm(3)=   0.000000
     celldm(4)=   0.000000  celldm(5)=   0.000000  celldm(6)=   0.000000

     crystal axes: (cart. coord. in units of alat)
               a(1) = (   1.000000   0.000000   0.000000 )  
               a(2) = (   0.000000   0.477453   0.000000 )  
               a(3) = (   0.000000   0.000000   5.680686 )  

     reciprocal axes: (cart. coord. in units 2 pi/alat)
               b(1) = (  1.000000  0.000000  0.000000 )  
               b(2) = (  0.000000  2.094448  0.000000 )  
               b(3) = (  0.000000  0.000000  0.176035 )  


     PseudoPot. # 1 for Ba read from file:
     ./pseudo/Ba.pbe-nsp-van.UPF
     MD5 check sum: 2b9c31dd849566dd297d80989662b7a0
     Pseudo is Ultrasoft + core correction, Zval = 10.0
     Generated by new atomic code, or converted to UPF format
     Using radial grid of  907 points,  6 beta functions with: 
                l(1) =   0
                l(2) =   0
                l(3) =   1
                l(4) =   1
                l(5) =   2
                l(6) =   2
     Q(r) pseudized with  6 coefficients,  rinner =    1.200   1.200   1.200
                                                       1.200   1.200

     PseudoPot. # 2 for Ca read from file:
     ./pseudo/Ca.pbe-nsp-van.UPF
     MD5 check sum: 6471098428ff4fa451746d08035ff179
     Pseudo is Ultrasoft + core correction, Zval = 10.0
     Generated by new atomic code, or converted to UPF format
     Using radial grid of  845 points,  6 beta functions with: 
                l(1) =   0
                l(2) =   0
                l(3) =   1
                l(4) =   1
                l(5) =   2
                l(6) =   2
     Q(r) pseudized with  6 coefficients,  rinner =    1.200   1.200   1.200
                                                       1.200   1.200

     PseudoPot. # 3 for Cu read from file:
     ./pseudo/Cu.pbe-n-van_ak.UPF
     MD5 check sum: 34e3282627ffb533726feb647e090d62
     Pseudo is Ultrasoft + core correction, Zval = 11.0
     Generated by new atomic code, or converted to UPF format
     Using radial grid of  867 points,  6 beta functions with: 
                l(1) =   0
                l(2) =   0
                l(3) =   1
                l(4) =   1
                l(5) =   2
                l(6) =   2
     Q(r) pseudized with  8 coefficients,  rinner =    1.400   1.400   1.400
                                                       1.400   1.400

     PseudoPot. # 4 for O  read from file:
     ./pseudo/O.pbe-van_ak.UPF
     MD5 check sum: 783ce7fe4c79b6a4916957118fed0856
     Pseudo is Ultrasoft, Zval =  6.0
     Generated by new atomic code, or converted to UPF format
     Using radial grid of  737 points,  4 beta functions with: 
                l(1) =   0
                l(2) =   0
                l(3) =   1
                l(4) =   1
     Q(r) pseudized with  8 coefficients,  rinner =    0.800   0.800   0.800


     PseudoPot. # 5 for Y  read from file:
     ./pseudo/Y.pbe-nsp-van.UPF
     MD5 check sum: 4412fed3ab108fed87a1b7d6a69a4a38
     Pseudo is Ultrasoft + core correction, Zval = 11.0
     Generated by new atomic code, or converted to UPF format
     Using radial grid of  885 points,  6 beta functions with: 
                l(1) =   0
                l(2) =   0
                l(3) =   1
                l(4) =   1
                l(5) =   2
                l(6) =   2
     Q(r) pseudized with  6 coefficients,  rinner =    1.200   1.200   1.200
                                                       1.200   1.200

     atomic species   valence    mass     pseudopotential
        Ba            10.00   137.32700     Ba( 1.00)
        Ca            10.00    40.07800     Ca( 1.00)
        Cu            11.00    63.54600     Cu( 1.00)
        O              6.00    15.99900     O ( 1.00)
        Y             11.00    88.90584     Y ( 1.00)

      4 Sym. Ops. (no inversion) found ( 2 have fractional translation)



   Cartesian axes

     site n.     atom                  positions (alat units)
         1           O   tau(   1) = (  -0.0008343   0.2387265  -0.0222443  )
         2           O   tau(   2) = (   0.5008340   0.2387265  -0.0222443  )
         3           Cu  tau(   3) = (   0.5017257   0.0000000   0.0109608  )
         4           Cu  tau(   4) = (  -0.0017260   0.0000000   0.0109608  )
         5           O   tau(   5) = (  -0.0028933   0.0000000   0.2506504  )
         6           O   tau(   6) = (   0.5028929   0.0000000   0.2506504  )
         7           Ba  tau(   7) = (   0.7499995   0.2387265   0.2749435  )
         8           Ba  tau(   8) = (   0.2499998   0.2387265   0.2755214  )
         9           Cu  tau(   9) = (   0.4980963   0.0000000   0.5208446  )
        10           Cu  tau(  10) = (   0.0019033   0.0000000   0.5208446  )
        11           O   tau(  11) = (   0.2499998   0.0000000   0.5341884  )
        12           O   tau(  12) = (   0.5083351   0.2387265   0.5569851  )
        13           O   tau(  13) = (  -0.0083354   0.2387265   0.5569851  )
        14           O   tau(  14) = (   0.7499995   0.0000000   0.5573831  )
        15           Ca  tau(  15) = (   0.2499998   0.2387265   0.7436937  )
        16           Y   tau(  16) = (   0.7499995   0.2387265   0.7469544  )
        17           O   tau(  17) = (  -0.0063798   0.2387265   0.9248530  )
        18           O   tau(  18) = (   0.5063794   0.2387265   0.9248530  )
        19           O   tau(  19) = (   0.7499995   0.0000000   0.9338544  )
        20           O   tau(  20) = (   0.2499998   0.0000000   0.9461329  )
        21           Cu  tau(  21) = (   0.0015717   0.0000000   0.9686860  )
        22           Cu  tau(  22) = (   0.4984280   0.0000000   0.9686860  )
        23           Ba  tau(  23) = (   0.2499998   0.2387265   1.2085224  )
        24           Ba  tau(  24) = (   0.7499995   0.2387265   1.2233294  )
        25           O   tau(  25) = (   0.0063772   0.0000000   1.2547537  )
        26           O   tau(  26) = (   0.4936224   0.0000000   1.2547537  )
        27           O   tau(  27) = (   0.5384045   0.2387265   1.4952521  )
        28           O   tau(  28) = (  -0.0384049   0.2387265   1.4952521  )
        29           Cu  tau(  29) = (   0.5006120   0.0000000   1.4952546  )
        30           Cu  tau(  30) = (  -0.0006123   0.0000000   1.4952546  )
        31           O   tau(  31) = (   0.4936212   0.0000000   1.7995380  )
        32           O   tau(  32) = (   0.0063785   0.0000000   1.7995380  )
        33           Ba  tau(  33) = (   0.7499995   0.2387265   1.8309673  )
        34           Ba  tau(  34) = (   0.2499998   0.2387265   1.8457769  )
        35           Cu  tau(  35) = (   0.4984280   0.0000000   2.0856081  )
        36           Cu  tau(  36) = (   0.0015717   0.0000000   2.0856081  )
        37           O   tau(  37) = (   0.2499998   0.0000000   2.1081663  )
        38           O   tau(  38) = (   0.7499995   0.0000000   2.1204360  )
        39           O   tau(  39) = (   0.5063781   0.2387265   2.1294411  )
        40           O   tau(  40) = (  -0.0063785   0.2387265   2.1294411  )
        41           Y   tau(  41) = (   0.7499995   0.2387265   2.3073347  )
        42           Ca  tau(  42) = (   0.2499998   0.2387265   2.3106043  )
        43           O   tau(  43) = (   0.7499995   0.0000000   2.4969021  )
        44           O   tau(  44) = (  -0.0083354   0.2387265   2.4973040  )
        45           O   tau(  45) = (   0.5083351   0.2387265   2.4973040  )
        46           O   tau(  46) = (   0.2499998   0.0000000   2.5201020  )
        47           Cu  tau(  47) = (   0.0019059   0.0000000   2.5334356  )
        48           Cu  tau(  48) = (   0.4980938   0.0000000   2.5334356  )
        49           Ba  tau(  49) = (   0.2499998   0.2387265   2.7787753  )
        50           Ba  tau(  50) = (   0.7499995   0.2387265   2.7793174  )
        51           O   tau(  51) = (  -0.0028895   0.0000000   2.8036246  )
        52           O   tau(  52) = (   0.5028891   0.0000000   2.8036246  )
        53           Cu  tau(  53) = (   0.5017844   0.0000000   3.0433091  )
        54           Cu  tau(  54) = (  -0.0017847   0.0000000   3.0433091  )
        55           O   tau(  55) = (   0.5008990   0.2387265   3.0765155  )
        56           O   tau(  56) = (  -0.0008994   0.2387265   3.0765155  )

     number of k points=    25  Gaussian smearing, width (Ry)=  0.0100
                       cart. coord. in units 2pi/alat
        k(    1) = (   0.0000000   0.0000000   0.0000000), wk =   0.0312500
        k(    2) = (   0.0000000   0.2618060   0.0000000), wk =   0.0625000
        k(    3) = (   0.0000000   0.5236121   0.0000000), wk =   0.0625000
        k(    4) = (   0.0000000   0.7854181   0.0000000), wk =   0.0625000
        k(    5) = (   0.0000000  -1.0472241   0.0000000), wk =   0.0312500
        k(    6) = (   0.1250000   0.0000000   0.0000000), wk =   0.0625000
        k(    7) = (   0.1250000   0.2618060   0.0000000), wk =   0.1250000
        k(    8) = (   0.1250000   0.5236121   0.0000000), wk =   0.1250000
        k(    9) = (   0.1250000   0.7854181   0.0000000), wk =   0.1250000
        k(   10) = (   0.1250000  -1.0472241   0.0000000), wk =   0.0625000
        k(   11) = (   0.2500000   0.0000000   0.0000000), wk =   0.0625000
        k(   12) = (   0.2500000   0.2618060   0.0000000), wk =   0.1250000
        k(   13) = (   0.2500000   0.5236121   0.0000000), wk =   0.1250000
        k(   14) = (   0.2500000   0.7854181   0.0000000), wk =   0.1250000
        k(   15) = (   0.2500000  -1.0472241   0.0000000), wk =   0.0625000
        k(   16) = (   0.3750000   0.0000000   0.0000000), wk =   0.0625000
        k(   17) = (   0.3750000   0.2618060   0.0000000), wk =   0.1250000
        k(   18) = (   0.3750000   0.5236121   0.0000000), wk =   0.1250000
        k(   19) = (   0.3750000   0.7854181   0.0000000), wk =   0.1250000
        k(   20) = (   0.3750000  -1.0472241   0.0000000), wk =   0.0625000
        k(   21) = (  -0.5000000   0.0000000   0.0000000), wk =   0.0312500
        k(   22) = (  -0.5000000   0.2618060   0.0000000), wk =   0.0625000
        k(   23) = (  -0.5000000   0.5236121   0.0000000), wk =   0.0625000
        k(   24) = (  -0.5000000   0.7854181   0.0000000), wk =   0.0625000
        k(   25) = (  -0.5000000  -1.0472241   0.0000000), wk =   0.0312500

     Dense  grid:  2876277 G-vectors     FFT dimensions: ( 128,  64, 720)

     Smooth grid:   553869 G-vectors     FFT dimensions: (  80,  36, 432)

     Estimated max dynamical RAM per process >     833.65 MB

     Estimated total dynamical RAM >      26.05 GB

     Initial potential from superposition of free atoms

     starting charge  455.69457, renormalised to  456.00000

     negative rho (up, down):  9.319E-02 0.000E+00
     Starting wfcs are  396 randomized atomic wfcs

     total cpu time spent up to now is       26.2 secs

     Self-consistent Calculation

     iteration #  1     ecut=    60.00 Ry     beta= 0.50
     Davidson diagonalization with overlap
     ethr =  1.00E-02,  avg # of iterations =  2.0

     negative rho (up, down):  8.617E-02 0.000E+00

     total cpu time spent up to now is       70.8 secs

     total energy              =   -3708.39923916 Ry
     Harris-Foulkes estimate   =   -3716.38930190 Ry
     estimated scf accuracy    <      30.11743237 Ry

     iteration #  2     ecut=    60.00 Ry     beta= 0.50
     Davidson diagonalization with overlap
     ethr =  6.60E-03,  avg # of iterations =  2.0

     negative rho (up, down):  8.596E-02 0.000E+00

     total cpu time spent up to now is      115.6 secs

     total energy              =   -3711.15734191 Ry
     Harris-Foulkes estimate   =   -3712.30610432 Ry
     estimated scf accuracy    <       6.10002148 Ry

     iteration #  3     ecut=    60.00 Ry     beta= 0.50
     Davidson diagonalization with overlap
     ethr =  1.34E-03,  avg # of iterations =  2.0

     negative rho (up, down):  8.651E-02 0.000E+00

     total cpu time spent up to now is      160.5 secs

     total energy              =   -3711.65280703 Ry
     Harris-Foulkes estimate   =   -3711.94280546 Ry
     estimated scf accuracy    <       4.86101187 Ry

     iteration #  4     ecut=    60.00 Ry     beta= 0.50
     Davidson diagonalization with overlap
     ethr =  1.07E-03,  avg # of iterations =  1.0

     negative rho (up, down):  8.754E-02 0.000E+00

     total cpu time spent up to now is      201.2 secs

     total energy              =   -3711.68802060 Ry
     Harris-Foulkes estimate   =   -3711.81946556 Ry
     estimated scf accuracy    <       0.60747228 Ry

     iteration #  5     ecut=    60.00 Ry     beta= 0.50
     Davidson diagonalization with overlap
     ethr =  1.33E-04,  avg # of iterations =  8.2

     negative rho (up, down):  8.843E-02 0.000E+00

     total cpu time spent up to now is      273.7 secs

     total energy              =   -3711.74361008 Ry
     Harris-Foulkes estimate   =   -3711.78368743 Ry
     estimated scf accuracy    <       3.06500806 Ry

     iteration #  6     ecut=    60.00 Ry     beta= 0.50
     Davidson diagonalization with overlap
     ethr =  1.33E-04,  avg # of iterations =  1.4

     negative rho (up, down):  8.958E-02 0.000E+00

     total cpu time spent up to now is      315.2 secs

     total energy              =   -3711.72299128 Ry
     Harris-Foulkes estimate   =   -3711.75240099 Ry
     estimated scf accuracy    <       1.86111348 Ry

     iteration #  7     ecut=    60.00 Ry     beta= 0.50
     Davidson diagonalization with overlap
     ethr =  1.33E-04,  avg # of iterations =  1.0

     negative rho (up, down):  9.014E-02 0.000E+00

     total cpu time spent up to now is      356.1 secs

     total energy              =   -3711.71737966 Ry
     Harris-Foulkes estimate   =   -3711.73203038 Ry
     estimated scf accuracy    <       1.31673037 Ry

     iteration #  8     ecut=    60.00 Ry     beta= 0.50
     Davidson diagonalization with overlap
     ethr =  1.33E-04,  avg # of iterations =  1.0

     negative rho (up, down):  9.040E-02 0.000E+00

     total cpu time spent up to now is      398.2 secs

     total energy              =   -3711.71459118 Ry
     Harris-Foulkes estimate   =   -3711.72218271 Ry
     estimated scf accuracy    <       0.60076434 Ry

     iteration #  9     ecut=    60.00 Ry     beta= 0.50
     Davidson diagonalization with overlap
     ethr =  1.32E-04,  avg # of iterations =  1.0

     negative rho (up, down):  9.043E-02 0.000E+00

     total cpu time spent up to now is      439.1 secs

     total energy              =   -3711.70516902 Ry
     Harris-Foulkes estimate   =   -3711.71654183 Ry
     estimated scf accuracy    <       0.32063533 Ry

     iteration # 10     ecut=    60.00 Ry     beta= 0.50
     Davidson diagonalization with overlap
     c_bands:  1 eigenvalues not converged
     c_bands:  3 eigenvalues not converged
     ethr =  7.03E-05,  avg # of iterations =  5.3

     negative rho (up, down):  9.036E-02 0.000E+00

     total cpu time spent up to now is      491.8 secs

     total energy              =   -3711.70069158 Ry
     Harris-Foulkes estimate   =   -3711.70766455 Ry
     estimated scf accuracy    <       0.17882957 Ry

     iteration # 11     ecut=    60.00 Ry     beta= 0.50
     Davidson diagonalization with overlap
     ethr =  3.92E-05,  avg # of iterations =  6.8

     negative rho (up, down):  9.087E-02 0.000E+00

     total cpu time spent up to now is      549.0 secs

     total energy              =   -3711.69736711 Ry
     Harris-Foulkes estimate   =   -3711.70202452 Ry
     estimated scf accuracy    <       0.08205582 Ry

     iteration # 12     ecut=    60.00 Ry     beta= 0.50
     Davidson diagonalization with overlap
     ethr =  1.80E-05,  avg # of iterations =  7.3

     negative rho (up, down):  9.043E-02 0.000E+00

     total cpu time spent up to now is      607.8 secs

     total energy              =   -3711.69707521 Ry
     Harris-Foulkes estimate   =   -3711.69892853 Ry
     estimated scf accuracy    <       0.03161146 Ry

     iteration # 13     ecut=    60.00 Ry     beta= 0.50
     Davidson diagonalization with overlap
     ethr =  6.93E-06,  avg # of iterations =  6.1

     negative rho (up, down):  1.063E-01 0.000E+00

     total cpu time spent up to now is      662.2 secs

     total energy              =   -3711.69518722 Ry
     Harris-Foulkes estimate   =   -3711.69785994 Ry
     estimated scf accuracy    <       0.03036259 Ry

     iteration # 14     ecut=    60.00 Ry     beta= 0.50
     Davidson diagonalization with overlap
     ethr =  6.66E-06,  avg # of iterations = 10.3

     negative rho (up, down):  1.182E-01 0.000E+00

     total cpu time spent up to now is      732.7 secs

     total energy              =   -3711.69377687 Ry
     Harris-Foulkes estimate   =   -3711.69553441 Ry
     estimated scf accuracy    <       0.01360302 Ry

     iteration # 15     ecut=    60.00 Ry     beta= 0.50
     Davidson diagonalization with overlap
     ethr =  2.98E-06,  avg # of iterations =  9.9

     negative rho (up, down):  1.319E-01 0.000E+00

     total cpu time spent up to now is      800.9 secs

     total energy              =   -3711.69213278 Ry
     Harris-Foulkes estimate   =   -3711.69399468 Ry
     estimated scf accuracy    <       0.01071484 Ry

     iteration # 16     ecut=    60.00 Ry     beta= 0.50
     Davidson diagonalization with overlap
     c_bands:  1 eigenvalues not converged
     ethr =  2.35E-06,  avg # of iterations = 10.5

     negative rho (up, down):  1.327E-01 0.000E+00

     total cpu time spent up to now is      872.5 secs

     total energy              =   -3711.69019211 Ry
     Harris-Foulkes estimate   =   -3711.69227940 Ry
     estimated scf accuracy    <       0.00923316 Ry

     iteration # 17     ecut=    60.00 Ry     beta= 0.50
     Davidson diagonalization with overlap
     ethr =  2.02E-06,  avg # of iterations = 12.2

     negative rho (up, down):  1.311E-01 0.000E+00

     total cpu time spent up to now is      951.3 secs

     total energy              =   -3711.68939506 Ry
     Harris-Foulkes estimate   =   -3711.69041250 Ry
     estimated scf accuracy    <       0.00435462 Ry

     iteration # 18     ecut=    60.00 Ry     beta= 0.50
     Davidson diagonalization with overlap
     ethr =  9.55E-07,  avg # of iterations = 10.6

     negative rho (up, down):  1.156E-01 0.000E+00

     total cpu time spent up to now is     1025.1 secs

     total energy              =   -3711.68888008 Ry
     Harris-Foulkes estimate   =   -3711.68948972 Ry
     estimated scf accuracy    <       0.00142284 Ry

     iteration # 19     ecut=    60.00 Ry     beta= 0.50
     Davidson diagonalization with overlap
     ethr =  3.12E-07,  avg # of iterations =  5.8

     negative rho (up, down):  1.098E-01 0.000E+00

     total cpu time spent up to now is     1082.9 secs

     total energy              =   -3711.68877946 Ry
     Harris-Foulkes estimate   =   -3711.68892175 Ry
     estimated scf accuracy    <       0.00071695 Ry

     iteration # 20     ecut=    60.00 Ry     beta= 0.50
     Davidson diagonalization with overlap
     ethr =  1.57E-07,  avg # of iterations =  2.6

     negative rho (up, down):  9.807E-02 0.000E+00

     total cpu time spent up to now is     1128.1 secs

     total energy              =   -3711.68865842 Ry
     Harris-Foulkes estimate   =   -3711.68881122 Ry
     estimated scf accuracy    <       0.00048037 Ry

     iteration # 21     ecut=    60.00 Ry     beta= 0.50
     Davidson diagonalization with overlap
     c_bands:  1 eigenvalues not converged
     c_bands:  1 eigenvalues not converged
     c_bands:  1 eigenvalues not converged
     c_bands:  1 eigenvalues not converged
     c_bands:  1 eigenvalues not converged
     c_bands:  1 eigenvalues not converged
     ethr =  1.05E-07,  avg # of iterations = 13.1

     negative rho (up, down):  9.283E-02 0.000E+00

     total cpu time spent up to now is     1205.5 secs

     total energy              =   -3711.68866629 Ry
     Harris-Foulkes estimate   =   -3711.68867382 Ry
     estimated scf accuracy    <       0.00015654 Ry

     iteration # 22     ecut=    60.00 Ry     beta= 0.50
     Davidson diagonalization with overlap
     c_bands:  1 eigenvalues not converged
     c_bands:  1 eigenvalues not converged
     c_bands:  1 eigenvalues not converged
     c_bands:  1 eigenvalues not converged
     c_bands:  1 eigenvalues not converged
     ethr =  3.43E-08,  avg # of iterations = 11.1

     negative rho (up, down):  9.184E-02 0.000E+00

     total cpu time spent up to now is     1275.9 secs

     total energy              =   -3711.68869684 Ry
     Harris-Foulkes estimate   =   -3711.68867222 Ry
     estimated scf accuracy    <       0.00003309 Ry

     iteration # 23     ecut=    60.00 Ry     beta= 0.50
     Davidson diagonalization with overlap
     c_bands:  1 eigenvalues not converged
     c_bands:  1 eigenvalues not converged
     c_bands:  1 eigenvalues not converged
     ethr =  7.26E-09,  avg # of iterations =  8.2

     negative rho (up, down):  9.203E-02 0.000E+00

     total cpu time spent up to now is     1337.1 secs

     total energy              =   -3711.68869917 Ry
     Harris-Foulkes estimate   =   -3711.68869903 Ry
     estimated scf accuracy    <       0.00001493 Ry

     iteration # 24     ecut=    60.00 Ry     beta= 0.50
     Davidson diagonalization with overlap
     c_bands:  1 eigenvalues not converged
     ethr =  3.27E-09,  avg # of iterations =  2.6

     negative rho (up, down):  9.214E-02 0.000E+00

     total cpu time spent up to now is     1386.2 secs

     total energy              =   -3711.68869985 Ry
     Harris-Foulkes estimate   =   -3711.68869998 Ry
     estimated scf accuracy    <       0.00000156 Ry

     iteration # 25     ecut=    60.00 Ry     beta= 0.50
     Davidson diagonalization with overlap
     ethr =  3.43E-10,  avg # of iterations =  3.4

     negative rho (up, down):  9.219E-02 0.000E+00

     total cpu time spent up to now is     1445.2 secs

     total energy              =   -3711.68870010 Ry
     Harris-Foulkes estimate   =   -3711.68870018 Ry
     estimated scf accuracy    <       0.00000271 Ry

     iteration # 26     ecut=    60.00 Ry     beta= 0.50
     Davidson diagonalization with overlap
     ethr =  3.43E-10,  avg # of iterations =  1.0

     negative rho (up, down):  9.227E-02 0.000E+00

     total cpu time spent up to now is     1486.2 secs

     total energy              =   -3711.68869994 Ry
     Harris-Foulkes estimate   =   -3711.68870011 Ry
     estimated scf accuracy    <       0.00000172 Ry

     iteration # 27     ecut=    60.00 Ry     beta= 0.50
     Davidson diagonalization with overlap
     ethr =  3.43E-10,  avg # of iterations =  1.0

     negative rho (up, down):  9.233E-02 0.000E+00

     total cpu time spent up to now is     1527.4 secs

     total energy              =   -3711.68869987 Ry
     Harris-Foulkes estimate   =   -3711.68869997 Ry
     estimated scf accuracy    <       0.00000143 Ry

     iteration # 28     ecut=    60.00 Ry     beta= 0.50
     Davidson diagonalization with overlap
     ethr =  3.14E-10,  avg # of iterations =  1.0

     negative rho (up, down):  9.232E-02 0.000E+00

     total cpu time spent up to now is     1568.9 secs

     total energy              =   -3711.68869987 Ry
     Harris-Foulkes estimate   =   -3711.68869988 Ry
     estimated scf accuracy    <       0.00000066 Ry

     iteration # 29     ecut=    60.00 Ry     beta= 0.50
     Davidson diagonalization with overlap
     ethr =  1.44E-10,  avg # of iterations =  1.0

     negative rho (up, down):  9.230E-02 0.000E+00

     total cpu time spent up to now is     1610.9 secs

     total energy              =   -3711.68869989 Ry
     Harris-Foulkes estimate   =   -3711.68869987 Ry
     estimated scf accuracy    <       0.00000036 Ry

     iteration # 30     ecut=    60.00 Ry     beta= 0.50
     Davidson diagonalization with overlap
     ethr =  7.80E-11,  avg # of iterations =  1.0

     negative rho (up, down):  9.228E-02 0.000E+00

     total cpu time spent up to now is     1653.5 secs

     total energy              =   -3711.68869993 Ry
     Harris-Foulkes estimate   =   -3711.68869989 Ry
     estimated scf accuracy    <       0.00000021 Ry

     iteration # 31     ecut=    60.00 Ry     beta= 0.50
     Davidson diagonalization with overlap
     ethr =  4.64E-11,  avg # of iterations =  1.0

     negative rho (up, down):  9.226E-02 0.000E+00

     total cpu time spent up to now is     1696.3 secs

     total energy              =   -3711.68869996 Ry
     Harris-Foulkes estimate   =   -3711.68869993 Ry
     estimated scf accuracy    <       0.00000004 Ry

     iteration # 32     ecut=    60.00 Ry     beta= 0.50
     Davidson diagonalization with overlap
     ethr =  8.29E-12,  avg # of iterations =  1.8

     negative rho (up, down):  9.225E-02 0.000E+00

     total cpu time spent up to now is     1739.6 secs

     total energy              =   -3711.68869997 Ry
     Harris-Foulkes estimate   =   -3711.68869996 Ry
     estimated scf accuracy    <       0.00000001 Ry

     iteration # 33     ecut=    60.00 Ry     beta= 0.50
     Davidson diagonalization with overlap
     ethr =  3.15E-12,  avg # of iterations =  1.2

     negative rho (up, down):  9.224E-02 0.000E+00

     total cpu time spent up to now is     1780.7 secs

     End of self-consistent calculation

          k = 0.0000 0.0000 0.0000 ( 69231 PWs)   bands (ev):

   -38.0436 -38.0198 -35.6722 -35.6396 -22.8197 -22.8152 -22.6913 -22.6869
   -22.5548 -22.5143 -22.3923 -22.2568 -18.5179 -18.4974 -18.4158 -18.3923
   -18.0470 -18.0230 -17.0193 -16.9872 -16.8855 -16.8554 -16.7024 -16.6682
   -15.4263 -15.4079 -14.9856 -14.9777 -14.7161 -14.6630 -14.5754 -14.5557
   -14.5456 -14.4951 -14.4682 -14.4578 -14.4524 -14.3786 -14.3031 -14.2859
   -14.1137 -14.0971 -13.9989 -13.9970 -13.9932 -13.9848 -13.9832 -13.9753
   -13.9069 -13.8653 -13.7198 -13.5904 -13.1583 -12.7563  -8.0579  -8.0531
    -7.9491  -7.9442  -7.8690  -7.8648  -7.8349  -7.7907  -7.7308  -7.7265
    -7.6891  -7.6344  -7.6302  -7.5575  -7.5566  -7.4929  -7.4885  -7.4519
    -7.4362  -7.3713  -7.3202  -7.2074  -7.1286  -7.0155  -2.9898  -2.9814
    -2.8365  -2.7868  -2.1748  -2.1724  -2.0873  -2.0856  -2.0563  -2.0429
    -1.9041  -1.8780  -1.8579  -1.8413  -1.8132  -1.7856  -1.7085  -1.6854
    -1.6721  -1.6716  -1.6452  -1.6205  -1.5418  -1.5175  -1.3507  -1.3384
    -1.1366  -1.1328  -1.1171  -1.1010  -1.0815  -0.9900  -0.9225  -0.9211
    -0.9194  -0.9177  -0.9020  -0.8944  -0.8758  -0.8729  -0.7869  -0.7481
    -0.6958  -0.6932  -0.5512  -0.4464  -0.4329  -0.4051  -0.3145  -0.2735
    -0.2732  -0.2564  -0.2540  -0.2299  -0.2121  -0.1919  -0.1627  -0.1373
    -0.1347  -0.1324  -0.1320  -0.1249  -0.1160  -0.0276  -0.0176   0.0346
     0.0413   0.0554   0.0595   0.0671   0.0895   0.0958   0.1452   0.1605
     0.1688   0.1756   0.1767   0.1774   0.2722   0.2750   0.3115   0.3143
     0.3573   0.3802   0.3878   0.4109   0.4150   0.4157   0.4645   0.4758
     0.5144   0.5824   0.5838   0.5987   0.6042   0.6072   0.6564   0.7612
     0.7736   0.8017   0.8275   0.9136   0.9763   1.0058   1.0399   1.0442
     1.0841   1.0932   1.1130   1.1286   1.2198   1.2489   1.2640   1.2682
     1.2732   1.2797   1.2889   1.3036   1.3817   1.3832   1.3980   1.4237
     1.4331   1.4715   1.4731   1.4844   1.5067   1.5122   1.6355   1.6537
     1.6896   1.7213   1.7672   1.7697   1.8410   1.8439   1.8610   1.8757
     1.8866   1.9036   1.9568   1.9671   1.9971   2.1130   2.1175   2.2758
     2.2998   2.3027   2.3719   2.4311   2.4350   2.4981   2.4999   2.5044
     2.6368   2.6502   2.6589   2.7323   2.9272   2.9459   5.2625   5.2869
     5.5518   6.0015   6.1777   6.6677   6.6868   6.8101   7.0378   7.3203
     7.3301   7.3870   7.4226   7.4253   7.6255   7.7198   8.0929   8.1220
     8.1809   8.2035   8.2255   8.3311   8.4493   8.5469   8.5977   8.6356
     8.6605   8.7058   8.9654   9.0953   9.1322   9.1639   9.3058   9.3371
     9.4685   9.4745

          k = 0.0000 0.2618 0.0000 ( 69249 PWs)   bands (ev):

   -38.0410 -38.0171 -35.6705 -35.6379 -22.7951 -22.7906 -22.6722 -22.6678
   -22.5311 -22.4940 -22.3734 -22.2364 -18.4792 -18.4587 -18.4086 -18.3850
   -18.1578 -18.1341 -16.9899 -16.9577 -16.8811 -16.8510 -16.7683 -16.7342
   -15.3203 -15.3021 -14.9295 -14.9217 -14.6685 -14.6248 -14.5715 -14.5522
   -14.4926 -14.4505 -14.4421 -14.4077 -14.3837 -14.3403 -14.2672 -14.2506
   -14.1090 -14.0940 -14.0627 -14.0432 -13.9894 -13.9815 -13.9748 -13.9711
   -13.9450 -13.9013 -13.7089 -13.6403 -13.1218 -12.8166  -8.0512  -8.0464
    -7.9623  -7.9576  -7.8403  -7.8253  -7.8211  -7.7881  -7.7734  -7.7687
    -7.7663  -7.7621  -7.6999  -7.6958  -7.6801  -7.5722  -7.5491  -7.4815
    -7.4729  -7.4314  -7.4207  -7.4053  -7.2208  -7.1586  -3.0923  -3.0779
    -2.8958  -2.8445  -2.2957  -2.2900  -2.2108  -2.1875  -2.1849  -2.1760
    -2.0636  -2.0607  -2.0075  -1.9896  -1.9047  -1.8765  -1.7455  -1.7052
    -1.6905  -1.6695  -1.6577  -1.6252  -1.6243  -1.6012  -1.4839  -1.4689
    -1.4677  -1.4487  -1.3684  -1.3646  -1.3481  -1.3362  -1.3360  -1.3325
    -1.2534  -1.2070  -0.9576  -0.8665  -0.8042  -0.7810  -0.7276  -0.7067
    -0.6985  -0.6232  -0.6130  -0.5695  -0.5131  -0.4959  -0.3484  -0.3471
    -0.3394  -0.3154  -0.3022  -0.2747  -0.2682  -0.2668  -0.2354  -0.2037
    -0.1695  -0.1610  -0.1507  -0.1369  -0.0945  -0.0929  -0.0519   0.0243
     0.0465   0.0609   0.0639   0.1510   0.1540   0.2057   0.2099   0.2263
     0.2291   0.2421   0.2467   0.2502   0.3039   0.3328   0.3377   0.3487
     0.3769   0.3826   0.4026   0.4057   0.4397   0.4411   0.4491   0.4696
     0.4890   0.5046   0.5081   0.5148   0.6733   0.7157   0.7185   0.8190
     0.8368   0.8479   0.8929   0.9004   1.0133   1.0223   1.0407   1.0605
     1.1433   1.1824   1.1936   1.1994   1.2584   1.2639   1.2700   1.2914
     1.3487   1.3640   1.3769   1.3838   1.4000   1.4487   1.4549   1.4554
     1.5033   1.5498   1.5551   1.5762   1.5800   1.5832   1.5937   1.6661
     1.7596   1.7783   1.7982   1.8177   1.8366   1.8499   1.8750   1.8873
     1.9113   1.9228   1.9234   1.9358   1.9666   2.0771   2.1060   2.1927
     2.2337   2.2900   2.5577   2.6471   2.8554   2.8613   2.8987   2.9349
     2.9899   2.9908   3.0172   3.0425   3.2129   3.2571   5.6528   5.6660
     5.8023   6.2774   6.3731   6.8951   7.0049   7.0119   7.1637   7.1670
     7.3650   7.5261   7.6273   7.6467   7.8067   7.8223   7.8359   7.9324
     8.2694   8.3130   8.4228   8.5002   8.6398   8.7491   8.7854   8.7929
     8.8525   8.9275   9.1380   9.2326   9.3002   9.3409   9.3852   9.3920
     9.4720   9.4840

          k = 0.0000 0.5236 0.0000 ( 69175 PWs)   bands (ev):

   -38.0344 -38.0106 -35.6664 -35.6338 -22.7346 -22.7301 -22.6253 -22.6210
   -22.4729 -22.4445 -22.3268 -22.1862 -18.3981 -18.3911 -18.3795 -18.3747
   -18.3675 -18.3589 -16.9209 -16.9070 -16.8864 -16.8754 -16.8707 -16.8406
   -15.0800 -15.0628 -14.7816 -14.7736 -14.6265 -14.6105 -14.5566 -14.5323
   -14.4504 -14.4333 -14.3431 -14.2563 -14.2294 -14.2201 -14.1858 -14.1792
   -14.1629 -14.1532 -14.0978 -14.0881 -14.0277 -13.9781 -13.9614 -13.9553
   -13.9240 -13.9202 -13.7486 -13.6992 -13.0285 -12.9575  -8.2384  -8.2340
    -8.0788  -8.0747  -8.0145  -8.0096  -7.9604  -7.9433  -7.9390  -7.8375
    -7.8333  -7.8224  -7.7976  -7.7930  -7.7560  -7.7084  -7.7042  -7.6484
    -7.6328  -7.5641  -7.5547  -7.3869  -7.3073  -7.2401  -3.4887  -3.4643
    -3.1390  -3.0893  -2.7836  -2.7741  -2.6087  -2.5731  -2.4090  -2.4042
    -2.2815  -2.2617  -2.2466  -2.2228  -2.2202  -2.1815  -2.1785  -2.1377
    -2.0386  -2.0357  -2.0284  -2.0255  -1.9248  -1.9054  -1.7480  -1.7268
    -1.6942  -1.6729  -1.6308  -1.6079  -1.5710  -1.5590  -1.5401  -1.5348
    -1.1821  -1.1595  -1.0742  -0.9539  -0.9471  -0.9100  -0.8639  -0.8497
    -0.7885  -0.7856  -0.7833  -0.7374  -0.6064  -0.6027  -0.5635  -0.5265
    -0.5236  -0.5123  -0.5041  -0.4806  -0.4614  -0.4584  -0.3879  -0.3711
    -0.3586  -0.3331  -0.3207  -0.3016  -0.2930  -0.2905  -0.2875  -0.2660
    -0.2208  -0.2142  -0.1542  -0.1171   0.0991   0.1151   0.2071   0.2113
     0.2416   0.2565   0.2617   0.2919   0.3178   0.3572   0.3620   0.3943
     0.4263   0.4621   0.4711   0.5574   0.6666   0.6777   0.6825   0.6942
     0.8257   0.8533   0.8828   0.8893   0.9289   1.0750   1.0940   1.1171
     1.1182   1.1321   1.1509   1.1673   1.2345   1.2551   1.3030   1.3061
     1.3160   1.3209   1.3241   1.3496   1.3525   1.4063   1.4490   1.4627
     1.4643   1.4832   1.4974   1.5120   1.5286   1.5685   1.5686   1.5903
     1.6362   1.6503   1.6825   1.7425   1.7515   1.7789   1.7830   1.8126
     1.8694   1.8727   1.8882   1.8913   1.9193   1.9329   1.9456   1.9600
     1.9998   2.0190   2.0238   2.0624   2.1009   2.1305   2.1336   2.1438
     2.2367   2.3590   2.4841   2.7389   3.1256   3.1410   3.1613   3.1799
     3.4955   3.4996   3.8738   3.8799   3.9760   3.9921   6.0752   6.5627
     6.5657   6.6821   6.6856   6.9916   7.0256   7.0650   7.1381   7.1705
     7.8626   7.8687   8.1786   8.2750   8.3021   8.4240   8.4780   8.4833
     8.6553   8.6952   8.7417   8.7894   8.7965   8.8120   8.8502   9.0029
     9.0959   9.2111   9.2694   9.3897   9.4504   9.4639   9.4908   9.5013
     9.5417   9.6372

          k = 0.0000 0.7854 0.0000 ( 69136 PWs)   bands (ev):

   -38.0279 -38.0041 -35.6623 -35.6297 -22.6722 -22.6677 -22.5774 -22.5730
   -22.4131 -22.3940 -22.2791 -22.1344 -18.6067 -18.5837 -18.3737 -18.3500
   -18.2738 -18.2529 -17.0430 -17.0087 -16.8603 -16.8336 -16.8302 -16.8019
   -14.8593 -14.8503 -14.7326 -14.7098 -14.6038 -14.5945 -14.5245 -14.5004
   -14.4572 -14.4475 -14.3127 -14.2642 -14.2000 -14.1497 -14.1236 -14.1104
   -14.0925 -14.0564 -14.0554 -14.0346 -13.9994 -13.9727 -13.9092 -13.9044
   -13.8780 -13.8741 -13.8447 -13.7442 -13.0903 -12.9266  -8.6334  -8.6291
    -8.3739  -8.3697  -8.3395  -8.1806  -8.0624  -8.0181  -8.0132  -7.9490
    -7.9442  -7.9115  -7.9067  -7.9024  -7.8453  -7.7429  -7.6632  -7.6218
    -7.5873  -7.5830  -7.5674  -7.3779  -7.2761  -7.1542  -3.9744  -3.9497
    -3.5436  -3.4976  -3.1892  -3.1810  -2.9777  -2.9343  -2.8023  -2.7968
    -2.7940  -2.7317  -2.7283  -2.7013  -2.5529  -2.5499  -2.4075  -2.3829
    -2.2930  -2.2689  -2.1452  -2.1432  -2.0782  -2.0765  -1.8314  -1.7959
    -1.7577  -1.7301  -1.6913  -1.6740  -1.6076  -1.5949  -1.4303  -1.4164
    -1.4060  -1.1813  -1.1703  -1.1382  -1.0698  -1.0314  -1.0259  -1.0144
    -0.9564  -0.9512  -0.9091  -0.9034  -0.8377  -0.8164  -0.7768  -0.7376
    -0.7297  -0.7224  -0.6825  -0.6770  -0.6728  -0.6682  -0.6386  -0.6283
    -0.5856  -0.5394  -0.5364  -0.5018  -0.4745  -0.4702  -0.4668  -0.3560
    -0.2853  -0.1499  -0.1468  -0.0926   0.0322   0.0673   0.0950   0.1551
     0.2441   0.2674   0.2743   0.2795   0.3290   0.3565   0.3616   0.4233
     0.4803   0.5840   0.6017   0.6312   0.8394   0.8900   0.9127   0.9322
     1.0434   1.0615   1.1195   1.1251   1.1482   1.1537   1.2550   1.2656
     1.2880   1.3214   1.3268   1.3614   1.3705   1.3851   1.3894   1.4585
     1.4659   1.4743   1.5179   1.5231   1.5927   1.5970   1.6217   1.6574
     1.6759   1.7125   1.7611   1.7630   1.7713   1.7727   1.7863   1.8102
     1.8167   1.8419   1.8640   1.8664   1.8725   1.8898   1.9343   1.9370
     1.9848   1.9912   1.9934   2.0412   2.0689   2.0970   2.1054   2.1173
     2.1402   2.2894   2.3100   2.3132   2.3397   2.3546   2.3613   2.4736
     2.5346   2.5378   2.5607   2.6513   2.9710   2.9921   3.0715   3.0946
     3.6180   3.7027   4.5160   4.5247   4.5721   4.5835   5.9051   6.1515
     6.1546   6.7831   6.8254   7.4678   7.4904   7.5363   7.8600   7.9095
     8.4755   8.4994   8.5230   8.5795   8.6611   8.6980   8.7500   8.8461
     8.8597   8.8944   8.9655   9.0965   9.1113   9.1868   9.2735   9.3037
     9.3391   9.3478   9.4335   9.4345   9.4997   9.5905   9.6596   9.6689
     9.7205   9.7371

          k = 0.0000-1.0472 0.0000 ( 69278 PWs)   bands (ev):

   -38.0252 -38.0014 -35.6606 -35.6280 -22.6458 -22.6413 -22.5572 -22.5528
   -22.3878 -22.3728 -22.2590 -22.1125 -18.6873 -18.6643 -18.3664 -18.3428
   -18.2266 -18.2056 -17.0934 -17.0590 -16.8560 -16.8259 -16.7980 -16.7662
   -14.8635 -14.8541 -14.6705 -14.6554 -14.5899 -14.5590 -14.5061 -14.4926
   -14.4323 -14.4306 -14.3611 -14.2822 -14.1939 -14.1371 -14.1164 -14.0804
   -14.0786 -14.0593 -13.9644 -13.9271 -13.9154 -13.9102 -13.8958 -13.8789
   -13.8748 -13.8668 -13.8603 -13.8562 -13.1422 -12.8814  -8.7867  -8.7824
    -8.4930  -8.4927  -8.4884  -8.3270  -8.1734  -8.0287  -8.0236  -8.0186
    -7.9428  -7.9380  -7.9342  -7.9300  -7.8543  -7.7323  -7.6886  -7.6293
    -7.5648  -7.5347  -7.5304  -7.4019  -7.2273  -7.1131  -4.1766  -4.1525
    -3.7301  -3.6850  -3.3451  -3.3379  -3.1343  -3.0817  -3.0329  -3.0276
    -3.0026  -2.9618  -2.9584  -2.9172  -2.5815  -2.5786  -2.4283  -2.4188
    -2.4014  -2.3932  -2.1675  -2.1657  -2.0654  -2.0637  -1.8941  -1.8655
    -1.8513  -1.8324  -1.7033  -1.6513  -1.5399  -1.5230  -1.5098  -1.2738
    -1.2666  -1.2573  -1.2532  -1.2419  -1.1511  -1.1291  -1.1202  -1.1105
    -0.9960  -0.9943  -0.9921  -0.9834  -0.9827  -0.9734  -0.8470  -0.8332
    -0.7904  -0.7724  -0.7705  -0.7704  -0.7665  -0.7513  -0.7373  -0.7232
    -0.6800  -0.6285  -0.6255  -0.5805  -0.5548  -0.4411  -0.4214  -0.3329
    -0.2934  -0.1138  -0.1107  -0.0628  -0.0152   0.0024   0.0094   0.0454
     0.1901   0.2787   0.2804   0.2854   0.3460   0.3478   0.3604   0.4287
     0.5160   0.6424   0.6473   0.6663   0.9061   0.9419   0.9530   1.0234
     1.0811   1.1162   1.1261   1.1908   1.2416   1.2483   1.2869   1.2910
     1.2962   1.3400   1.4203   1.4317   1.4374   1.4487   1.4564   1.4620
     1.4784   1.4896   1.5035   1.5587   1.6511   1.6668   1.7159   1.7262
     1.7382   1.7820   1.7878   1.8012   1.8213   1.8833   1.8963   1.9020
     1.9709   1.9866   1.9986   2.0013   2.0105   2.0162   2.0192   2.0495
     2.1065   2.1122   2.1184   2.2191   2.2421   2.2494   2.2806   2.2849
     2.2857   2.2976   2.3374   2.3554   2.4840   2.5135   2.5167   2.5730
     2.6165   2.6980   2.7012   2.7246   2.7350   2.7645   2.8995   2.9278
     3.5899   3.7184   4.7163   4.7286   4.7879   4.7967   5.7863   5.9119
     5.9150   6.6603   6.7195   7.8891   7.8925   7.9175   8.1272   8.2794
     8.4295   8.4403   8.4677   8.4814   8.7498   8.8145   8.8958   8.8964
     8.9976   9.0775   9.0787   9.1477   9.2002   9.2095   9.3040   9.3209
     9.3997   9.4364   9.4591   9.4796   9.4977   9.6926   9.7196   9.8139
     9.8580   9.9728

          k = 0.1250 0.0000 0.0000 ( 69249 PWs)   bands (ev):

   -38.0436 -38.0198 -35.6722 -35.6396 -22.8152 -22.8107 -22.6961 -22.6917
   -22.5516 -22.5128 -22.3958 -22.2586 -18.5172 -18.4967 -18.4126 -18.3890
   -18.0470 -18.0230 -17.0223 -16.9902 -16.8975 -16.8676 -16.7024 -16.6682
   -15.3988 -15.3804 -14.9705 -14.9630 -14.7071 -14.6544 -14.5898 -14.5684
   -14.5537 -14.5178 -14.5131 -14.4659 -14.4597 -14.3839 -14.2728 -14.2629
   -14.1067 -14.0911 -14.0035 -13.9954 -13.9953 -13.9868 -13.9854 -13.9765
   -13.9120 -13.8693 -13.7193 -13.5958 -13.1449 -12.7730  -8.0601  -8.0553
    -7.9534  -7.9485  -7.8552  -7.8510  -7.8358  -7.7939  -7.7226  -7.7182
    -7.6994  -7.6410  -7.6368  -7.5673  -7.5378  -7.5022  -7.4979  -7.4403
    -7.4288  -7.3715  -7.3159  -7.2157  -7.1328  -7.0204  -2.9549  -2.9465
    -2.8033  -2.7533  -2.1710  -2.1684  -2.1062  -2.1041  -2.0525  -2.0393
    -1.9307  -1.9021  -1.8557  -1.8392  -1.8328  -1.8013  -1.7186  -1.7083
    -1.6930  -1.6794  -1.6636  -1.6332  -1.5227  -1.4973  -1.3925  -1.3787
    -1.1335  -1.1080  -1.0818  -1.0601  -1.0466  -0.9772  -0.9332  -0.9206
    -0.9195  -0.9172  -0.9162  -0.9053  -0.8689  -0.8472  -0.7439  -0.7004
    -0.6758  -0.6732  -0.5432  -0.4399  -0.4167  -0.4016  -0.3311  -0.3063
    -0.2978  -0.2794  -0.2520  -0.2365  -0.1990  -0.1966  -0.1864  -0.1854
    -0.1687  -0.1562  -0.1535  -0.1308  -0.0916  -0.0912  -0.0790   0.0283
     0.0399   0.0490   0.0543   0.0640   0.0859   0.0980   0.1135   0.1198
     0.2209   0.2224   0.2266   0.2282   0.2739   0.2768   0.3105   0.3134
     0.3449   0.3731   0.4147   0.4161   0.4215   0.4499   0.4739   0.4855
     0.5206   0.5771   0.5786   0.5918   0.6145   0.6284   0.6584   0.7574
     0.7722   0.7802   0.8068   0.9058   0.9568   0.9755   1.0013   1.0405
     1.0837   1.0914   1.1285   1.1395   1.1720   1.2180   1.2194   1.2337
     1.2461   1.2654   1.2999   1.3057   1.3213   1.3505   1.3932   1.4544
     1.4775   1.4874   1.4997   1.5216   1.5245   1.5398   1.6264   1.6423
     1.7500   1.7715   1.7772   1.7909   1.8464   1.8555   1.8616   1.8750
     1.9082   1.9213   1.9371   1.9678   1.9873   2.0999   2.1047   2.2651
     2.2866   2.2898   2.3371   2.4342   2.4502   2.4736   2.5000   2.5212
     2.6446   2.6571   2.6640   2.7320   2.9220   2.9401   5.3162   5.3354
     5.6000   6.0534   6.2093   6.7184   6.7430   6.8166   6.9639   6.9666
     7.0902   7.3686   7.5980   7.6824   7.7941   7.8003   8.0554   8.0950
     8.1821   8.2046   8.2078   8.3642   8.4962   8.5416   8.6346   8.6886
     8.7285   8.7542   8.9158   9.0227   9.0986   9.1680   9.2808   9.3380
     9.4566   9.4996

          k = 0.1250 0.2618 0.0000 ( 69223 PWs)   bands (ev):

   -38.0410 -38.0171 -35.6705 -35.6379 -22.7908 -22.7863 -22.6767 -22.6723
   -22.5281 -22.4926 -22.3766 -22.2380 -18.4786 -18.4580 -18.4054 -18.3818
   -18.1578 -18.1341 -16.9927 -16.9606 -16.8926 -16.8626 -16.7682 -16.7341
   -15.2936 -15.2754 -14.9164 -14.9089 -14.6605 -14.6170 -14.5777 -14.5586
   -14.5005 -14.4570 -14.4471 -14.4434 -14.4379 -14.3451 -14.2320 -14.2240
   -14.1031 -14.0892 -14.0644 -14.0458 -13.9904 -13.9821 -13.9770 -13.9728
   -13.9486 -13.9041 -13.7111 -13.6415 -13.1112 -12.8287  -8.0531  -8.0483
    -7.9683  -7.9637  -7.8813  -7.8771  -7.8417  -7.8086  -7.8044  -7.7897
    -7.7109  -7.7063  -7.6890  -7.6535  -7.6493  -7.5867  -7.5692  -7.5346
    -7.4671  -7.4262  -7.3993  -7.3788  -7.1965  -7.1383  -3.0563  -3.0418
    -2.8601  -2.8088  -2.3043  -2.2984  -2.2142  -2.1815  -2.1792  -2.1731
    -2.0718  -2.0681  -2.0110  -1.9938  -1.9203  -1.8936  -1.7724  -1.7361
    -1.7345  -1.6898  -1.6750  -1.6694  -1.6201  -1.5949  -1.4821  -1.4705
    -1.4503  -1.4322  -1.3638  -1.3600  -1.3383  -1.3344  -1.3163  -1.3057
    -1.2293  -1.1825  -0.9540  -0.8670  -0.8148  -0.7897  -0.7201  -0.6923
    -0.6882  -0.6343  -0.5984  -0.5806  -0.5404  -0.5325  -0.3829  -0.3756
    -0.3439  -0.3186  -0.3118  -0.3011  -0.2875  -0.2762  -0.2605  -0.2351
    -0.2144  -0.1652  -0.1134  -0.1012  -0.0777  -0.0693  -0.0462   0.0231
     0.0415   0.0578   0.0617   0.1284   0.1301   0.2080   0.2113   0.2137
     0.2263   0.2271   0.2626   0.2784   0.3044   0.3409   0.3494   0.3506
     0.3611   0.3833   0.3922   0.4137   0.4376   0.4388   0.4458   0.4776
     0.4971   0.5050   0.5254   0.5340   0.6911   0.6966   0.7000   0.8169
     0.8333   0.8584   0.9093   0.9170   0.9956   1.0055   1.0638   1.0895
     1.1460   1.1593   1.1729   1.1989   1.2502   1.2657   1.2788   1.2990
     1.3080   1.3274   1.3580   1.3646   1.4209   1.4384   1.4594   1.4605
     1.4635   1.4729   1.5184   1.5755   1.5869   1.6454   1.6531   1.6569
     1.7534   1.7650   1.7984   1.8195   1.8364   1.8478   1.8592   1.8750
     1.8792   1.8981   1.9296   1.9551   2.0167   2.1002   2.1785   2.2083
     2.2971   2.3932   2.5627   2.6559   2.8507   2.8584   2.9027   2.9365
     2.9857   2.9959   3.0157   3.0420   3.2055   3.2489   5.6922   5.7029
     5.8357   6.3176   6.4013   6.8872   6.9974   7.0007   7.0590   7.0643
     7.4149   7.5515   7.6720   7.7033   7.8059   7.8557   7.9553   7.9809
     8.2818   8.3073   8.4024   8.5263   8.6600   8.7228   8.7787   8.8359
     8.8921   8.9689   9.0977   9.1788   9.2397   9.2835   9.3440   9.3948
     9.4350   9.4391

          k = 0.1250 0.5236 0.0000 ( 69170 PWs)   bands (ev):

   -38.0344 -38.0106 -35.6664 -35.6338 -22.7308 -22.7263 -22.6293 -22.6249
   -22.4703 -22.4433 -22.3296 -22.1875 -18.3980 -18.3880 -18.3789 -18.3747
   -18.3644 -18.3583 -16.9224 -16.9081 -16.8883 -16.8808 -16.8761 -16.8507
   -15.0554 -15.0383 -14.7740 -14.7666 -14.6245 -14.6085 -14.5513 -14.5262
   -14.4505 -14.4334 -14.3532 -14.2730 -14.2633 -14.2518 -14.2092 -14.1923
   -14.1291 -14.1160 -14.0989 -14.0906 -14.0272 -13.9762 -13.9599 -13.9531
   -13.9255 -13.9216 -13.7499 -13.6990 -13.0257 -12.9599  -8.2722  -8.2679
    -8.0339  -8.0293  -8.0020  -7.9973  -7.9854  -7.9499  -7.9455  -7.9058
    -7.9015  -7.8440  -7.8082  -7.7682  -7.7218  -7.6571  -7.6522  -7.6520
    -7.6230  -7.6054  -7.5579  -7.3631  -7.3509  -7.1841  -3.4531  -3.4287
    -3.1017  -3.0521  -2.7934  -2.7831  -2.6115  -2.5759  -2.4038  -2.3990
    -2.2793  -2.2593  -2.2435  -2.2238  -2.2212  -2.1812  -2.1782  -2.1401
    -2.0393  -2.0365  -2.0273  -2.0245  -1.8917  -1.8729  -1.7911  -1.7666
    -1.6967  -1.6832  -1.6250  -1.6157  -1.6044  -1.5843  -1.5562  -1.5273
    -1.1888  -1.1673  -1.0815  -0.9601  -0.9584  -0.9166  -0.8740  -0.8565
    -0.8195  -0.8075  -0.7471  -0.7132  -0.6629  -0.6576  -0.5997  -0.5735
    -0.5653  -0.5494  -0.5037  -0.4849  -0.4555  -0.4517  -0.4080  -0.3769
    -0.3710  -0.3323  -0.3164  -0.3055  -0.2973  -0.2868  -0.2758  -0.2430
    -0.2152  -0.2085  -0.1501  -0.1196   0.1402   0.1522   0.2000   0.2125
     0.2153   0.2285   0.2714   0.2931   0.3119   0.3394   0.3806   0.3912
     0.4259   0.4836   0.4933   0.5492   0.6528   0.6726   0.7217   0.7381
     0.8158   0.8466   0.8972   0.9041   0.9419   1.0523   1.0782   1.1100
     1.1344   1.1491   1.1541   1.1701   1.2129   1.2169   1.2558   1.2619
     1.2974   1.3199   1.3462   1.3767   1.3953   1.4071   1.4191   1.4312
     1.4658   1.4750   1.4959   1.5235   1.5296   1.5777   1.6015   1.6221
     1.6311   1.6551   1.6831   1.7021   1.7336   1.7578   1.7719   1.8023
     1.8192   1.8405   1.8596   1.8810   1.8869   1.8961   1.9221   1.9633
     1.9816   2.0263   2.0869   2.1209   2.1263   2.2077   2.2457   2.2556
     2.3455   2.4799   2.5027   2.7651   3.1268   3.1420   3.1620   3.1814
     3.4915   3.5039   3.8414   3.8477   3.9479   3.9640   6.0965   6.5782
     6.5812   6.6897   6.6935   7.0085   7.0442   7.0724   7.1658   7.1939
     7.9112   7.9167   8.2117   8.2679   8.3259   8.4160   8.4662   8.4728
     8.5942   8.6181   8.7498   8.7978   8.8034   8.8357   8.8413   9.0100
     9.0975   9.1965   9.2653   9.3527   9.4182   9.4520   9.4744   9.4960
     9.5994   9.6369

          k = 0.1250 0.7854 0.0000 ( 69162 PWs)   bands (ev):

   -38.0279 -38.0041 -35.6623 -35.6297 -22.6690 -22.6645 -22.5807 -22.5763
   -22.4110 -22.3931 -22.2814 -22.1354 -18.6067 -18.5836 -18.3706 -18.3470
   -18.2733 -18.2524 -17.0430 -17.0087 -16.8697 -16.8396 -16.8358 -16.8040
   -14.8429 -14.8345 -14.7165 -14.6927 -14.6032 -14.5948 -14.5193 -14.4966
   -14.4580 -14.4471 -14.3136 -14.2645 -14.1997 -14.1689 -14.1323 -14.1266
   -14.1175 -14.0673 -14.0519 -14.0310 -13.9943 -13.9660 -13.9081 -13.9033
   -13.8789 -13.8748 -13.8418 -13.7472 -13.0844 -12.9332  -8.6237  -8.6194
    -8.3319  -8.3278  -8.3276  -8.1722  -8.0239  -8.0168  -8.0124  -7.9538
    -7.9498  -7.9495  -7.9452  -7.8766  -7.8429  -7.7440  -7.6973  -7.6246
    -7.6022  -7.5980  -7.5709  -7.4229  -7.2938  -7.1638  -3.9375  -3.9131
    -3.5087  -3.4628  -3.2041  -3.1953  -2.9857  -2.9426  -2.7997  -2.7944
    -2.7915  -2.7342  -2.7308  -2.7037  -2.5391  -2.5361  -2.3953  -2.3697
    -2.2635  -2.2407  -2.1468  -2.1447  -2.0771  -2.0753  -1.8229  -1.7885
    -1.7378  -1.7170  -1.7065  -1.6741  -1.6391  -1.6163  -1.5149  -1.4963
    -1.3790  -1.1885  -1.1741  -1.1617  -1.0807  -1.0472  -1.0224  -1.0156
    -0.9931  -0.9753  -0.9361  -0.9294  -0.9181  -0.8966  -0.7649  -0.7568
    -0.7544  -0.7135  -0.6955  -0.6757  -0.6679  -0.6585  -0.6476  -0.6242
    -0.5871  -0.5438  -0.5390  -0.4881  -0.4567  -0.4489  -0.4433  -0.3413
    -0.2881  -0.1607  -0.1572  -0.0985   0.0865   0.1159   0.1534   0.2019
     0.2208   0.2414   0.2665   0.2849   0.3171   0.3778   0.3863   0.3938
     0.4682   0.6155   0.6309   0.6474   0.8123   0.8838   0.9082   0.9477
     1.0373   1.0569   1.1075   1.1406   1.1549   1.1579   1.2439   1.2823
     1.3104   1.3137   1.3277   1.3363   1.3552   1.3683   1.3849   1.4489
     1.4590   1.4669   1.5031   1.5113   1.5752   1.6107   1.6212   1.6480
     1.6660   1.6810   1.7281   1.7455   1.7695   1.7971   1.8019   1.8219
     1.8296   1.8609   1.8630   1.8909   1.8990   1.9240   1.9385   1.9402
     1.9470   1.9873   2.0207   2.0504   2.0838   2.1080   2.1354   2.1962
     2.2132   2.2633   2.3191   2.3212   2.3240   2.3943   2.4447   2.4704
     2.5265   2.5296   2.5981   2.6784   2.9731   2.9937   3.0753   3.1007
     3.6172   3.7053   4.4514   4.4603   4.5145   4.5261   5.9480   6.2066
     6.2099   6.8123   6.8554   7.4377   7.4576   7.5075   7.8501   7.8973
     8.3799   8.4078   8.4890   8.6196   8.6592   8.6809   8.7837   8.8644
     8.8729   8.9373   9.0032   9.1226   9.1361   9.1982   9.2757   9.3207
     9.3469   9.3791   9.4355   9.4879   9.5001   9.6113   9.6197   9.6543
     9.7273   9.7609

          k = 0.1250-1.0472 0.0000 ( 69250 PWs)   bands (ev):

   -38.0252 -38.0014 -35.6606 -35.6280 -22.6429 -22.6384 -22.5602 -22.5559
   -22.3859 -22.3720 -22.2610 -22.1133 -18.6873 -18.6643 -18.3635 -18.3398
   -18.2261 -18.2051 -17.0934 -17.0591 -16.8651 -16.8350 -16.7999 -16.7682
   -14.8523 -14.8429 -14.6466 -14.6315 -14.5875 -14.5600 -14.4932 -14.4797
   -14.4554 -14.4484 -14.3531 -14.2771 -14.1873 -14.1479 -14.1275 -14.0977
   -14.0767 -14.0724 -13.9700 -13.9420 -13.9170 -13.9159 -13.8843 -13.8784
   -13.8743 -13.8670 -13.8612 -13.8572 -13.1333 -12.8924  -8.7565  -8.7521
    -8.4641  -8.4622  -8.4579  -8.2983  -8.1443  -8.0198  -8.0151  -8.0003
    -7.9693  -7.9650  -7.9457  -7.9409  -7.8520  -7.7324  -7.7207  -7.6276
    -7.5785  -7.5743  -7.5673  -7.4326  -7.2675  -7.1532  -4.1386  -4.1148
    -3.6956  -3.6505  -3.3617  -3.3538  -3.1435  -3.0917  -3.0303  -3.0255
    -3.0020  -2.9645  -2.9611  -2.9195  -2.5648  -2.5617  -2.4126  -2.3917
    -2.3846  -2.3676  -2.1698  -2.1681  -2.0663  -2.0646  -1.8862  -1.8523
    -1.8182  -1.7971  -1.7134  -1.6529  -1.5946  -1.5362  -1.4492  -1.3760
    -1.3620  -1.3161  -1.2982  -1.2354  -1.2247  -1.1627  -1.1073  -1.0889
    -1.0747  -1.0686  -1.0110  -1.0004  -0.9763  -0.9638  -0.8587  -0.8552
    -0.8059  -0.7806  -0.7660  -0.7585  -0.7492  -0.7477  -0.7323  -0.7004
    -0.6860  -0.6339  -0.6297  -0.5828  -0.5292  -0.4166  -0.4017  -0.3122
    -0.2975  -0.1274  -0.1243  -0.0685   0.0520   0.0752   0.0879   0.0976
     0.1918   0.2383   0.2507   0.2956   0.3496   0.3672   0.3699   0.3923
     0.5058   0.6343   0.6926   0.7164   0.8715   0.9706   0.9805   0.9808
     1.0740   1.1055   1.1443   1.1579   1.2098   1.2559   1.2845   1.2964
     1.3039   1.3479   1.4012   1.4151   1.4478   1.4565   1.4592   1.4648
     1.4818   1.4991   1.5228   1.5437   1.5497   1.6014   1.6966   1.7195
     1.7707   1.7825   1.8101   1.8906   1.8909   1.9076   1.9090   1.9613
     1.9727   1.9982   2.0066   2.0077   2.0139   2.0331   2.0505   2.0907
     2.0961   2.1151   2.1215   2.2251   2.2366   2.2632   2.2696   2.2782
     2.2881   2.3328   2.3386   2.4284   2.4717   2.5203   2.5235   2.5676
     2.5772   2.6907   2.6939   2.7007   2.7396   2.7680   2.9081   2.9400
     3.5894   3.7248   4.6376   4.6497   4.7134   4.7227   5.8367   5.9799
     5.9831   6.6920   6.7510   7.7967   7.7996   7.8252   8.1459   8.2640
     8.2886   8.2937   8.4247   8.4729   8.8075   8.9099   8.9441   9.0066
     9.0534   9.1321   9.1552   9.2080   9.2103   9.2449   9.3358   9.3699
     9.3929   9.4557   9.4926   9.5012   9.5368   9.6981   9.7511   9.8032
     9.8693   9.9942

          k = 0.2500 0.0000 0.0000 ( 69201 PWs)   bands (ev):

   -38.0436 -38.0198 -35.6722 -35.6396 -22.8026 -22.7981 -22.7094 -22.7051
   -22.5433 -22.5090 -22.4047 -22.2629 -18.5154 -18.4950 -18.4047 -18.3812
   -18.0470 -18.0230 -17.0294 -16.9974 -16.9259 -16.8962 -16.7024 -16.6682
   -15.3247 -15.3066 -14.9334 -14.9269 -14.7004 -14.6417 -14.6396 -14.6292
   -14.5864 -14.5670 -14.5071 -14.4854 -14.4779 -14.3996 -14.2348 -14.2264
   -14.0897 -14.0763 -14.0092 -13.9999 -13.9983 -13.9913 -13.9904 -13.9798
   -13.9234 -13.8780 -13.7181 -13.6088 -13.1060 -12.8196  -8.0649  -8.0601
    -7.9609  -7.9561  -7.8384  -7.8221  -7.8180  -7.8013  -7.7182  -7.6989
    -7.6946  -7.6601  -7.6559  -7.5806  -7.5284  -7.5241  -7.5042  -7.4180
    -7.4077  -7.3707  -7.3051  -7.2390  -7.1439  -7.0330  -2.8541  -2.8455
    -2.7084  -2.6578  -2.1900  -2.1857  -2.1425  -2.1401  -2.0431  -2.0303
    -2.0147  -1.9673  -1.9251  -1.8992  -1.8493  -1.8331  -1.7399  -1.7116
    -1.7075  -1.6971  -1.6945  -1.6361  -1.4786  -1.4615  -1.4510  -1.4461
    -1.1236  -1.0824  -1.0472  -0.9823  -0.9627  -0.9487  -0.9393  -0.9180
    -0.9145  -0.9140  -0.9105  -0.8943  -0.7983  -0.7754  -0.6996  -0.6478
    -0.6168  -0.6142  -0.5265  -0.4557  -0.4260  -0.4216  -0.3647  -0.3500
    -0.3011  -0.2987  -0.2970  -0.2786  -0.2587  -0.2452  -0.2236  -0.2163
    -0.2056  -0.2045  -0.1984  -0.1980  -0.1646  -0.1211  -0.0727   0.0100
     0.0232   0.0376   0.0426   0.0535   0.0645   0.0792   0.0899   0.1218
     0.2596   0.2764   0.2792   0.2809   0.2970   0.2998   0.3243   0.3276
     0.3277   0.3608   0.4276   0.4353   0.4810   0.4835   0.5105   0.5202
     0.5207   0.5619   0.5652   0.5979   0.6218   0.6620   0.6638   0.7323
     0.7470   0.7657   0.7704   0.8829   0.9096   0.9321   0.9934   1.0293
     1.0577   1.0798   1.0820   1.0889   1.1272   1.1426   1.1636   1.2005
     1.2618   1.2699   1.3060   1.3257   1.3413   1.3545   1.4056   1.4449
     1.4899   1.4909   1.4972   1.5785   1.5856   1.5940   1.6074   1.6197
     1.7265   1.7629   1.7759   1.8196   1.8240   1.8560   1.8639   1.8657
     1.8843   1.9486   1.9932   2.0507   2.0648   2.0707   2.1344   2.2439
     2.2446   2.2633   2.2755   2.4071   2.4425   2.4797   2.5100   2.5543
     2.6665   2.6736   2.6790   2.7292   2.9010   2.9180   5.4617   5.4715
     5.7339   6.2021   6.3016   6.5779   6.5809   6.7477   6.9074   6.9153
     7.2430   7.4171   7.4799   7.5624   8.0173   8.0350   8.0682   8.1144
     8.1849   8.2075   8.2988   8.4443   8.4709   8.5063   8.6665   8.7680
     8.8075   8.8407   8.8922   8.9689   9.0332   9.1670   9.2478   9.4093
     9.4767   9.5509

          k = 0.2500 0.2618 0.0000 ( 69198 PWs)   bands (ev):

   -38.0409 -38.0171 -35.6705 -35.6379 -22.7788 -22.7743 -22.6894 -22.6851
   -22.5203 -22.4892 -22.3850 -22.2420 -18.4769 -18.4564 -18.3976 -18.3740
   -18.1578 -18.1341 -16.9995 -16.9675 -16.9196 -16.8899 -16.7680 -16.7339
   -15.2212 -15.2032 -14.8839 -14.8776 -14.6477 -14.6044 -14.6008 -14.5850
   -14.5504 -14.5317 -14.4719 -14.4598 -14.4469 -14.3584 -14.1953 -14.1863
   -14.0907 -14.0784 -14.0677 -14.0520 -13.9931 -13.9831 -13.9826 -13.9775
   -13.9549 -13.9092 -13.7169 -13.6440 -13.0807 -12.8630  -8.0595  -8.0547
    -7.9884  -7.9840  -7.9349  -7.9306  -7.8550  -7.8498  -7.8448  -7.7941
    -7.7185  -7.6372  -7.6330  -7.6144  -7.5953  -7.5942  -7.5896  -7.5723
    -7.5018  -7.4594  -7.3402  -7.3203  -7.1498  -7.0977  -2.9522  -2.9373
    -2.7585  -2.7071  -2.3398  -2.3324  -2.2303  -2.1905  -2.1579  -2.1534
    -2.0973  -2.0912  -2.0196  -2.0037  -1.9676  -1.9440  -1.8708  -1.8350
    -1.8214  -1.7910  -1.6786  -1.6641  -1.6212  -1.5856  -1.4801  -1.4699
    -1.4157  -1.3953  -1.3580  -1.3532  -1.3410  -1.3374  -1.2338  -1.2238
    -1.1528  -1.1076  -0.9411  -0.8701  -0.8374  -0.8077  -0.7284  -0.6981
    -0.6968  -0.6418  -0.6383  -0.6066  -0.5566  -0.5395  -0.5278  -0.4973
    -0.4187  -0.4022  -0.3394  -0.3146  -0.3022  -0.2818  -0.2530  -0.2447
    -0.2052  -0.1542  -0.0956  -0.0876  -0.0524  -0.0472  -0.0241   0.0266
     0.0363   0.0573   0.0702   0.0741   0.0855   0.1853   0.2023   0.2064
     0.2147   0.2218   0.2335   0.2745   0.3132   0.3523   0.3705   0.3802
     0.3828   0.3867   0.4142   0.4286   0.4391   0.4432   0.4536   0.4872
     0.4944   0.5250   0.5712   0.5903   0.6517   0.6567   0.7406   0.7992
     0.8198   0.8634   0.9366   0.9458   0.9766   0.9817   1.0887   1.1203
     1.1573   1.1853   1.1907   1.2048   1.2139   1.2191   1.2473   1.2663
     1.2800   1.2966   1.3262   1.3533   1.3787   1.3842   1.4176   1.4454
     1.4923   1.4964   1.5321   1.5685   1.5732   1.6386   1.7085   1.7216
     1.7223   1.7308   1.7492   1.7693   1.7881   1.7936   1.8128   1.8340
     1.8451   1.9343   1.9470   1.9589   2.0348   2.1806   2.3620   2.3972
     2.4468   2.5457   2.5763   2.6903   2.8342   2.8472   2.9140   2.9417
     2.9795   3.0012   3.0087   3.0376   3.1760   3.2186   5.8036   5.8095
     5.9253   6.4337   6.4872   6.7144   6.7177   6.8520   7.2171   7.2225
     7.5271   7.5405   7.5724   7.7368   7.9076   7.9430   8.1322   8.1368
     8.2872   8.3222   8.4581   8.5885   8.6396   8.6692   8.8015   8.8699
     8.8904   8.9785   9.0107   9.1018   9.1296   9.2471   9.2843   9.3357
     9.3564   9.3698

          k = 0.2500 0.5236 0.0000 ( 69170 PWs)   bands (ev):

   -38.0344 -38.0106 -35.6664 -35.6338 -22.7203 -22.7158 -22.6403 -22.6360
   -22.4636 -22.4406 -22.3367 -22.1907 -18.3979 -18.3804 -18.3775 -18.3745
   -18.3569 -18.3568 -16.9269 -16.9107 -16.9040 -16.8934 -16.8790 -16.8731
   -14.9886 -14.9721 -14.7573 -14.7511 -14.6196 -14.6036 -14.5386 -14.5095
   -14.4514 -14.4340 -14.4050 -14.3667 -14.2867 -14.2601 -14.2203 -14.2032
   -14.1121 -14.1052 -14.1027 -14.0887 -14.0173 -13.9677 -13.9560 -13.9471
   -13.9297 -13.9257 -13.7533 -13.6983 -13.0178 -12.9668  -8.3076  -8.3033
    -8.0545  -8.0502  -8.0178  -8.0133  -8.0127  -7.9548  -7.9503  -7.8737
    -7.8703  -7.8675  -7.8127  -7.7763  -7.7392  -7.6508  -7.6282  -7.6092
    -7.6051  -7.5982  -7.5699  -7.3567  -7.3146  -7.1398  -3.3524  -3.3283
    -2.9988  -2.9499  -2.8281  -2.8149  -2.6229  -2.5866  -2.3863  -2.3818
    -2.2695  -2.2481  -2.2358  -2.2285  -2.2259  -2.1791  -2.1762  -2.1464
    -2.0468  -2.0436  -2.0241  -2.0214  -1.8904  -1.8645  -1.8312  -1.7949
    -1.7928  -1.7712  -1.6843  -1.6356  -1.5536  -1.5328  -1.5273  -1.5051
    -1.2228  -1.2020  -1.1000  -1.0047  -0.9858  -0.9471  -0.9177  -0.8798
    -0.8628  -0.8434  -0.8358  -0.8204  -0.7702  -0.7520  -0.6773  -0.6467
    -0.5639  -0.5441  -0.4911  -0.4735  -0.4389  -0.4346  -0.4071  -0.3840
    -0.3651  -0.3465  -0.3245  -0.3050  -0.2970  -0.2776  -0.2582  -0.2155
    -0.2069  -0.1966  -0.1416  -0.1258   0.0585   0.0738   0.1810   0.2025
     0.2206   0.2626   0.2941   0.2999   0.3025   0.3833   0.4363   0.4490
     0.4963   0.5061   0.5587   0.5649   0.6240   0.6507   0.7924   0.8162
     0.8284   0.8405   0.9233   0.9327   0.9704   1.0170   1.0493   1.0979
     1.1121   1.1339   1.1453   1.1572   1.1773   1.1813   1.2021   1.2231
     1.2810   1.3002   1.3114   1.3156   1.3343   1.4390   1.4454   1.4567
     1.4938   1.5094   1.5237   1.5332   1.5362   1.5912   1.6022   1.6202
     1.6370   1.6546   1.6617   1.6899   1.7022   1.7220   1.7443   1.7504
     1.7813   1.7980   1.8172   1.8530   1.8670   1.9072   1.9083   1.9369
     1.9597   2.0465   2.0956   2.0977   2.2053   2.3478   2.4344   2.5339
     2.5786   2.6101   2.7747   2.8869   3.1295   3.1443   3.1660   3.1890
     3.4868   3.5089   3.7399   3.7467   3.8583   3.8745   6.1493   6.6188
     6.6219   6.7073   6.7114   7.0451   7.0926   7.1141   7.2217   7.2558
     8.0468   8.0511   8.2071   8.2251   8.4043   8.4152   8.4302   8.4711
     8.4747   8.5184   8.7211   8.8013   8.8203   8.8697   8.9028   9.0357
     9.1216   9.1796   9.2769   9.3295   9.3638   9.3721   9.4222   9.4763
     9.5866   9.6081

          k = 0.2500 0.7854 0.0000 ( 69176 PWs)   bands (ev):

   -38.0279 -38.0041 -35.6623 -35.6297 -22.6602 -22.6556 -22.5899 -22.5856
   -22.4055 -22.3910 -22.2871 -22.1378 -18.6066 -18.5836 -18.3633 -18.3396
   -18.2720 -18.2511 -17.0429 -17.0086 -16.8921 -16.8622 -16.8409 -16.8092
   -14.8016 -14.7945 -14.6680 -14.6418 -14.6129 -14.6064 -14.5028 -14.4838
   -14.4530 -14.4391 -14.3176 -14.2649 -14.2343 -14.1963 -14.1899 -14.1524
   -14.1487 -14.0857 -14.0392 -14.0271 -13.9890 -13.9613 -13.9048 -13.9001
   -13.8815 -13.8771 -13.8342 -13.7550 -13.0675 -12.9517  -8.5838  -8.5795
    -8.2862  -8.2226  -8.2184  -8.1366  -8.0809  -8.0766  -8.0016  -7.9968
    -7.9565  -7.9518  -7.9246  -7.8403  -7.8060  -7.7883  -7.7408  -7.6584
    -7.6541  -7.6219  -7.5794  -7.5177  -7.3514  -7.2091  -3.8346  -3.8112
    -3.4138  -3.3689  -3.2520  -3.2408  -3.0124  -2.9692  -2.7926  -2.7874
    -2.7844  -2.7413  -2.7379  -2.7102  -2.4950  -2.4917  -2.3544  -2.3253
    -2.1790  -2.1650  -2.1542  -2.1461  -2.0726  -2.0706  -1.8254  -1.7961
    -1.7890  -1.7369  -1.7252  -1.6927  -1.6695  -1.6439  -1.6205  -1.5957
    -1.3316  -1.3239  -1.3099  -1.1928  -1.1654  -1.1537  -1.1345  -1.0738
    -1.0508  -1.0221  -1.0160  -0.9936  -0.9149  -0.9047  -0.7661  -0.7176
    -0.7082  -0.7042  -0.6984  -0.6804  -0.6506  -0.6399  -0.6320  -0.6042
    -0.5731  -0.5544  -0.5433  -0.4872  -0.4375  -0.4191  -0.3983  -0.3199
    -0.2939  -0.1952  -0.1891  -0.1185   0.0029   0.0231   0.1864   0.2322
     0.2842   0.3000   0.3267   0.3428   0.4087   0.4328   0.4437   0.4497
     0.4869   0.5809   0.7413   0.7506   0.7677   0.8066   0.9556   0.9879
     1.0309   1.0470   1.0539   1.1137   1.1908   1.2158   1.2269   1.2482
     1.2693   1.2776   1.3055   1.3333   1.3759   1.3825   1.4111   1.4257
     1.4381   1.4568   1.4853   1.4949   1.5701   1.5788   1.5927   1.6061
     1.6435   1.6806   1.7035   1.7556   1.7700   1.7847   1.7992   1.8227
     1.8306   1.8495   1.8685   1.8775   1.8887   1.9102   1.9298   1.9432
     1.9481   1.9655   2.0053   2.0547   2.0867   2.0972   2.1288   2.1665
     2.2783   2.3445   2.3477   2.3907   2.4986   2.5025   2.5061   2.5641
     2.5913   2.6226   2.7654   2.8279   2.9797   2.9984   3.1030   3.1400
     3.6174   3.7097   4.2599   4.2693   4.3438   4.3558   6.0640   6.3627
     6.3667   6.8921   6.9381   7.3349   7.3471   7.4127   7.7996   7.8392
     8.2465   8.2784   8.4604   8.6337   8.6564   8.6653   8.7868   8.8506
     8.9705   8.9887   9.0297   9.1574   9.2460   9.2574   9.2891   9.3572
     9.3861   9.4305   9.4892   9.5158   9.5488   9.5953   9.6297   9.7012
     9.8411   9.8557

          k = 0.2500-1.0472 0.0000 ( 69140 PWs)   bands (ev):

   -38.0252 -38.0014 -35.6606 -35.6280 -22.6348 -22.6302 -22.5686 -22.5643
   -22.3810 -22.3701 -22.2662 -22.1155 -18.6872 -18.6642 -18.3562 -18.3325
   -18.2249 -18.2039 -17.0934 -17.0591 -16.8867 -16.8568 -16.8048 -16.7731
   -14.8201 -14.8106 -14.5904 -14.5816 -14.5733 -14.5667 -14.4957 -14.4807
   -14.4578 -14.4448 -14.3452 -14.2698 -14.1784 -14.1695 -14.1585 -14.1471
   -14.1261 -14.0547 -14.0057 -13.9387 -13.9359 -13.9168 -13.8769 -13.8766
   -13.8728 -13.8674 -13.8637 -13.8597 -13.1075 -12.9232  -8.6697  -8.6653
    -8.3816  -8.3734  -8.3692  -8.2193  -8.0674  -8.0632  -8.0606  -8.0094
    -8.0047  -7.9543  -7.9496  -7.9197  -7.8459  -7.8109  -7.7328  -7.6987
    -7.6944  -7.6225  -7.5753  -7.5165  -7.3773  -7.2629  -4.0331  -4.0105
    -3.6016  -3.5573  -3.4137  -3.4035  -3.1742  -3.1238  -3.0229  -3.0187
    -2.9991  -2.9723  -2.9688  -2.9259  -2.5118  -2.5085  -2.3610  -2.3290
    -2.3126  -2.2917  -2.1772  -2.1752  -2.0667  -2.0648  -1.8646  -1.8333
    -1.7615  -1.7261  -1.7150  -1.6578  -1.6354  -1.6118  -1.5863  -1.5849
    -1.5225  -1.4596  -1.3743  -1.3586  -1.3263  -1.2522  -1.2300  -1.1533
    -1.0985  -1.0672  -1.0492  -1.0454  -0.9228  -0.9103  -0.8367  -0.8045
    -0.7838  -0.7834  -0.7814  -0.7574  -0.7376  -0.7186  -0.6867  -0.6730
    -0.6456  -0.6416  -0.6356  -0.5854  -0.4708  -0.4004  -0.3958  -0.3141
    -0.2971  -0.1708  -0.1665  -0.0922  -0.0239  -0.0015   0.1898   0.2407
     0.2778   0.2969   0.3280   0.3382   0.3948   0.4027   0.4177   0.4552
     0.4877   0.5972   0.7842   0.8297   0.8530   0.8724   1.0502   1.0595
     1.0773   1.1045   1.1098   1.1636   1.2326   1.2738   1.2875   1.2978
     1.3033   1.3221   1.3371   1.3645   1.3951   1.4510   1.4612   1.4635
     1.4710   1.4848   1.5019   1.5259   1.6213   1.6335   1.6416   1.6569
     1.7127   1.7236   1.8183   1.8281   1.9049   1.9143   1.9193   1.9238
     1.9688   1.9803   1.9872   1.9989   2.0163   2.0212   2.0562   2.0675
     2.1173   2.1692   2.1869   2.2537   2.2582   2.2617   2.2730   2.3008
     2.4359   2.4433   2.4778   2.4972   2.5395   2.5427   2.5464   2.6475
     2.6538   2.6702   2.6734   2.6795   2.7556   2.7792   2.9754   3.0205
     3.5927   3.7367   4.4081   4.4201   4.4997   4.5101   5.9765   6.1724
     6.1760   6.7791   6.8380   7.5485   7.5517   7.5854   7.9882   8.0213
     8.1946   8.3103   8.4090   8.4712   8.9202   8.9478   9.0514   9.0730
     9.2424   9.2452   9.2707   9.3231   9.3533   9.3726   9.3863   9.4702
     9.4715   9.5065   9.5607   9.6405   9.6872   9.7069   9.7777   9.7999
     9.8560  10.0063

          k = 0.3750 0.0000 0.0000 ( 69222 PWs)   bands (ev):

   -38.0436 -38.0198 -35.6722 -35.6396 -22.7844 -22.7799 -22.7283 -22.7240
   -22.5337 -22.5051 -22.4149 -22.2674 -18.5136 -18.4932 -18.3967 -18.3731
   -18.0470 -18.0230 -17.0365 -17.0045 -16.9534 -16.9240 -16.7024 -16.6683
   -15.2293 -15.2120 -14.9123 -14.9038 -14.7420 -14.7074 -14.6577 -14.6391
   -14.5967 -14.5798 -14.5151 -14.4990 -14.4795 -14.4239 -14.2141 -14.2025
   -14.0734 -14.0621 -14.0122 -14.0048 -14.0033 -13.9981 -13.9941 -13.9841
   -13.9331 -13.8852 -13.7173 -13.6219 -13.0464 -12.8869  -8.0691  -8.0642
    -7.9665  -7.9618  -7.8414  -7.8078  -7.7819  -7.7778  -7.7321  -7.6888
    -7.6846  -7.6641  -7.6597  -7.5914  -7.5659  -7.5617  -7.4708  -7.4093
    -7.3781  -7.3616  -7.2936  -7.2702  -7.1569  -7.0467  -2.6986  -2.6902
    -2.5678  -2.5168  -2.3217  -2.3159  -2.1814  -2.1296  -2.1133  -2.0923
    -2.0329  -2.0205  -2.0037  -1.9993  -1.8412  -1.8255  -1.7313  -1.7285
    -1.7156  -1.7055  -1.6867  -1.6473  -1.5134  -1.4972  -1.4320  -1.4012
    -1.1126  -1.0837  -1.0177  -0.9959  -0.9158  -0.9125  -0.9123  -0.9092
    -0.9090  -0.8415  -0.8299  -0.8235  -0.7245  -0.6961  -0.6698  -0.6691
    -0.5625  -0.5305  -0.5278  -0.5187  -0.4468  -0.4234  -0.4160  -0.3971
    -0.3948  -0.3680  -0.3493  -0.3136  -0.3056  -0.2970  -0.2947  -0.2918
    -0.2433  -0.2253  -0.2005  -0.1870  -0.1192  -0.1164  -0.0660  -0.0131
    -0.0083   0.0134   0.0219   0.0290   0.0328   0.0772   0.0895   0.1156
     0.2297   0.2710   0.2831   0.2858   0.2968   0.2996   0.3618   0.3889
     0.3987   0.4008   0.4593   0.4752   0.4806   0.5131   0.5251   0.5312
     0.5407   0.5649   0.5935   0.6027   0.6098   0.6595   0.6930   0.7435
     0.7589   0.7730   0.7779   0.8475   0.8534   0.8729   0.9217   0.9247
     0.9655   0.9847   1.0718   1.0886   1.0972   1.1613   1.2299   1.2439
     1.2870   1.3014   1.3357   1.3697   1.3862   1.3964   1.4096   1.4234
     1.4958   1.5058   1.5119   1.5437   1.5492   1.5881   1.5899   1.5992
     1.6142   1.7068   1.7406   1.7584   1.7714   1.8909   1.8957   1.9415
     1.9658   1.9915   2.0193   2.0206   2.0209   2.0678   2.1909   2.2194
     2.2288   2.2904   2.3127   2.3197   2.4548   2.4964   2.5454   2.5952
     2.6713   2.6986   2.7169   2.7320   2.8558   2.8728   5.6707   5.6752
     5.9057   6.2317   6.2347   6.4022   6.4426   6.6722   7.1501   7.1624
     7.2354   7.2654   7.4836   7.6857   7.8741   7.8789   8.1430   8.1878
     8.2044   8.2103   8.2753   8.4135   8.4834   8.5225   8.6083   8.6703
     8.9369   8.9535   9.0006   9.1004   9.1302   9.1502   9.2308   9.3050
     9.3677   9.4989

          k = 0.3750 0.2618 0.0000 ( 69210 PWs)   bands (ev):

   -38.0409 -38.0171 -35.6705 -35.6379 -22.7616 -22.7571 -22.7073 -22.7030
   -22.5113 -22.4856 -22.3946 -22.2462 -18.4752 -18.4547 -18.3897 -18.3661
   -18.1578 -18.1341 -17.0063 -16.9743 -16.9460 -16.9165 -16.7679 -16.7338
   -15.1264 -15.1093 -14.8620 -14.8549 -14.6808 -14.6456 -14.6361 -14.6135
   -14.5615 -14.5494 -14.4910 -14.4755 -14.4283 -14.3790 -14.1765 -14.1644
   -14.0831 -14.0708 -14.0702 -14.0587 -13.9956 -13.9871 -13.9839 -13.9823
   -13.9588 -13.9117 -13.7234 -13.6460 -13.0343 -12.9131  -8.0694  -8.0646
    -8.0138  -8.0094  -7.9616  -7.9573  -7.8779  -7.8733  -7.8505  -7.7987
    -7.7509  -7.6285  -7.6156  -7.5953  -7.5849  -7.5807  -7.5538  -7.5495
    -7.5234  -7.4868  -7.2987  -7.2763  -7.1124  -7.0639  -2.7930  -2.7780
    -2.6091  -2.5582  -2.4355  -2.4246  -2.2891  -2.2349  -2.1415  -2.1359
    -2.1220  -2.1162  -2.0414  -2.0182  -2.0154  -2.0020  -1.9848  -1.9684
    -1.8587  -1.8329  -1.6763  -1.6609  -1.6252  -1.5767  -1.4771  -1.4710
    -1.3830  -1.3629  -1.3527  -1.3456  -1.3430  -1.3420  -1.1193  -1.1054
    -1.0270  -0.9892  -0.9197  -0.8864  -0.8534  -0.8450  -0.8128  -0.8034
    -0.7018  -0.6754  -0.6732  -0.6594  -0.6353  -0.6011  -0.5602  -0.5444
    -0.5276  -0.4780  -0.3802  -0.3443  -0.3200  -0.2734  -0.2302  -0.2072
    -0.1969  -0.1337  -0.1084  -0.0758  -0.0552  -0.0479  -0.0274   0.0054
     0.0137   0.0359   0.0441   0.1043   0.1091   0.1711   0.1879   0.1899
     0.1990   0.2376   0.2483   0.2694   0.3165   0.3315   0.3894   0.3977
     0.4247   0.4276   0.4363   0.4395   0.4512   0.4565   0.4627   0.4776
     0.5188   0.5440   0.5756   0.5857   0.6506   0.6967   0.7652   0.7780
     0.7965   0.8669   0.9538   0.9614   0.9857   0.9962   1.0566   1.0752
     1.1009   1.1119   1.1659   1.1713   1.2414   1.2790   1.2894   1.2984
     1.3004   1.3076   1.3204   1.3265   1.3577   1.3772   1.4265   1.4410
     1.5200   1.5333   1.5437   1.5675   1.5773   1.6213   1.6310   1.6602
     1.6642   1.6822   1.6964   1.6984   1.7311   1.8035   1.8055   1.8170
     1.8394   1.8443   1.9665   1.9964   2.1338   2.2507   2.5359   2.5467
     2.5680   2.5846   2.7363   2.7875   2.8010   2.8217   2.9318   2.9520
     2.9676   2.9884   2.9993   3.0381   3.1116   3.1564   5.9718   5.9754
     6.0310   6.4363   6.4392   6.5966   6.6306   6.8000   7.3088   7.3373
     7.4730   7.4785   7.7977   7.9462   7.9679   8.0144   8.1034   8.1095
     8.3092   8.3476   8.4983   8.5643   8.6319   8.6606   8.7415   8.7740
     8.8971   8.9077   8.9637   9.1602   9.1999   9.2278   9.2599   9.2605
     9.3027   9.3267

          k = 0.3750 0.5236 0.0000 ( 69127 PWs)   bands (ev):

   -38.0344 -38.0106 -35.6664 -35.6338 -22.7055 -22.7009 -22.6556 -22.6513
   -22.4561 -22.4378 -22.3446 -22.1939 -18.3978 -18.3761 -18.3744 -18.3727
   -18.3555 -18.3491 -16.9324 -16.9288 -16.9101 -16.9008 -16.8979 -16.8770
   -14.9005 -14.8855 -14.7492 -14.7439 -14.6139 -14.5976 -14.5386 -14.4924
   -14.4664 -14.4539 -14.4528 -14.4362 -14.2852 -14.2675 -14.2277 -14.2129
   -14.1362 -14.1229 -14.0946 -14.0758 -14.0029 -13.9562 -13.9517 -13.9413
   -13.9349 -13.9308 -13.7572 -13.6973 -13.0061 -12.9774  -8.3058  -8.3015
    -8.1682  -8.1639  -8.0171  -8.0121  -8.0072  -7.9494  -7.9450  -7.8731
    -7.8641  -7.8042  -7.7641  -7.7628  -7.7585  -7.7063  -7.6428  -7.6120
    -7.6079  -7.5791  -7.4936  -7.3195  -7.2751  -7.1418  -3.2071  -3.1841
    -2.9108  -2.8951  -2.8506  -2.8013  -2.6533  -2.6142  -2.3531  -2.3491
    -2.2479  -2.2430  -2.2397  -2.2243  -2.2127  -2.1722  -2.1690  -2.1537
    -2.0844  -2.0800  -2.0273  -2.0170  -2.0161  -1.9749  -1.9621  -1.9583
    -1.6747  -1.6484  -1.6276  -1.6198  -1.4987  -1.4868  -1.4545  -1.4292
    -1.2902  -1.2675  -1.1864  -1.1693  -1.1232  -1.0666  -0.9961  -0.9597
    -0.9455  -0.9037  -0.8653  -0.8347  -0.8134  -0.8005  -0.6221  -0.6110
    -0.5942  -0.5550  -0.5124  -0.4806  -0.4183  -0.4129  -0.3882  -0.3711
    -0.3605  -0.3404  -0.3386  -0.3050  -0.2922  -0.2676  -0.2352  -0.2155
    -0.2020  -0.1944  -0.1398  -0.1322  -0.0800  -0.0515   0.1761   0.1938
     0.2386   0.2845   0.3152   0.3612   0.3685   0.4396   0.4654   0.4799
     0.5554   0.5614   0.5962   0.6140   0.6508   0.6652   0.7792   0.8267
     0.8752   0.9070   0.9484   0.9707   0.9942   1.0213   1.0310   1.0495
     1.0725   1.0889   1.1280   1.1335   1.1381   1.1398   1.1668   1.1865
     1.2234   1.2402   1.2655   1.3564   1.3662   1.4020   1.4249   1.4757
     1.4933   1.5090   1.5408   1.5806   1.5906   1.5955   1.6022   1.6119
     1.6191   1.6298   1.6440   1.6600   1.6778   1.6902   1.7015   1.7446
     1.7506   1.7590   1.7950   1.8155   1.8924   1.9010   1.9409   1.9660
     1.9709   2.0578   2.0583   2.0615   2.3136   2.3990   2.5106   2.5805
     2.9327   2.9461   3.0748   3.1014   3.1334   3.1466   3.2049   3.2449
     3.4793   3.5121   3.5622   3.5713   3.6975   3.7148   6.2044   6.6668
     6.6702   6.7207   6.7248   7.0664   7.1646   7.2015   7.2628   7.3101
     8.1233   8.1546   8.2247   8.2300   8.2851   8.3169   8.4099   8.4165
     8.5983   8.6864   8.7077   8.7939   8.8201   8.9819   9.0159   9.0733
     9.1682   9.1863   9.2168   9.2297   9.2955   9.3567   9.3776   9.4121
     9.4381   9.4802

          k = 0.3750 0.7854 0.0000 ( 69176 PWs)   bands (ev):

   -38.0279 -38.0041 -35.6623 -35.6297 -22.6480 -22.6434 -22.6025 -22.5982
   -22.3995 -22.3889 -22.2934 -22.1403 -18.6065 -18.5835 -18.3558 -18.3321
   -18.2707 -18.2499 -17.0429 -17.0086 -16.9142 -16.8845 -16.8461 -16.8145
   -14.7505 -14.7443 -14.6452 -14.6395 -14.5955 -14.5671 -14.4804 -14.4676
   -14.4368 -14.4179 -14.3448 -14.2879 -14.2800 -14.2579 -14.2205 -14.1919
   -14.1475 -14.1059 -14.0243 -14.0207 -13.9890 -13.9668 -13.8998 -13.8951
   -13.8858 -13.8810 -13.8254 -13.7641 -13.0419 -12.9788  -8.5024  -8.4981
    -8.2300  -8.2257  -8.2076  -8.0774  -8.0732  -8.0705  -7.9926  -7.9877
    -7.9630  -7.9583  -7.9407  -7.8404  -7.7966  -7.7638  -7.7624  -7.7591
    -7.7329  -7.6143  -7.6021  -7.5298  -7.4467  -7.3002  -3.6927  -3.6715
    -3.3373  -3.3236  -3.2878  -3.2443  -3.0638  -3.0182  -2.7837  -2.7769
    -2.7737  -2.7520  -2.7485  -2.7183  -2.4159  -2.4122  -2.2735  -2.2370
    -2.1945  -2.1914  -2.0615  -2.0587  -2.0371  -2.0199  -1.9722  -1.9271
    -1.9161  -1.8813  -1.7041  -1.6785  -1.6649  -1.6434  -1.5692  -1.5582
    -1.5341  -1.5262  -1.4509  -1.3893  -1.2483  -1.2248  -1.1729  -1.0791
    -1.0606  -1.0389  -1.0291  -1.0124  -0.8536  -0.8404  -0.7820  -0.7498
    -0.7175  -0.7006  -0.6688  -0.6608  -0.6255  -0.6104  -0.5827  -0.5737
    -0.5616  -0.5408  -0.5226  -0.4860  -0.4374  -0.4139  -0.3595  -0.3131
    -0.3002  -0.2478  -0.2324  -0.1592  -0.1419  -0.1222   0.2074   0.2738
     0.2849   0.3694   0.4056   0.4340   0.4369   0.5228   0.5498   0.5689
     0.5973   0.6481   0.6650   0.6982   0.8819   0.9211   0.9789   1.0154
     1.0408   1.0593   1.0737   1.0892   1.1101   1.1414   1.1533   1.1977
     1.2085   1.2931   1.3265   1.3329   1.3984   1.4020   1.4142   1.4399
     1.4587   1.4682   1.4801   1.5035   1.5203   1.5404   1.5522   1.6062
     1.6283   1.6509   1.6715   1.7248   1.7363   1.7864   1.7983   1.8126
     1.8209   1.8453   1.8598   1.8674   1.8723   1.9009   1.9114   1.9215
     1.9371   1.9575   2.0006   2.0095   2.0444   2.0834   2.1164   2.1853
     2.2287   2.3804   2.3828   2.3855   2.4675   2.4708   2.5074   2.6128
     2.9220   2.9290   2.9847   3.0024   3.0904   3.1103   3.3037   3.3500
     3.6196   3.7117   3.9508   3.9617   4.0695   4.0822   6.2077   6.5932
     6.5988   6.9850   7.0316   7.1584   7.1667   7.2697   7.6930   7.7251
     8.1866   8.2206   8.4432   8.6400   8.6988   8.7040   8.7679   8.8089
     8.9362   8.9516   9.0519   9.1122   9.3115   9.3815   9.3946   9.4371
     9.4817   9.4937   9.5810   9.6034   9.6937   9.7090   9.7330   9.8302
     9.8750   9.9373

          k = 0.3750-1.0472 0.0000 ( 69214 PWs)   bands (ev):

   -38.0252 -38.0014 -35.6606 -35.6280 -22.6237 -22.6191 -22.5800 -22.5757
   -22.3756 -22.3683 -22.2718 -22.1177 -18.6871 -18.6641 -18.3487 -18.3251
   -18.2238 -18.2028 -17.0935 -17.0592 -16.9081 -16.8784 -16.8096 -16.7780
   -14.7720 -14.7621 -14.6261 -14.6175 -14.5110 -14.4953 -14.4939 -14.4810
   -14.4127 -14.4011 -14.3444 -14.2668 -14.2204 -14.2168 -14.2005 -14.1948
   -14.1432 -14.0508 -14.0282 -13.9637 -13.9247 -13.9177 -13.8796 -13.8742
   -13.8702 -13.8676 -13.8671 -13.8630 -13.0680 -12.9676  -8.5382  -8.5339
    -8.2582  -8.2353  -8.2310  -8.2101  -8.2059  -8.1153  -7.9946  -7.9899
    -7.9698  -7.9651  -7.9419  -7.9360  -7.8655  -7.8612  -7.8442  -7.7964
    -7.7327  -7.6253  -7.6158  -7.5875  -7.5214  -7.4137  -3.8897  -3.8694
    -3.5011  -3.4881  -3.4776  -3.4347  -3.2309  -3.1797  -3.0115  -3.0077
    -2.9938  -2.9838  -2.9804  -2.9337  -2.4207  -2.4169  -2.2631  -2.2251
    -2.1940  -2.1907  -2.1887  -2.1721  -2.0558  -2.0525  -1.9254  -1.8714
    -1.8424  -1.8219  -1.7740  -1.7503  -1.7298  -1.7015  -1.6931  -1.6589
    -1.6468  -1.5906  -1.5513  -1.5099  -1.2913  -1.2661  -1.2190  -1.1274
    -1.1049  -1.0866  -1.0820  -1.0766  -0.8678  -0.8440  -0.8396  -0.8320
    -0.8060  -0.7761  -0.7114  -0.7023  -0.6979  -0.6952  -0.6663  -0.6479
    -0.6371  -0.5946  -0.5927  -0.5563  -0.4558  -0.4241  -0.3840  -0.3175
    -0.3090  -0.2419  -0.2318  -0.1780  -0.1491  -0.1308   0.2243   0.3026
     0.3123   0.3945   0.4432   0.4659   0.4720   0.4915   0.5071   0.5390
     0.6047   0.6694   0.6718   0.7338   0.9875   1.0150   1.0356   1.1121
     1.1424   1.1439   1.1565   1.1618   1.1786   1.2000   1.2031   1.2709
     1.2953   1.3038   1.3144   1.3717   1.4212   1.4569   1.4756   1.4799
[...]
    -1.8713  -1.8472  -1.6739  -1.6611  -1.6267  -1.5729  -1.4741  -1.4731
    -1.3687  -1.3527  -1.3495  -1.3490  -1.3460  -1.3325  -1.0064  -0.9953
    -0.9865  -0.9526  -0.8849  -0.8728  -0.8712  -0.8641  -0.8512  -0.8046
    -0.7894  -0.7800  -0.7590  -0.7194  -0.6736  -0.6416  -0.5496  -0.5441
    -0.4799  -0.4524  -0.4180  -0.3870  -0.3461  -0.2724  -0.2229  -0.1932
    -0.1723  -0.1500  -0.1036  -0.0902  -0.0659  -0.0394  -0.0225  -0.0151
    -0.0143   0.0399   0.0540   0.1196   0.1270   0.1730   0.1807   0.1862
     0.1964   0.2486   0.2597   0.2656   0.3153   0.3247   0.3960   0.4033
     0.4345   0.4359   0.4487   0.4512   0.4616   0.4671   0.4846   0.4945
     0.5134   0.5189   0.5560   0.5800   0.6727   0.7238   0.7501   0.7816
     0.8424   0.8556   0.9488   0.9595   0.9940   1.0036   1.0094   1.0233
     1.0974   1.1025   1.1267   1.1320   1.2373   1.2927   1.2935   1.3159
     1.3246   1.3360   1.3645   1.3715   1.3758   1.4205   1.4602   1.4781
     1.4928   1.5037   1.5149   1.5313   1.5624   1.6068   1.6146   1.6211
     1.6241   1.6546   1.6735   1.6912   1.7054   1.7314   1.8310   1.8331
     1.8348   1.8373   1.9860   1.9991   2.2021   2.2373   2.5668   2.5857
     2.6431   2.6570   2.7513   2.7785   2.8532   2.8896   2.9472   2.9537
     2.9688   2.9709   2.9786   3.0429   3.0737   3.0836   6.0794   6.1773
     6.1800   6.1948   6.1979   6.6813   6.7418   6.7987   7.1664   7.2010
     7.7568   7.7624   7.8094   7.8152   8.0071   8.0178   8.0575   8.1835
     8.2362   8.3204   8.4370   8.4621   8.6325   8.6680   8.7716   8.7894
     8.9547   8.9598   8.9862   8.9991   9.1862   9.1976   9.2052   9.2623
     9.2817   9.3661

          k =-0.5000 0.5236 0.0000 ( 69170 PWs)   bands (ev):

   -38.0344 -38.0106 -35.6664 -35.6338 -22.6955 -22.6908 -22.6659 -22.6617
   -22.4526 -22.4366 -22.3482 -22.1953 -18.3977 -18.3755 -18.3744 -18.3695
   -18.3549 -18.3459 -16.9393 -16.9338 -16.9105 -16.9098 -16.9010 -16.8772
   -14.8432 -14.8303 -14.7607 -14.7543 -14.6097 -14.5932 -14.5602 -14.5103
   -14.4741 -14.4677 -14.4563 -14.4392 -14.2787 -14.2745 -14.2300 -14.2167
   -14.1490 -14.1334 -14.0910 -14.0716 -13.9968 -13.9499 -13.9463 -13.9460
   -13.9374 -13.9312 -13.7589 -13.6968 -12.9959 -12.9871  -8.2718  -8.2675
    -8.2426  -8.2384  -8.0165  -8.0115  -7.9736  -7.9488  -7.9444  -7.9401
    -7.8477  -7.8117  -7.7661  -7.7502  -7.6729  -7.6686  -7.6619  -7.6576
    -7.6413  -7.5802  -7.4324  -7.3442  -7.2071  -7.1776  -3.0829  -3.0615
    -3.0010  -2.9831  -2.7333  -2.7200  -2.6816  -2.6809  -2.3157  -2.3121
    -2.2761  -2.2723  -2.2268  -2.1810  -2.1649  -2.1563  -2.1525  -2.1465
    -2.1404  -2.1335  -2.1288  -2.0938  -2.0134  -2.0107  -1.9912  -1.9883
    -1.6651  -1.6454  -1.4750  -1.4663  -1.4589  -1.4435  -1.4164  -1.4059
    -1.3376  -1.3272  -1.3270  -1.2889  -1.2299  -1.1862  -1.0094  -0.9868
    -0.9543  -0.9073  -0.8888  -0.8453  -0.7905  -0.7767  -0.6394  -0.6305
    -0.5558  -0.5527  -0.5245  -0.5010  -0.4011  -0.3953  -0.3887  -0.3834
    -0.3385  -0.3335  -0.3110  -0.3066  -0.2754  -0.2530  -0.2515  -0.2464
    -0.2054  -0.1895  -0.1788  -0.1279  -0.1127  -0.1122   0.1829   0.1869
     0.2623   0.2678   0.3549   0.4004   0.4090   0.4208   0.4929   0.5209
     0.5257   0.5547   0.6321   0.6369   0.6690   0.6935   0.8040   0.8440
     0.8745   0.9049   0.9696   0.9768   1.0004   1.0352   1.0405   1.0435
     1.0580   1.0728   1.1096   1.1180   1.1254   1.1256   1.1283   1.1362
     1.1957   1.2244   1.2673   1.3604   1.3866   1.4158   1.4320   1.4941
     1.5033   1.5330   1.5356   1.5525   1.5538   1.5729   1.5960   1.5984
     1.6128   1.6214   1.6378   1.6434   1.6473   1.6845   1.7196   1.7478
     1.7529   1.7599   1.8180   1.8239   1.8526   1.8831   1.9848   2.0085
     2.0122   2.0145   2.0174   2.0542   2.3651   2.4063   2.5259   2.5964
     3.1024   3.1112   3.1302   3.1438   3.2738   3.2843   3.3226   3.3367
     3.3941   3.4395   3.4896   3.5034   3.5218   3.5240   6.2281   6.6933
     6.6971   6.7208   6.7245   7.0722   7.2164   7.2603   7.2895   7.2929
     8.0795   8.1203   8.2204   8.2590   8.3492   8.3533   8.3710   8.3750
     8.6572   8.7238   8.8133   8.8333   8.9174   8.9706   9.0061   9.0954
     9.1370   9.1771   9.2198   9.2326   9.2838   9.2841   9.3211   9.3694
     9.4375   9.4579

          k =-0.5000 0.7854 0.0000 ( 69170 PWs)   bands (ev):

   -38.0279 -38.0041 -35.6623 -35.6297 -22.6402 -22.6354 -22.6104 -22.6062
   -22.3967 -22.3880 -22.2962 -22.1413 -18.6065 -18.5834 -18.3526 -18.3290
   -18.2702 -18.2493 -17.0429 -17.0085 -16.9233 -16.8937 -16.8482 -16.8166
   -14.7093 -14.7026 -14.6811 -14.6763 -14.5493 -14.5206 -14.4627 -14.4541
   -14.4281 -14.4060 -14.3909 -14.3418 -14.2694 -14.2560 -14.2510 -14.2197
   -14.1282 -14.1276 -14.0216 -14.0107 -13.9903 -13.9734 -13.8957 -13.8913
   -13.8895 -13.8845 -13.8210 -13.7687 -13.0154 -13.0060  -8.3985  -8.3942
    -8.3598  -8.3556  -8.1233  -8.0469  -8.0202  -7.9961  -7.9911  -7.9811
    -7.9767  -7.9020  -7.9013  -7.8977  -7.8971  -7.8441  -7.8072  -7.7526
    -7.6841  -7.6111  -7.6042  -7.5243  -7.4238  -7.4211  -3.5946  -3.5760
    -3.4105  -3.3930  -3.1979  -3.1621  -3.1216  -3.0686  -2.7791  -2.7649
    -2.7641  -2.7617  -2.7606  -2.7224  -2.3359  -2.3320  -2.2565  -2.2523
    -2.1480  -2.1396  -2.1059  -2.0856  -2.0335  -2.0279  -2.0035  -1.9961
    -1.8893  -1.8715  -1.7554  -1.7399  -1.6616  -1.6453  -1.6170  -1.6106
    -1.5819  -1.5812  -1.4430  -1.4208  -1.3167  -1.2889  -1.1119  -1.0828
    -1.0757  -1.0582  -1.0314  -1.0190  -0.8053  -0.7908  -0.7905  -0.7601
    -0.7263  -0.7031  -0.6931  -0.6829  -0.6055  -0.5991  -0.5911  -0.5857
    -0.5394  -0.4942  -0.4866  -0.4603  -0.4274  -0.3880  -0.3660  -0.3285
    -0.2967  -0.2838  -0.2529  -0.2324  -0.1875  -0.1748   0.2340   0.2553
     0.3486   0.3582   0.4318   0.4639   0.5080   0.5187   0.5637   0.5980
     0.6216   0.6463   0.7298   0.7972   0.8199   0.9471   1.0361   1.0454
     1.0458   1.0684   1.0777   1.0992   1.1032   1.1187   1.1294   1.1521
     1.1769   1.2492   1.3371   1.3576   1.3618   1.3688   1.4261   1.4376
     1.4402   1.4451   1.4656   1.4893   1.4942   1.6076   1.6101   1.6256
     1.6309   1.6596   1.6622   1.6797   1.7334   1.7502   1.7734   1.7996
     1.8208   1.8247   1.8457   1.8569   1.8692   1.8855   1.8900   1.9124
     1.9223   1.9413   2.0009   2.0243   2.0740   2.0834   2.0974   2.1817
     2.2550   2.3429   2.4199   2.4231   2.4302   2.4335   2.4947   2.6054
     2.9692   2.9787   2.9913   3.0065   3.4958   3.5290   3.5496   3.5693
     3.6332   3.6531   3.6969   3.7144   3.7357   3.7942   6.2817   6.8389
     6.8427   6.8723   6.8917   7.0933   7.1472   7.1850   7.6255   7.6544
     8.1768   8.2105   8.4390   8.6483   8.7395   8.7669   8.7812   8.8047
     8.8418   8.8698   9.0292   9.0888   9.3022   9.3646   9.5868   9.5957
     9.6067   9.6085   9.6557   9.6991   9.7057   9.7364   9.7555   9.7882
     9.9128   9.9623

          k =-0.5000-1.0472 0.0000 ( 69164 PWs)   bands (ev):

   -38.0252 -38.0014 -35.6606 -35.6280 -22.6168 -22.6121 -22.5870 -22.5828
   -22.3731 -22.3676 -22.2743 -22.1186 -18.6870 -18.6640 -18.3456 -18.3220
   -18.2233 -18.2023 -17.0935 -17.0592 -16.9170 -16.8872 -16.8116 -16.7800
   -14.7340 -14.7227 -14.6648 -14.6588 -14.5100 -14.4948 -14.4394 -14.4260
   -14.3901 -14.3806 -14.3456 -14.2665 -14.2616 -14.2462 -14.2376 -14.2256
   -14.1210 -14.0802 -13.9994 -13.9930 -13.9180 -13.9159 -13.8845 -13.8712
   -13.8704 -13.8677 -13.8672 -13.8663 -13.0264 -13.0113  -8.4019  -8.3975
    -8.3510  -8.3469  -8.1436  -8.0769  -8.0723  -8.0600  -8.0550  -8.0532
    -8.0491  -7.9749  -7.9721  -7.9701  -7.9676  -7.8443  -7.8349  -7.7296
    -7.7259  -7.6873  -7.6167  -7.6072  -7.5797  -7.5303  -3.7955  -3.7779
    -3.5709  -3.5542  -3.3925  -3.3561  -3.2871  -3.2303  -2.9987  -2.9972
    -2.9948  -2.9937  -2.9900  -2.9377  -2.3414  -2.3378  -2.2328  -2.2282
    -2.1277  -2.0940  -2.0893  -2.0704  -2.0703  -2.0551  -1.9888  -1.9799
    -1.9590  -1.9394  -1.9015  -1.8932  -1.7987  -1.7476  -1.7235  -1.6887
    -1.6602  -1.6353  -1.4607  -1.4394  -1.3432  -1.3171  -1.1474  -1.1239
    -1.1181  -1.1114  -1.0895  -1.0832  -0.8817  -0.8580  -0.8137  -0.7855
    -0.7802  -0.7700  -0.7082  -0.6987  -0.6900  -0.6816  -0.6738  -0.6623
    -0.6205  -0.6025  -0.5271  -0.4916  -0.4409  -0.4062  -0.3880  -0.3433
    -0.3102  -0.2968  -0.2724  -0.2530  -0.1977  -0.1735   0.2570   0.2859
     0.3855   0.3889   0.4582   0.4768   0.5395   0.5605   0.5747   0.6004
     0.6132   0.6150   0.7492   0.8269   0.8682   1.0112   1.0843   1.1071
     1.1399   1.1491   1.1594   1.1805   1.2180   1.2206   1.2291   1.2649
     1.2766   1.3106   1.3575   1.3694   1.4100   1.4126   1.4160   1.4440
     1.4886   1.5031   1.5142   1.5268   1.5373   1.5741   1.5851   1.6398
     1.6505   1.6538   1.6793   1.8474   1.8553   1.8716   1.9093   1.9225
     1.9359   1.9556   1.9650   1.9881   1.9936   2.0031   2.0120   2.0507
     2.0677   2.1011   2.1276   2.1419   2.2203   2.2514   2.2529   2.2557
     2.2579   2.3688   2.5107   2.5994   2.6025   2.6084   2.6118   2.6228
     2.7654   2.7763   2.7785   2.7966   3.4848   3.5477   3.6020   3.6226
     3.6664   3.6817   3.7072   3.7239   3.8110   3.8614   6.2671   6.7824
     6.7857   6.8139   6.8411   7.0130   7.0753   7.1338   7.6429   7.6789
     8.2881   8.3393   8.3619   8.5007   8.8537   9.1285   9.1986   9.2066
     9.2645   9.3570   9.4502   9.4576   9.5124   9.5242   9.5277   9.6610
     9.7631   9.7707   9.8190   9.8303   9.8574   9.8786   9.8795   9.9406
     9.9709  10.0445

     the Fermi energy is     2.7799 ev

!    total energy              =   -3711.68869998 Ry
     Harris-Foulkes estimate   =   -3711.68869997 Ry
     estimated scf accuracy    <          5.6E-09 Ry

     The total energy is the sum of the following terms:

     one-electron contribution =  -62784.54505304 Ry
     hartree contribution      =   31700.02607187 Ry
     xc contribution           =   -1263.93938191 Ry
     ewald contribution        =   28636.78451311 Ry
     smearing contrib. (-TS)   =      -0.01485001 Ry

     convergence has been achieved in  33 iterations

     negative rho (up, down):  9.224E-02 0.000E+00

     Forces acting on atoms (cartesian axes, Ry/au):

     atom    1 type  4   force =    -0.00001074    0.00000000   -0.00015541
     atom    2 type  4   force =     0.00001074    0.00000000   -0.00015541
     atom    3 type  3   force =    -0.00002147    0.00000000   -0.00003875
     atom    4 type  3   force =     0.00002147    0.00000000   -0.00003875
     atom    5 type  4   force =    -0.00000962    0.00000000   -0.00004400
     atom    6 type  4   force =     0.00000962    0.00000000   -0.00004400
     atom    7 type  1   force =     0.00000000    0.00000000   -0.00020623
     atom    8 type  1   force =     0.00000000    0.00000000   -0.00018075
     atom    9 type  3   force =     0.00007157    0.00000000   -0.00011475
     atom   10 type  3   force =    -0.00007157    0.00000000   -0.00011475
     atom   11 type  4   force =     0.00000000    0.00000000    0.00045687
     atom   12 type  4   force =    -0.00000867    0.00000000    0.00043413
     atom   13 type  4   force =     0.00000867    0.00000000    0.00043413
     atom   14 type  4   force =     0.00000000    0.00000000    0.00057922
     atom   15 type  2   force =     0.00000000    0.00000000   -0.00120270
     atom   16 type  5   force =     0.00000000    0.00000000   -0.00184976
     atom   17 type  4   force =     0.00033740    0.00000000    0.00187581
     atom   18 type  4   force =    -0.00033740    0.00000000    0.00187581
     atom   19 type  4   force =     0.00000000    0.00000000    0.00150924
     atom   20 type  4   force =     0.00000000    0.00000000    0.00174096
     atom   21 type  3   force =     0.00029516    0.00000000   -0.00054738
     atom   22 type  3   force =    -0.00029516    0.00000000   -0.00054738
     atom   23 type  1   force =     0.00000000    0.00000000    0.00572950
     atom   24 type  1   force =     0.00000000    0.00000000    0.01025308
     atom   25 type  4   force =     0.00135422    0.00000000   -0.00570780
     atom   26 type  4   force =    -0.00135422    0.00000000   -0.00570780
     atom   27 type  4   force =    -0.00075588    0.00000000    0.01622307
     atom   28 type  4   force =     0.00075588    0.00000000    0.01622307
     atom   29 type  3   force =     0.00237836    0.00000000    0.03885722
     atom   30 type  3   force =    -0.00237836    0.00000000    0.03885722
     atom   31 type  4   force =     0.00747277    0.00000000   -0.03187792
     atom   32 type  4   force =    -0.00747277    0.00000000   -0.03187792
     atom   33 type  1   force =     0.00000000    0.00000000   -0.02436458
     atom   34 type  1   force =     0.00000000    0.00000000   -0.01624584
     atom   35 type  3   force =    -0.00205921    0.00000000   -0.01056611
     atom   36 type  3   force =     0.00205921    0.00000000   -0.01056611
     atom   37 type  4   force =     0.00000000    0.00000000    0.00402612
     atom   38 type  4   force =     0.00000000    0.00000000    0.00101699
     atom   39 type  4   force =     0.00177861    0.00000000    0.00059103
     atom   40 type  4   force =    -0.00177861    0.00000000    0.00059103
     atom   41 type  5   force =     0.00000000    0.00000000    0.00106809
     atom   42 type  2   force =     0.00000000    0.00000000   -0.00021355
     atom   43 type  4   force =     0.00000000    0.00000000    0.00001049
     atom   44 type  4   force =     0.00000325    0.00000000   -0.00033216
     atom   45 type  4   force =    -0.00000325    0.00000000   -0.00033216
     atom   46 type  4   force =     0.00000000    0.00000000    0.00007626
     atom   47 type  3   force =     0.00004775    0.00000000    0.00008628
     atom   48 type  3   force =    -0.00004775    0.00000000    0.00008628
     atom   49 type  1   force =     0.00000000    0.00000000    0.00009105
     atom   50 type  1   force =     0.00000000    0.00000000    0.00012983
     atom   51 type  4   force =    -0.00002871    0.00000000   -0.00022899
     atom   52 type  4   force =     0.00002871    0.00000000   -0.00022899
     atom   53 type  3   force =    -0.00004151    0.00000000    0.00042773
     atom   54 type  3   force =     0.00004151    0.00000000    0.00042773
     atom   55 type  4   force =     0.00001368    0.00000000   -0.00009415
     atom   56 type  4   force =    -0.00001368    0.00000000   -0.00009415

     Total force =     0.083930     Total SCF correction =     0.000272


     Computing stress (Cartesian axis) and pressure


     negative rho (up, down):  9.224E-02 0.000E+00
          total   stress  (Ry/bohr**3)                   (kbar)     P=       -6.00
  -0.00000230   0.00000000   0.00000000           -0.34        0.00        0.00
   0.00000000  -0.00004478   0.00000000            0.00       -6.59        0.00
   0.00000000   0.00000000  -0.00007536            0.00        0.00      -11.09

 
     init_run     :     23.79s CPU     24.72s WALL (       1 calls)
     electrons    :   1672.79s CPU   1754.54s WALL (       1 calls)
     forces       :     10.01s CPU     10.60s WALL (       1 calls)
     stress       :     95.22s CPU     96.84s WALL (       1 calls)

     Called by init_run:
     wfcinit      :     19.44s CPU     19.83s WALL (       1 calls)
     potinit      :      0.94s CPU      0.95s WALL (       1 calls)
     hinit0       :      1.72s CPU      1.76s WALL (       1 calls)

     Called by electrons:
     c_bands      :   1422.22s CPU   1469.51s WALL (      33 calls)
     sum_band     :    193.27s CPU    212.68s WALL (      33 calls)
     v_of_rho     :      3.26s CPU      3.32s WALL (      34 calls)
     newd         :     29.76s CPU     44.91s WALL (      34 calls)
     mix_rho      :     24.91s CPU     25.14s WALL (      33 calls)

     Called by c_bands:
     init_us_2    :      8.04s CPU      8.12s WALL (    1725 calls)
     cegterg      :   1360.54s CPU   1394.00s WALL (     825 calls)

     Called by sum_band:
     sum_band:bec :      0.91s CPU      0.92s WALL (     825 calls)
     addusdens    :     29.49s CPU     46.77s WALL (      33 calls)

     Called by *egterg:
     h_psi        :    616.40s CPU    629.05s WALL (    4706 calls)
     s_psi        :     94.74s CPU     95.38s WALL (    4706 calls)
     g_psi        :      1.40s CPU      1.42s WALL (    3856 calls)
     cdiaghg      :    367.52s CPU    368.99s WALL (    4681 calls)

     Called by h_psi:
     h_psi:calbec :    101.60s CPU    102.07s WALL (    4706 calls)
     vloc_psi     :    416.76s CPU    422.95s WALL (    4706 calls)
     add_vuspsi   :     95.38s CPU     95.85s WALL (    4706 calls)

     General routines
     calbec       :    175.13s CPU    175.88s WALL (    5656 calls)
     fft          :      2.78s CPU      2.81s WALL (     465 calls)
     ffts         :     13.85s CPU     13.98s WALL (   16819 calls)
     fftw         :    476.35s CPU    483.40s WALL ( 1192748 calls)
     interpolate  :      0.23s CPU      0.23s WALL (      34 calls)
 
     Parallel routines
     fft_scatt_xy :     56.62s CPU     57.54s WALL ( 1210032 calls)
     fft_scatt_yz :    303.66s CPU    308.11s WALL ( 1210032 calls)
 
     PWSCF        :  30m 2.98s CPU  31m28.23s WALL

 
   This run was terminated on:   0: 2: 8  28May2021            

=------------------------------------------------------------------------------=
   JOB DONE.
=------------------------------------------------------------------------------=
[1622174528.703746] [holy7c16612:221793:0]          mpool.c:43   UCX  WARN  object 0x4641500 was not returned to mpool ucp_requests
[1622174528.707375] [holy7c18104:265238:0]          mpool.c:43   UCX  WARN  object 0x3539840 was not returned to mpool ucp_requests
[1622174528.709429] [holy7c18111:9809 :0]          mpool.c:43   UCX  WARN  object 0x35a57c0 was not returned to mpool ucp_requests
[1622174528.708585] [holy7c18108:157949:0]          mpool.c:43   UCX  WARN  object 0x2d346c0 was not returned to mpool ucp_requests
[1622174528.708616] [holy7c18108:157949:0]          mpool.c:43   UCX  WARN  object 0x2d34880 was not returned to mpool ucp_requests
[1622174528.711678] [holy7c16603:248611:0]          mpool.c:43   UCX  WARN  object 0x3bbe780 was not returned to mpool ucp_requests
[1622174528.711739] [holy7c18110:118831:0]          mpool.c:43   UCX  WARN  object 0x408be80 was not returned to mpool ucp_requests
[1622174528.702986] [holy7c16612:221794:0]          mpool.c:43   UCX  WARN  object 0x29ec880 was not returned to mpool ucp_requests
[1622174528.703009] [holy7c16612:221794:0]          mpool.c:43   UCX  WARN  object 0x29eca40 was not returned to mpool ucp_requests
[1622174528.707278] [holy7c18104:265239:0]          mpool.c:43   UCX  WARN  object 0x319b880 was not returned to mpool ucp_requests
[1622174528.718590] [holy7c18111:9810 :0]          mpool.c:43   UCX  WARN  object 0x413a380 was not returned to mpool ucp_requests
[1622174528.714106] [holy7c16603:248608:0]          mpool.c:43   UCX  WARN  object 0x28b9c40 was not returned to mpool ucp_requests
[1622174528.714126] [holy7c16603:248608:0]          mpool.c:43   UCX  WARN  object 0x28b9fc0 was not returned to mpool ucp_requests
[1622174528.711721] [holy7c16603:248607:0]          mpool.c:43   UCX  WARN  object 0x403d0c0 was not returned to mpool ucp_requests
[1622174528.714382] [holy7c16603:248606:0]          mpool.c:43   UCX  WARN  object 0x2de7880 was not returned to mpool ucp_requests
[1622174528.718053] [holy7c18110:118832:0]          mpool.c:43   UCX  WARN  object 0x43d20c0 was not returned to mpool ucp_requests
[1622174528.717331] [holy7c18110:118834:0]          mpool.c:43   UCX  WARN  object 0x30cc000 was not returned to mpool ucp_requests
[1622174528.717354] [holy7c18110:118834:0]          mpool.c:43   UCX  WARN  object 0x30cc700 was not returned to mpool ucp_requests
