
     Program PWSCF v.6.5 starts on 27May2021 at 23:55:22 

     This program is part of the open-source Quantum ESPRESSO suite
     for quantum simulation of materials; please cite
         "P. Giannozzi et al., J. Phys.:Condens. Matter 21 395502 (2009);
         "P. Giannozzi et al., J. Phys.:Condens. Matter 29 465901 (2017);
          URL http://www.quantum-espresso.org", 
     in publications or presentations arising from this work. More details at
     http://www.quantum-espresso.org/quote

     Parallel version (MPI), running on    32 processors

     MPI processes distributed on     5 nodes
     R & G space division:  proc/nbgrp/npool/nimage =      32
     Reading input from YCBCO50_212_Y_cleave_0.5_sep.pwi
Warning: card &IONS ignored
Warning: card     ION_DYNAMICS = 'BFGS' ignored
Warning: card / ignored
Warning: card &CELL ignored
Warning: card     CELL_DYNAMICS = 'BFGS' ignored
Warning: card     PRESS_CONV_THR = 5 ignored
Warning: card / ignored

     Current dimensions of program PWSCF are:
     Max number of different atomic species (ntypx) = 10
     Max number of k-points (npk) =  40000
     Max angular momentum in pseudopotentials (lmaxx) =  3

     Subspace diagonalization in iterative solution of the eigenvalue problem:
     one sub-group per band group will be used
     scalapack distributed-memory algorithm (size of sub-group:  5*  5 procs)

     Message from routine setup:
     using ibrav=0 with symmetry is DISCOURAGED, use correct ibrav instead
 
     Parallelization info
     --------------------
     sticks:   dense  smooth     PW     G-vecs:    dense   smooth      PW
     Min         188      62     17                89868    17286    2577
     Max         189      63     18                89896    17331    2618
     Sum        6019    2003    565              2876277   553869   83293
 


     bravais-lattice index     =            0
     lattice parameter (alat)  =      14.8133  a.u.
     unit-cell volume          =    8816.2533 (a.u.)^3
     number of atoms/cell      =           56
     number of atomic types    =            5
     number of electrons       =       456.00
     number of Kohn-Sham states=          274
     kinetic-energy cutoff     =      60.0000  Ry
     charge density cutoff     =     720.0000  Ry
     convergence threshold     =      1.0E-08
     mixing beta               =       0.5000
     number of iterations used =           10  local-TF  mixing
     Exchange-correlation= SLA PW PBE PBE
                           (   1   4   3   4   0   0   0)

     celldm(1)=  14.813271  celldm(2)=   0.000000  celldm(3)=   0.000000
     celldm(4)=   0.000000  celldm(5)=   0.000000  celldm(6)=   0.000000

     crystal axes: (cart. coord. in units of alat)
               a(1) = (   1.000000   0.000000   0.000000 )  
               a(2) = (   0.000000   0.477453   0.000000 )  
               a(3) = (   0.000000   0.000000   5.680686 )  

     reciprocal axes: (cart. coord. in units 2 pi/alat)
               b(1) = (  1.000000  0.000000  0.000000 )  
               b(2) = (  0.000000  2.094448  0.000000 )  
               b(3) = (  0.000000  0.000000  0.176035 )  


     PseudoPot. # 1 for Ba read from file:
     ./pseudo/Ba.pbe-nsp-van.UPF
     MD5 check sum: 2b9c31dd849566dd297d80989662b7a0
     Pseudo is Ultrasoft + core correction, Zval = 10.0
     Generated by new atomic code, or converted to UPF format
     Using radial grid of  907 points,  6 beta functions with: 
                l(1) =   0
                l(2) =   0
                l(3) =   1
                l(4) =   1
                l(5) =   2
                l(6) =   2
     Q(r) pseudized with  6 coefficients,  rinner =    1.200   1.200   1.200
                                                       1.200   1.200

     PseudoPot. # 2 for Ca read from file:
     ./pseudo/Ca.pbe-nsp-van.UPF
     MD5 check sum: 6471098428ff4fa451746d08035ff179
     Pseudo is Ultrasoft + core correction, Zval = 10.0
     Generated by new atomic code, or converted to UPF format
     Using radial grid of  845 points,  6 beta functions with: 
                l(1) =   0
                l(2) =   0
                l(3) =   1
                l(4) =   1
                l(5) =   2
                l(6) =   2
     Q(r) pseudized with  6 coefficients,  rinner =    1.200   1.200   1.200
                                                       1.200   1.200

     PseudoPot. # 3 for Cu read from file:
     ./pseudo/Cu.pbe-n-van_ak.UPF
     MD5 check sum: 34e3282627ffb533726feb647e090d62
     Pseudo is Ultrasoft + core correction, Zval = 11.0
     Generated by new atomic code, or converted to UPF format
     Using radial grid of  867 points,  6 beta functions with: 
                l(1) =   0
                l(2) =   0
                l(3) =   1
                l(4) =   1
                l(5) =   2
                l(6) =   2
     Q(r) pseudized with  8 coefficients,  rinner =    1.400   1.400   1.400
                                                       1.400   1.400

     PseudoPot. # 4 for O  read from file:
     ./pseudo/O.pbe-van_ak.UPF
     MD5 check sum: 783ce7fe4c79b6a4916957118fed0856
     Pseudo is Ultrasoft, Zval =  6.0
     Generated by new atomic code, or converted to UPF format
     Using radial grid of  737 points,  4 beta functions with: 
                l(1) =   0
                l(2) =   0
                l(3) =   1
                l(4) =   1
     Q(r) pseudized with  8 coefficients,  rinner =    0.800   0.800   0.800


     PseudoPot. # 5 for Y  read from file:
     ./pseudo/Y.pbe-nsp-van.UPF
     MD5 check sum: 4412fed3ab108fed87a1b7d6a69a4a38
     Pseudo is Ultrasoft + core correction, Zval = 11.0
     Generated by new atomic code, or converted to UPF format
     Using radial grid of  885 points,  6 beta functions with: 
                l(1) =   0
                l(2) =   0
                l(3) =   1
                l(4) =   1
                l(5) =   2
                l(6) =   2
     Q(r) pseudized with  6 coefficients,  rinner =    1.200   1.200   1.200
                                                       1.200   1.200

     atomic species   valence    mass     pseudopotential
        Ba            10.00   137.32700     Ba( 1.00)
        Ca            10.00    40.07800     Ca( 1.00)
        Cu            11.00    63.54600     Cu( 1.00)
        O              6.00    15.99900     O ( 1.00)
        Y             11.00    88.90584     Y ( 1.00)

      4 Sym. Ops. (no inversion) found ( 2 have fractional translation)



   Cartesian axes

     site n.     atom                  positions (alat units)
         1           O   tau(   1) = (  -0.0008343   0.2387265  -0.0222443  )
         2           O   tau(   2) = (   0.5008340   0.2387265  -0.0222443  )
         3           Cu  tau(   3) = (   0.5017257   0.0000000   0.0109608  )
         4           Cu  tau(   4) = (  -0.0017260   0.0000000   0.0109608  )
         5           O   tau(   5) = (  -0.0028933   0.0000000   0.2506504  )
         6           O   tau(   6) = (   0.5028929   0.0000000   0.2506504  )
         7           Ba  tau(   7) = (   0.7499995   0.2387265   0.2749435  )
         8           Ba  tau(   8) = (   0.2499998   0.2387265   0.2755214  )
         9           Cu  tau(   9) = (   0.4980963   0.0000000   0.5208446  )
        10           Cu  tau(  10) = (   0.0019033   0.0000000   0.5208446  )
        11           O   tau(  11) = (   0.2499998   0.0000000   0.5341884  )
        12           O   tau(  12) = (   0.5083351   0.2387265   0.5569851  )
        13           O   tau(  13) = (  -0.0083354   0.2387265   0.5569851  )
        14           O   tau(  14) = (   0.7499995   0.0000000   0.5573831  )
        15           Ca  tau(  15) = (   0.2499998   0.2387265   0.7436937  )
        16           Y   tau(  16) = (   0.7499995   0.2387265   0.7469544  )
        17           O   tau(  17) = (  -0.0063798   0.2387265   0.9248530  )
        18           O   tau(  18) = (   0.5063794   0.2387265   0.9248530  )
        19           O   tau(  19) = (   0.7499995   0.0000000   0.9338544  )
        20           O   tau(  20) = (   0.2499998   0.0000000   0.9461329  )
        21           Cu  tau(  21) = (   0.0015717   0.0000000   0.9686860  )
        22           Cu  tau(  22) = (   0.4984280   0.0000000   0.9686860  )
        23           Ba  tau(  23) = (   0.2499998   0.2387265   1.2085224  )
        24           Ba  tau(  24) = (   0.7499995   0.2387265   1.2233294  )
        25           O   tau(  25) = (   0.0063772   0.0000000   1.2547537  )
        26           O   tau(  26) = (   0.4936224   0.0000000   1.2547537  )
        27           O   tau(  27) = (   0.5384045   0.2387265   1.4952521  )
        28           O   tau(  28) = (  -0.0384049   0.2387265   1.4952521  )
        29           Cu  tau(  29) = (   0.5006120   0.0000000   1.4952546  )
        30           Cu  tau(  30) = (  -0.0006123   0.0000000   1.4952546  )
        31           O   tau(  31) = (   0.4936212   0.0000000   1.7357531  )
        32           O   tau(  32) = (   0.0063785   0.0000000   1.7357531  )
        33           Ba  tau(  33) = (   0.7499995   0.2387265   1.7671824  )
        34           Ba  tau(  34) = (   0.2499998   0.2387265   1.7819920  )
        35           Cu  tau(  35) = (   0.4984280   0.0000000   2.0218232  )
        36           Cu  tau(  36) = (   0.0015717   0.0000000   2.0218232  )
        37           O   tau(  37) = (   0.2499998   0.0000000   2.0443814  )
        38           O   tau(  38) = (   0.7499995   0.0000000   2.0566511  )
        39           O   tau(  39) = (   0.5063781   0.2387265   2.0656562  )
        40           O   tau(  40) = (  -0.0063785   0.2387265   2.0656562  )
        41           Y   tau(  41) = (   0.7499995   0.2387265   2.2435498  )
        42           Ca  tau(  42) = (   0.2499998   0.2387265   2.2468194  )
        43           O   tau(  43) = (   0.7499995   0.0000000   2.4969021  )
        44           O   tau(  44) = (  -0.0083354   0.2387265   2.4973040  )
        45           O   tau(  45) = (   0.5083351   0.2387265   2.4973040  )
        46           O   tau(  46) = (   0.2499998   0.0000000   2.5201020  )
        47           Cu  tau(  47) = (   0.0019059   0.0000000   2.5334356  )
        48           Cu  tau(  48) = (   0.4980938   0.0000000   2.5334356  )
        49           Ba  tau(  49) = (   0.2499998   0.2387265   2.7787753  )
        50           Ba  tau(  50) = (   0.7499995   0.2387265   2.7793174  )
        51           O   tau(  51) = (  -0.0028895   0.0000000   2.8036246  )
        52           O   tau(  52) = (   0.5028891   0.0000000   2.8036246  )
        53           Cu  tau(  53) = (   0.5017844   0.0000000   3.0433091  )
        54           Cu  tau(  54) = (  -0.0017847   0.0000000   3.0433091  )
        55           O   tau(  55) = (   0.5008990   0.2387265   3.0765155  )
        56           O   tau(  56) = (  -0.0008994   0.2387265   3.0765155  )

     number of k points=    25  Gaussian smearing, width (Ry)=  0.0100
                       cart. coord. in units 2pi/alat
        k(    1) = (   0.0000000   0.0000000   0.0000000), wk =   0.0312500
        k(    2) = (   0.0000000   0.2618060   0.0000000), wk =   0.0625000
        k(    3) = (   0.0000000   0.5236121   0.0000000), wk =   0.0625000
        k(    4) = (   0.0000000   0.7854181   0.0000000), wk =   0.0625000
        k(    5) = (   0.0000000  -1.0472241   0.0000000), wk =   0.0312500
        k(    6) = (   0.1250000   0.0000000   0.0000000), wk =   0.0625000
        k(    7) = (   0.1250000   0.2618060   0.0000000), wk =   0.1250000
        k(    8) = (   0.1250000   0.5236121   0.0000000), wk =   0.1250000
        k(    9) = (   0.1250000   0.7854181   0.0000000), wk =   0.1250000
        k(   10) = (   0.1250000  -1.0472241   0.0000000), wk =   0.0625000
        k(   11) = (   0.2500000   0.0000000   0.0000000), wk =   0.0625000
        k(   12) = (   0.2500000   0.2618060   0.0000000), wk =   0.1250000
        k(   13) = (   0.2500000   0.5236121   0.0000000), wk =   0.1250000
        k(   14) = (   0.2500000   0.7854181   0.0000000), wk =   0.1250000
        k(   15) = (   0.2500000  -1.0472241   0.0000000), wk =   0.0625000
        k(   16) = (   0.3750000   0.0000000   0.0000000), wk =   0.0625000
        k(   17) = (   0.3750000   0.2618060   0.0000000), wk =   0.1250000
        k(   18) = (   0.3750000   0.5236121   0.0000000), wk =   0.1250000
        k(   19) = (   0.3750000   0.7854181   0.0000000), wk =   0.1250000
        k(   20) = (   0.3750000  -1.0472241   0.0000000), wk =   0.0625000
        k(   21) = (  -0.5000000   0.0000000   0.0000000), wk =   0.0312500
        k(   22) = (  -0.5000000   0.2618060   0.0000000), wk =   0.0625000
        k(   23) = (  -0.5000000   0.5236121   0.0000000), wk =   0.0625000
        k(   24) = (  -0.5000000   0.7854181   0.0000000), wk =   0.0625000
        k(   25) = (  -0.5000000  -1.0472241   0.0000000), wk =   0.0312500

     Dense  grid:  2876277 G-vectors     FFT dimensions: ( 128,  64, 720)

     Smooth grid:   553869 G-vectors     FFT dimensions: (  80,  36, 432)

     Estimated max dynamical RAM per process >     833.65 MB

     Estimated total dynamical RAM >      26.05 GB

     Initial potential from superposition of free atoms

     starting charge  455.69457, renormalised to  456.00000

     negative rho (up, down):  9.331E-02 0.000E+00
     Starting wfcs are  396 randomized atomic wfcs

     total cpu time spent up to now is       28.3 secs

     Self-consistent Calculation

     iteration #  1     ecut=    60.00 Ry     beta= 0.50
     Davidson diagonalization with overlap
     ethr =  1.00E-02,  avg # of iterations =  2.0

     negative rho (up, down):  8.587E-02 0.000E+00

     total cpu time spent up to now is       78.8 secs

     total energy              =   -3708.53451660 Ry
     Harris-Foulkes estimate   =   -3716.38071789 Ry
     estimated scf accuracy    <      29.56927754 Ry

     iteration #  2     ecut=    60.00 Ry     beta= 0.50
     Davidson diagonalization with overlap
     ethr =  6.48E-03,  avg # of iterations =  2.0

     negative rho (up, down):  8.544E-02 0.000E+00

     total cpu time spent up to now is      130.9 secs

     total energy              =   -3711.20839249 Ry
     Harris-Foulkes estimate   =   -3712.27942276 Ry
     estimated scf accuracy    <       5.51160095 Ry

     iteration #  3     ecut=    60.00 Ry     beta= 0.50
     Davidson diagonalization with overlap
     ethr =  1.21E-03,  avg # of iterations =  2.0

     negative rho (up, down):  8.581E-02 0.000E+00

     total cpu time spent up to now is      182.5 secs

     total energy              =   -3711.69849048 Ry
     Harris-Foulkes estimate   =   -3711.95875869 Ry
     estimated scf accuracy    <       5.63341691 Ry

     iteration #  4     ecut=    60.00 Ry     beta= 0.50
     Davidson diagonalization with overlap
     ethr =  1.21E-03,  avg # of iterations =  1.0

     negative rho (up, down):  8.657E-02 0.000E+00

     total cpu time spent up to now is      228.8 secs

     total energy              =   -3711.71202880 Ry
     Harris-Foulkes estimate   =   -3711.82930224 Ry
     estimated scf accuracy    <       1.55045971 Ry

     iteration #  5     ecut=    60.00 Ry     beta= 0.50
     Davidson diagonalization with overlap
     ethr =  3.40E-04,  avg # of iterations =  3.4

     negative rho (up, down):  8.784E-02 0.000E+00

     total cpu time spent up to now is      282.4 secs

     total energy              =   -3711.68449593 Ry
     Harris-Foulkes estimate   =   -3711.78475457 Ry
     estimated scf accuracy    <       3.18891938 Ry

     iteration #  6     ecut=    60.00 Ry     beta= 0.50
     Davidson diagonalization with overlap
     ethr =  3.40E-04,  avg # of iterations =  3.1

     negative rho (up, down):  8.849E-02 0.000E+00

     total cpu time spent up to now is      334.8 secs

     total energy              =   -3711.70683778 Ry
     Harris-Foulkes estimate   =   -3711.72450377 Ry
     estimated scf accuracy    <       1.35189248 Ry

     iteration #  7     ecut=    60.00 Ry     beta= 0.50
     Davidson diagonalization with overlap
     ethr =  2.96E-04,  avg # of iterations =  3.2

     negative rho (up, down):  8.960E-02 0.000E+00

     total cpu time spent up to now is      386.6 secs

     total energy              =   -3711.69484001 Ry
     Harris-Foulkes estimate   =   -3711.71624906 Ry
     estimated scf accuracy    <       0.82844039 Ry

     iteration #  8     ecut=    60.00 Ry     beta= 0.50
     Davidson diagonalization with overlap
     ethr =  1.82E-04,  avg # of iterations =  9.2

     negative rho (up, down):  9.002E-02 0.000E+00

     total cpu time spent up to now is      459.2 secs

     total energy              =   -3711.69644529 Ry
     Harris-Foulkes estimate   =   -3711.70595332 Ry
     estimated scf accuracy    <       0.85670906 Ry

     iteration #  9     ecut=    60.00 Ry     beta= 0.50
     Davidson diagonalization with overlap
     ethr =  1.82E-04,  avg # of iterations =  1.6

     negative rho (up, down):  9.027E-02 0.000E+00

     total cpu time spent up to now is      506.9 secs

     total energy              =   -3711.69099468 Ry
     Harris-Foulkes estimate   =   -3711.69989699 Ry
     estimated scf accuracy    <       0.39851529 Ry

     iteration # 10     ecut=    60.00 Ry     beta= 0.50
     Davidson diagonalization with overlap
     ethr =  8.74E-05,  avg # of iterations =  5.4

     negative rho (up, down):  9.024E-02 0.000E+00

     total cpu time spent up to now is      567.6 secs

     total energy              =   -3711.68536538 Ry
     Harris-Foulkes estimate   =   -3711.69325008 Ry
     estimated scf accuracy    <       0.28443411 Ry

     iteration # 11     ecut=    60.00 Ry     beta= 0.50
     Davidson diagonalization with overlap
     ethr =  6.24E-05,  avg # of iterations =  4.2

     negative rho (up, down):  8.999E-02 0.000E+00

     total cpu time spent up to now is      623.5 secs

     total energy              =   -3711.68481989 Ry
     Harris-Foulkes estimate   =   -3711.68691544 Ry
     estimated scf accuracy    <       0.15686935 Ry

     iteration # 12     ecut=    60.00 Ry     beta= 0.50
     Davidson diagonalization with overlap
     ethr =  3.44E-05,  avg # of iterations =  6.3

     negative rho (up, down):  8.973E-02 0.000E+00

     total cpu time spent up to now is      685.6 secs

     total energy              =   -3711.68182604 Ry
     Harris-Foulkes estimate   =   -3711.68530212 Ry
     estimated scf accuracy    <       0.12888562 Ry

     iteration # 13     ecut=    60.00 Ry     beta= 0.50
     Davidson diagonalization with overlap
     c_bands:  2 eigenvalues not converged
     ethr =  2.83E-05,  avg # of iterations =  6.2

     negative rho (up, down):  9.408E-02 0.000E+00

     total cpu time spent up to now is      747.4 secs

     total energy              =   -3711.67917278 Ry
     Harris-Foulkes estimate   =   -3711.68236631 Ry
     estimated scf accuracy    <       0.08000304 Ry

     iteration # 14     ecut=    60.00 Ry     beta= 0.50
     Davidson diagonalization with overlap
     ethr =  1.75E-05,  avg # of iterations =  8.2

     negative rho (up, down):  9.931E-02 0.000E+00

     total cpu time spent up to now is      816.4 secs

     total energy              =   -3711.67761006 Ry
     Harris-Foulkes estimate   =   -3711.67957270 Ry
     estimated scf accuracy    <       0.03030783 Ry

     iteration # 15     ecut=    60.00 Ry     beta= 0.50
     Davidson diagonalization with overlap
     c_bands:  2 eigenvalues not converged
     c_bands:  1 eigenvalues not converged
     ethr =  6.65E-06,  avg # of iterations = 10.2

     negative rho (up, down):  1.137E-01 0.000E+00

     total cpu time spent up to now is      894.0 secs

     total energy              =   -3711.67522541 Ry
     Harris-Foulkes estimate   =   -3711.67775681 Ry
     estimated scf accuracy    <       0.02230798 Ry

     iteration # 16     ecut=    60.00 Ry     beta= 0.50
     Davidson diagonalization with overlap
     ethr =  4.89E-06,  avg # of iterations =  9.4

     negative rho (up, down):  1.240E-01 0.000E+00

     total cpu time spent up to now is      969.7 secs

     total energy              =   -3711.67410460 Ry
     Harris-Foulkes estimate   =   -3711.67546051 Ry
     estimated scf accuracy    <       0.01176894 Ry

     iteration # 17     ecut=    60.00 Ry     beta= 0.50
     Davidson diagonalization with overlap
     c_bands:  1 eigenvalues not converged
     ethr =  2.58E-06,  avg # of iterations = 10.9

     negative rho (up, down):  1.196E-01 0.000E+00

     total cpu time spent up to now is     1050.9 secs

     total energy              =   -3711.67346916 Ry
     Harris-Foulkes estimate   =   -3711.67426202 Ry
     estimated scf accuracy    <       0.00653463 Ry

     iteration # 18     ecut=    60.00 Ry     beta= 0.50
     Davidson diagonalization with overlap
     ethr =  1.43E-06,  avg # of iterations =  9.3

     negative rho (up, down):  1.040E-01 0.000E+00

     total cpu time spent up to now is     1126.0 secs

     total energy              =   -3711.67284792 Ry
     Harris-Foulkes estimate   =   -3711.67357965 Ry
     estimated scf accuracy    <       0.00494974 Ry

     iteration # 19     ecut=    60.00 Ry     beta= 0.50
     Davidson diagonalization with overlap
     c_bands:  1 eigenvalues not converged
     ethr =  1.09E-06,  avg # of iterations =  7.2

     negative rho (up, down):  9.080E-02 0.000E+00

     total cpu time spent up to now is     1194.7 secs

     total energy              =   -3711.67273695 Ry
     Harris-Foulkes estimate   =   -3711.67291914 Ry
     estimated scf accuracy    <       0.00226924 Ry

     iteration # 20     ecut=    60.00 Ry     beta= 0.50
     Davidson diagonalization with overlap
     c_bands:  1 eigenvalues not converged
     c_bands:  1 eigenvalues not converged
     c_bands:  1 eigenvalues not converged
     c_bands:  1 eigenvalues not converged
     c_bands:  1 eigenvalues not converged
     c_bands:  1 eigenvalues not converged
     c_bands:  1 eigenvalues not converged
     c_bands:  1 eigenvalues not converged
     ethr =  4.98E-07,  avg # of iterations = 12.2

     negative rho (up, down):  9.025E-02 0.000E+00

     total cpu time spent up to now is     1278.2 secs

     total energy              =   -3711.67279168 Ry
     Harris-Foulkes estimate   =   -3711.67277755 Ry
     estimated scf accuracy    <       0.00053413 Ry

     iteration # 21     ecut=    60.00 Ry     beta= 0.50
     Davidson diagonalization with overlap
     c_bands:  1 eigenvalues not converged
     ethr =  1.17E-07,  avg # of iterations =  6.4

     negative rho (up, down):  9.167E-02 0.000E+00

     total cpu time spent up to now is     1341.2 secs

     total energy              =   -3711.67280020 Ry
     Harris-Foulkes estimate   =   -3711.67281507 Ry
     estimated scf accuracy    <       0.00034068 Ry

     iteration # 22     ecut=    60.00 Ry     beta= 0.50
     Davidson diagonalization with overlap
     ethr =  7.47E-08,  avg # of iterations =  5.8

     negative rho (up, down):  9.153E-02 0.000E+00

     total cpu time spent up to now is     1403.2 secs

     total energy              =   -3711.67279084 Ry
     Harris-Foulkes estimate   =   -3711.67281325 Ry
     estimated scf accuracy    <       0.00029480 Ry

     iteration # 23     ecut=    60.00 Ry     beta= 0.50
     Davidson diagonalization with overlap
     ethr =  6.47E-08,  avg # of iterations =  1.5

     negative rho (up, down):  9.137E-02 0.000E+00

     total cpu time spent up to now is     1450.7 secs

     total energy              =   -3711.67282440 Ry
     Harris-Foulkes estimate   =   -3711.67279476 Ry
     estimated scf accuracy    <       0.00009114 Ry

     iteration # 24     ecut=    60.00 Ry     beta= 0.50
     Davidson diagonalization with overlap
     ethr =  2.00E-08,  avg # of iterations =  3.1

     negative rho (up, down):  9.191E-02 0.000E+00

     total cpu time spent up to now is     1504.1 secs

     total energy              =   -3711.67282619 Ry
     Harris-Foulkes estimate   =   -3711.67282654 Ry
     estimated scf accuracy    <       0.00004610 Ry

     iteration # 25     ecut=    60.00 Ry     beta= 0.50
     Davidson diagonalization with overlap
     ethr =  1.01E-08,  avg # of iterations =  1.6

     negative rho (up, down):  9.199E-02 0.000E+00

     total cpu time spent up to now is     1552.3 secs

     total energy              =   -3711.67282772 Ry
     Harris-Foulkes estimate   =   -3711.67282754 Ry
     estimated scf accuracy    <       0.00000526 Ry

     iteration # 26     ecut=    60.00 Ry     beta= 0.50
     Davidson diagonalization with overlap
     ethr =  1.15E-09,  avg # of iterations =  3.1

     negative rho (up, down):  9.181E-02 0.000E+00

     total cpu time spent up to now is     1606.5 secs

     total energy              =   -3711.67282840 Ry
     Harris-Foulkes estimate   =   -3711.67282806 Ry
     estimated scf accuracy    <       0.00000533 Ry

     iteration # 27     ecut=    60.00 Ry     beta= 0.50
     Davidson diagonalization with overlap
     ethr =  1.15E-09,  avg # of iterations =  1.0

     negative rho (up, down):  9.182E-02 0.000E+00

     total cpu time spent up to now is     1653.8 secs

     total energy              =   -3711.67282855 Ry
     Harris-Foulkes estimate   =   -3711.67282861 Ry
     estimated scf accuracy    <       0.00000154 Ry

     iteration # 28     ecut=    60.00 Ry     beta= 0.50
     Davidson diagonalization with overlap
     ethr =  3.38E-10,  avg # of iterations =  1.2

     negative rho (up, down):  9.195E-02 0.000E+00

     total cpu time spent up to now is     1701.5 secs

     total energy              =   -3711.67282822 Ry
     Harris-Foulkes estimate   =   -3711.67282859 Ry
     estimated scf accuracy    <       0.00000082 Ry

     iteration # 29     ecut=    60.00 Ry     beta= 0.50
     Davidson diagonalization with overlap
     ethr =  1.79E-10,  avg # of iterations =  1.8

     negative rho (up, down):  9.198E-02 0.000E+00

     total cpu time spent up to now is     1752.0 secs

     total energy              =   -3711.67282820 Ry
     Harris-Foulkes estimate   =   -3711.67282827 Ry
     estimated scf accuracy    <       0.00000020 Ry

     iteration # 30     ecut=    60.00 Ry     beta= 0.50
     Davidson diagonalization with overlap
     ethr =  4.49E-11,  avg # of iterations =  2.8

     negative rho (up, down):  9.196E-02 0.000E+00

     total cpu time spent up to now is     1803.9 secs

     total energy              =   -3711.67282824 Ry
     Harris-Foulkes estimate   =   -3711.67282822 Ry
     estimated scf accuracy    <       0.00000011 Ry

     iteration # 31     ecut=    60.00 Ry     beta= 0.50
     Davidson diagonalization with overlap
     ethr =  2.36E-11,  avg # of iterations =  2.4

     negative rho (up, down):  9.197E-02 0.000E+00

     total cpu time spent up to now is     1854.4 secs

     total energy              =   -3711.67282824 Ry
     Harris-Foulkes estimate   =   -3711.67282825 Ry
     estimated scf accuracy    <       0.00000002 Ry

     iteration # 32     ecut=    60.00 Ry     beta= 0.50
     Davidson diagonalization with overlap
     ethr =  4.11E-12,  avg # of iterations =  3.0

     negative rho (up, down):  9.197E-02 0.000E+00

     total cpu time spent up to now is     1915.4 secs

     total energy              =   -3711.67282824 Ry
     Harris-Foulkes estimate   =   -3711.67282825 Ry
     estimated scf accuracy    <       0.00000001 Ry

     iteration # 33     ecut=    60.00 Ry     beta= 0.50
     Davidson diagonalization with overlap
     ethr =  2.73E-12,  avg # of iterations =  1.0

     negative rho (up, down):  9.198E-02 0.000E+00

     total cpu time spent up to now is     1960.6 secs

     End of self-consistent calculation

          k = 0.0000 0.0000 0.0000 ( 69231 PWs)   bands (ev):

   -39.2252 -37.9621 -36.6919 -35.5888 -22.7584 -22.6341 -22.6301 -22.6075
   -22.5074 -22.4727 -22.4628 -22.3157 -19.3656 -19.3168 -19.1708 -18.4375
   -18.3335 -17.9653 -17.8050 -17.7822 -17.7013 -16.9369 -16.8019 -16.6183
   -15.3498 -15.3287 -14.9244 -14.8943 -14.8394 -14.8357 -14.7390 -14.6290
   -14.5908 -14.5830 -14.4931 -14.4162 -14.3955 -14.3952 -14.3347 -14.2447
   -14.2004 -14.0405 -13.9605 -13.9384 -13.9295 -13.9260 -13.9201 -13.9095
   -13.8580 -13.8221 -13.6050 -13.5564 -13.4956 -13.4265  -7.9962  -7.9519
    -7.8874  -7.8327  -7.8080  -7.8071  -7.7315  -7.7002  -7.6997  -7.6698
    -7.6368  -7.5973  -7.5734  -7.5572  -7.4821  -7.4744  -7.4684  -7.4317
    -7.4075  -7.3446  -7.3178  -7.2682  -7.2660  -7.1213  -2.9694  -2.9250
    -2.7462  -2.7122  -2.1463  -2.1154  -2.0815  -2.0292  -2.0129  -2.0125
    -2.0081  -1.9800  -1.9433  -1.8205  -1.7743  -1.7356  -1.7275  -1.6805
    -1.6033  -1.5663  -1.5311  -1.4674  -1.3929  -1.3622  -1.3183  -1.3046
    -1.2683  -1.2201  -1.1608  -1.1085  -1.0899  -1.0725  -1.0436  -0.8792
    -0.8654  -0.8639  -0.8638  -0.8624  -0.8127  -0.8099  -0.7919  -0.7506
    -0.7138  -0.7119  -0.7059  -0.6377  -0.6367  -0.6132  -0.5641  -0.4977
    -0.4537  -0.4055  -0.3538  -0.2662  -0.2387  -0.1975  -0.1788  -0.1760
    -0.1183  -0.1011  -0.0781  -0.0734  -0.0508  -0.0182   0.0281   0.0640
     0.0683   0.0982   0.1035   0.1126   0.1150   0.1436   0.1835   0.1900
     0.2094   0.2350   0.2373   0.2646   0.2838   0.3254   0.3307   0.3647
     0.3699   0.4081   0.4222   0.4251   0.4561   0.4592   0.4657   0.4740
     0.4839   0.5272   0.5987   0.6418   0.6619   0.6630   0.6925   0.6927
     0.7462   0.8080   0.8750   0.8884   1.0049   1.0404   1.0630   1.1004
     1.1039   1.1492   1.1494   1.1579   1.1917   1.2332   1.2823   1.3254
     1.3294   1.3459   1.3502   1.3595   1.3829   1.4601   1.4796   1.4975
     1.5283   1.5418   1.5510   1.6342   1.6533   1.6629   1.6969   1.7090
     1.7521   1.7704   1.8210   1.8262   1.8473   1.9012   1.9136   1.9205
     1.9555   1.9561   2.0396   2.0481   2.0923   2.1734   2.2369   2.3104
     2.3269   2.3349   2.3645   2.4061   2.4253   2.4567   2.5285   2.5398
     2.6479   2.6918   2.6960   2.8204   2.9738   2.9998   5.0604   5.3392
     5.4695   5.8704   6.2415   6.5940   6.7472   6.8090   6.9502   7.0680
     7.2423   7.3884   7.3998   7.4416   7.4814   7.5609   7.5711   7.7275
     7.8222   8.1509   8.1656   8.2641   8.3038   8.3878   8.6122   8.6199
     8.6748   8.7063   8.7214   8.7707   9.0100   9.0130   9.0299   9.0974
     9.1650   9.2116

          k = 0.0000 0.2618 0.0000 ( 69249 PWs)   bands (ev):

   -39.2230 -37.9594 -36.6904 -35.5871 -22.7339 -22.6110 -22.6093 -22.5839
   -22.4884 -22.4511 -22.4421 -22.2969 -19.3610 -19.3213 -19.2058 -18.3988
   -18.3262 -18.0762 -17.8021 -17.7860 -17.7175 -16.9074 -16.7976 -16.6844
   -15.2648 -15.2436 -14.8676 -14.8421 -14.7946 -14.7812 -14.6862 -14.5857
   -14.5644 -14.5522 -14.4911 -14.3941 -14.3853 -14.3302 -14.2973 -14.2148
   -14.2081 -14.0368 -13.9863 -13.9661 -13.9264 -13.9160 -13.9154 -13.9080
   -13.8597 -13.8231 -13.6383 -13.5610 -13.5480 -13.4901  -7.9896  -7.9598
    -7.9008  -7.8268  -7.8025  -7.7643  -7.7468  -7.7123  -7.7088  -7.7053
    -7.6584  -7.6389  -7.6275  -7.5984  -7.5966  -7.5778  -7.5283  -7.5266
    -7.5215  -7.4818  -7.4455  -7.3861  -7.3518  -7.3336  -3.0704  -3.0237
    -2.8084  -2.7582  -2.3768  -2.2325  -2.1349  -2.1276  -2.0848  -2.0775
    -2.0631  -2.0052  -1.9838  -1.9560  -1.9329  -1.9099  -1.8572  -1.8130
    -1.7390  -1.7035  -1.6376  -1.5964  -1.5746  -1.5459  -1.5455  -1.4772
    -1.3930  -1.3113  -1.3090  -1.2846  -1.2819  -1.2772  -1.2750  -1.2375
    -1.2187  -1.1789  -1.0679  -1.0131  -0.9036  -0.8614  -0.7237  -0.7189
    -0.6948  -0.6780  -0.6474  -0.6423  -0.6153  -0.5789  -0.5080  -0.4904
    -0.4540  -0.4154  -0.2889  -0.2872  -0.2741  -0.2459  -0.2395  -0.2268
    -0.2109  -0.1937  -0.1485  -0.1140  -0.1036  -0.0518  -0.0384  -0.0297
    -0.0059   0.0775   0.1043   0.1179   0.1197   0.1763   0.2130   0.2141
     0.2616   0.2682   0.3008   0.3044   0.3196   0.3321   0.3681   0.3938
     0.3952   0.4244   0.4300   0.4705   0.4739   0.4990   0.5053   0.5079
     0.5308   0.5381   0.5396   0.5526   0.5982   0.7220   0.7709   0.7755
     0.7778   0.8890   0.9250   0.9542   0.9814   1.0852   1.1286   1.1643
     1.1699   1.1974   1.2279   1.2519   1.2768   1.3139   1.3298   1.3494
     1.3509   1.3816   1.4092   1.4336   1.4372   1.4661   1.4874   1.5137
     1.5427   1.6040   1.6106   1.6169   1.6476   1.6759   1.7583   1.7699
     1.7703   1.7953   1.8155   1.8476   1.8672   1.9020   1.9114   1.9313
     1.9437   1.9596   2.0223   2.1048   2.1199   2.1321   2.1866   2.2073
     2.2526   2.3019   2.4264   2.6160   2.9182   2.9503   2.9793   3.0023
     3.0179   3.0832   3.1073   3.1864   3.2575   3.3538   5.3768   5.7211
     5.7869   6.0740   6.4177   6.7164   6.7278   6.9985   7.0658   7.1565
     7.2233   7.2780   7.3751   7.6912   7.7050   7.7455   7.8805   7.8944
     7.9366   7.9793   8.2710   8.3393   8.4805   8.5535   8.5569   8.6841
     8.8212   8.8413   8.8738   8.9165   9.0503   9.0767   9.2603   9.2968
     9.3337   9.3800

          k = 0.0000 0.5236 0.0000 ( 69175 PWs)   bands (ev):

   -39.2177 -37.9529 -36.6870 -35.5830 -22.6733 -22.5642 -22.5483 -22.5258
   -22.4417 -22.4023 -22.3870 -22.2507 -19.4072 -19.3499 -19.2087 -18.3163
   -18.3087 -18.2993 -17.8389 -17.7951 -17.7103 -16.8368 -16.8247 -16.7871
   -15.1019 -15.0040 -14.7220 -14.7140 -14.7084 -14.6311 -14.5560 -14.5454
   -14.5305 -14.4567 -14.4548 -14.4067 -14.3796 -14.2610 -14.2094 -14.1629
   -14.1182 -14.0979 -14.0323 -13.9608 -13.9452 -13.9034 -13.9011 -13.8648
   -13.8590 -13.7357 -13.7301 -13.6758 -13.6308 -13.5926  -8.1773  -8.0620
    -8.0380  -8.0178  -7.9528  -7.9151  -7.9071  -7.8821  -7.8530  -7.8452
    -7.8008  -7.7764  -7.7688  -7.7258  -7.6805  -7.6771  -7.6657  -7.6474
    -7.6152  -7.5849  -7.5367  -7.4673  -7.4309  -7.2973  -3.4471  -3.4130
    -3.0550  -2.9789  -2.7775  -2.7166  -2.5385  -2.4885  -2.4372  -2.3570
    -2.3557  -2.3451  -2.1944  -2.1894  -2.1638  -2.1389  -2.1215  -2.0956
    -1.9798  -1.9756  -1.9724  -1.9700  -1.9674  -1.9576  -1.9397  -1.8529
    -1.8294  -1.6691  -1.5717  -1.5435  -1.4852  -1.4789  -1.4558  -1.3387
    -1.2235  -1.2156  -1.1136  -1.0868  -0.9667  -0.8578  -0.8487  -0.8470
    -0.7739  -0.7460  -0.7299  -0.7219  -0.7145  -0.6516  -0.5805  -0.5518
    -0.5461  -0.5363  -0.5173  -0.5004  -0.4874  -0.4861  -0.4519  -0.4240
    -0.4240  -0.4024  -0.3978  -0.3738  -0.3656  -0.3085  -0.2977  -0.2706
    -0.2317  -0.2259  -0.1582  -0.1425   0.0003   0.0221   0.1729   0.2523
     0.2646   0.3106   0.3188   0.3358   0.3485   0.3827   0.3955   0.4233
     0.4367   0.4962   0.5286   0.6215   0.6235   0.7233   0.7484   0.7909
     0.8404   0.8564   0.8958   0.9476   0.9601   0.9801   1.0766   1.1401
     1.1486   1.1620   1.1821   1.2047   1.2718   1.2811   1.3213   1.3508
     1.3656   1.3660   1.3771   1.3970   1.4128   1.4135   1.4223   1.4409
     1.4481   1.5167   1.5277   1.5422   1.5586   1.5746   1.5786   1.6195
     1.6497   1.6766   1.6797   1.7149   1.7196   1.8415   1.8430   1.8660
     1.8961   1.9190   1.9305   1.9494   1.9735   1.9777   2.0178   2.0457
     2.0715   2.1325   2.1573   2.1590   2.1623   2.1894   2.1968   2.2683
     2.3295   2.3329   2.4119   2.7134   3.1912   3.2035   3.2303   3.2565
     3.8097   3.8107   3.9218   3.9427   4.0662   4.0751   5.9971   6.1454
     6.1787   6.6218   6.6469   6.7423   6.7813   6.9923   7.0836   7.2256
     7.4880   7.8082   7.8327   7.9248   8.0910   8.2372   8.3497   8.3903
     8.4289   8.5399   8.6470   8.6761   8.7456   8.7621   8.8110   8.8257
     8.9158   8.9959   9.0760   9.0977   9.1831   9.3681   9.3968   9.4325
     9.4707   9.5003

          k = 0.0000 0.7854 0.0000 ( 69136 PWs)   bands (ev):

   -39.2124 -37.9464 -36.6835 -35.5789 -22.6109 -22.5162 -22.4853 -22.4661
   -22.3940 -22.3546 -22.3282 -22.2034 -19.5248 -19.3389 -19.1719 -18.5254
   -18.2913 -18.1932 -17.9080 -17.7881 -17.6838 -16.9591 -16.7767 -16.7510
   -14.9104 -14.7915 -14.6987 -14.6548 -14.6015 -14.5861 -14.5357 -14.4523
   -14.4500 -14.3906 -14.3732 -14.3065 -14.2727 -14.2651 -14.2195 -14.1359
   -14.0514 -14.0288 -14.0287 -13.9420 -13.9332 -13.8865 -13.8507 -13.8422
   -13.8331 -13.8188 -13.8144 -13.7256 -13.6941 -13.6343  -8.5723  -8.4634
    -8.3922  -8.3129  -8.2482  -8.2098  -8.1409  -7.9628  -7.9551  -7.9169
    -7.8875  -7.8457  -7.8021  -7.7823  -7.7361  -7.7137  -7.7074  -7.6841
    -7.5693  -7.5350  -7.5262  -7.4143  -7.3239  -7.1882  -3.9084  -3.8941
    -3.4595  -3.3913  -3.1370  -3.1162  -3.0109  -2.9177  -2.9001  -2.8564
    -2.7385  -2.7246  -2.6728  -2.6696  -2.4916  -2.4547  -2.3644  -2.3151
    -2.2702  -2.2143  -2.0864  -2.0715  -2.0196  -1.9994  -1.9941  -1.9785
    -1.7856  -1.7728  -1.7384  -1.6469  -1.6382  -1.5362  -1.5255  -1.4006
    -1.3479  -1.1961  -1.1380  -1.0720  -1.0486  -1.0036  -0.9950  -0.9620
    -0.9415  -0.8958  -0.8672  -0.8484  -0.8211  -0.8160  -0.7923  -0.7887
    -0.7638  -0.7503  -0.7406  -0.7114  -0.6907  -0.6600  -0.6553  -0.6183
    -0.6130  -0.6101  -0.5674  -0.5566  -0.5457  -0.4805  -0.4723  -0.4365
    -0.4194  -0.4026  -0.1088  -0.0911  -0.0731  -0.0187   0.0993   0.1005
     0.1537   0.1898   0.3333   0.3698   0.3840   0.3929   0.4155   0.4716
     0.5286   0.5533   0.6562   0.8332   0.9037   0.9295   0.9423   1.0056
     1.0308   1.0852   1.1239   1.1501   1.1595   1.1825   1.1905   1.2033
     1.2678   1.3259   1.3665   1.3958   1.4101   1.4499   1.4635   1.4940
     1.5019   1.5291   1.5444   1.5605   1.5983   1.5996   1.6164   1.6355
     1.6719   1.6824   1.7509   1.7827   1.7869   1.8035   1.8264   1.8355
     1.8413   1.8526   1.8683   1.8963   1.9029   1.9379   1.9463   1.9530
     1.9862   2.0366   2.0967   2.1023   2.1430   2.1503   2.1650   2.1769
     2.2202   2.2473   2.3414   2.3691   2.3740   2.4059   2.4508   2.4951
     2.5936   2.5972   2.6193   2.6339   3.0374   3.0489   3.1427   3.1651
     4.0970   4.1548   4.4927   4.5889   4.6571   4.7299   5.8482   5.8641
     6.2111   6.2361   6.8049   6.8763   7.4706   7.5557   7.5952   7.6636
     7.9498   8.0147   8.0519   8.2696   8.2955   8.5468   8.5841   8.7043
     8.7913   8.8974   8.9077   8.9525   9.0260   9.0978   9.1584   9.2044
     9.2564   9.2629   9.3629   9.4015   9.4649   9.4956   9.5165   9.5211
     9.5792   9.5906

          k = 0.0000-1.0472 0.0000 ( 69278 PWs)   bands (ev):

   -39.2101 -37.9437 -36.6821 -35.5772 -22.5846 -22.4960 -22.4586 -22.4409
   -22.3740 -22.3346 -22.3032 -22.1834 -19.5738 -19.3343 -19.1542 -18.6060
   -18.2841 -18.1459 -17.9370 -17.7853 -17.6716 -17.0095 -16.7725 -16.7153
   -14.7990 -14.7967 -14.7001 -14.6757 -14.5934 -14.5540 -14.5108 -14.4306
   -14.3921 -14.3737 -14.3580 -14.2632 -14.1579 -14.1369 -14.1223 -14.1133
   -14.0986 -14.0458 -14.0377 -13.9939 -13.9339 -13.9252 -13.8643 -13.8195
   -13.8142 -13.8010 -13.7968 -13.7885 -13.7539 -13.5972  -8.7256  -8.6178
    -8.5451  -8.4316  -8.4008  -8.3283  -8.2633  -8.0114  -7.9752  -7.9597
    -7.8813  -7.8732  -7.7972  -7.7867  -7.7673  -7.7296  -7.7033  -7.6949
    -7.5837  -7.5390  -7.4736  -7.3611  -7.2763  -7.1401  -4.1055  -4.0902
    -3.6460  -3.5866  -3.2989  -3.2714  -3.1884  -3.1099  -3.0908  -3.0067
    -2.9700  -2.9513  -2.9030  -2.9007  -2.5204  -2.4708  -2.3940  -2.3829
    -2.3370  -2.3341  -2.1088  -2.0939  -2.0114  -2.0069  -1.9825  -1.9779
    -1.8872  -1.8661  -1.8091  -1.7467  -1.6473  -1.4531  -1.4445  -1.4202
    -1.2843  -1.2638  -1.1972  -1.1727  -1.1015  -1.0784  -1.0715  -1.0140
    -0.9776  -0.9440  -0.9290  -0.9273  -0.9266  -0.9232  -0.8706  -0.8616
    -0.8319  -0.8277  -0.8032  -0.7978  -0.7697  -0.7672  -0.7119  -0.7061
    -0.6747  -0.6721  -0.6656  -0.6571  -0.6359  -0.5696  -0.5673  -0.3939
    -0.3769  -0.3410  -0.0920  -0.0571  -0.0550  -0.0447   0.0000   0.0097
     0.0617   0.1436   0.3404   0.3793   0.4009   0.4036   0.4077   0.4712
     0.5603   0.5879   0.7176   0.8739   0.8935   0.8999   1.0219   1.0534
     1.0556   1.0935   1.1478   1.2144   1.2403   1.2816   1.3240   1.3489
     1.3537   1.3612   1.3832   1.4639   1.4941   1.5038   1.5144   1.5256
     1.5621   1.5662   1.5819   1.5822   1.6112   1.6586   1.7183   1.7360
     1.7708   1.7840   1.7846   1.7890   1.8371   1.8798   1.9053   1.9433
     1.9632   1.9647   1.9936   2.0007   2.0221   2.0452   2.0616   2.0851
     2.0937   2.1195   2.1995   2.2170   2.2511   2.3058   2.3169   2.3352
     2.3464   2.3478   2.3546   2.3601   2.5418   2.5726   2.5746   2.5773
     2.6524   2.7569   2.7601   2.7933   2.8025   2.8174   2.9734   2.9941
     4.1224   4.2043   4.6836   4.7964   4.8664   4.9522   5.7562   5.7806
     5.9715   5.9907   6.7651   7.4982   7.5620   7.5883   7.8456   7.9505
     8.0068   8.0960   8.2287   8.3705   8.4195   8.4892   8.5251   8.7503
     8.9022   8.9258   9.0521   9.0873   9.0970   9.1343   9.1541   9.2654
     9.3513   9.3581   9.3675   9.4000   9.4433   9.5520   9.5558   9.5793
     9.6773   9.7170

          k = 0.1250 0.0000 0.0000 ( 69249 PWs)   bands (ev):

   -39.2252 -37.9621 -36.6919 -35.5888 -22.7540 -22.6349 -22.6295 -22.6039
   -22.5124 -22.4728 -22.4633 -22.3192 -19.3646 -19.3167 -19.1708 -18.4368
   -18.3303 -17.9653 -17.8077 -17.7822 -17.7014 -16.9399 -16.8140 -16.6183
   -15.3226 -15.3148 -14.9108 -14.8937 -14.8321 -14.8285 -14.7518 -14.6321
   -14.5869 -14.5642 -14.5058 -14.4629 -14.4058 -14.4028 -14.3613 -14.2136
   -14.1962 -14.0349 -13.9455 -13.9402 -13.9288 -13.9284 -13.9211 -13.9046
   -13.8464 -13.8261 -13.6128 -13.5575 -13.5102 -13.4306  -7.9985  -7.9531
    -7.8917  -7.8364  -7.8112  -7.7941  -7.7382  -7.7087  -7.6830  -7.6615
    -7.6534  -7.5800  -7.5765  -7.5487  -7.4745  -7.4741  -7.4614  -7.4411
    -7.4079  -7.3372  -7.3274  -7.2744  -7.2695  -7.1297  -2.9396  -2.8902
    -2.7132  -2.6773  -2.1418  -2.1115  -2.0862  -2.0615  -2.0473  -2.0234
    -1.9973  -1.9764  -1.9495  -1.8412  -1.7720  -1.7483  -1.7159  -1.7013
    -1.6107  -1.6078  -1.5273  -1.4474  -1.3912  -1.3745  -1.3592  -1.3106
    -1.3054  -1.1976  -1.1829  -1.1021  -1.0429  -1.0413  -0.9880  -0.8684
    -0.8647  -0.8618  -0.8618  -0.8608  -0.8450  -0.8167  -0.7857  -0.7589
    -0.6895  -0.6831  -0.6676  -0.6447  -0.6166  -0.5913  -0.5419  -0.5128
    -0.4648  -0.4143  -0.3505  -0.2528  -0.2461  -0.2298  -0.1850  -0.1754
    -0.1269  -0.1227  -0.0967  -0.0808  -0.0713  -0.0497  -0.0416   0.0038
     0.0377   0.0972   0.1020   0.1095   0.1099   0.1439   0.1644   0.1937
     0.2061   0.2671   0.2766   0.2883   0.3267   0.3325   0.3532   0.3633
     0.3691   0.4000   0.4400   0.4458   0.4519   0.4549   0.4706   0.4841
     0.5224   0.5430   0.6016   0.6367   0.6667   0.6729   0.6800   0.6879
     0.7465   0.8260   0.8600   0.8686   0.8949   1.0165   1.0346   1.0832
     1.1149   1.1369   1.1459   1.1566   1.2071   1.2427   1.2827   1.2870
     1.3101   1.3192   1.3578   1.3605   1.3934   1.4126   1.4802   1.5200
     1.5354   1.5547   1.5752   1.6501   1.6551   1.6575   1.6986   1.7262
     1.7533   1.7695   1.8340   1.8456   1.8753   1.8845   1.9225   1.9323
     1.9500   1.9948   2.0196   2.0764   2.0923   2.1605   2.2251   2.2995
     2.3212   2.3221   2.3608   2.4010   2.4269   2.4369   2.5299   2.5530
     2.6528   2.7040   2.7056   2.8170   2.9720   2.9933   5.1188   5.3887
     5.5075   5.9149   6.2704   6.6212   6.8001   6.8240   6.8774   7.0227
     7.0419   7.1038   7.2449   7.5082   7.6039   7.7330   7.8273   7.8582
     7.8893   8.1336   8.1798   8.2653   8.3073   8.4235   8.6050   8.6682
     8.6957   8.7017   8.7444   8.8006   8.9140   9.0329   9.0400   9.0903
     9.1186   9.1470

          k = 0.1250 0.2618 0.0000 ( 69223 PWs)   bands (ev):

   -39.2230 -37.9594 -36.6904 -35.5871 -22.7296 -22.6155 -22.6049 -22.5805
   -22.4931 -22.4527 -22.4411 -22.3002 -19.3600 -19.3212 -19.2058 -18.3981
   -18.3230 -18.0762 -17.8047 -17.7860 -17.7175 -16.9102 -16.8090 -16.6843
   -15.2517 -15.2170 -14.8567 -14.8444 -14.7878 -14.7766 -14.6951 -14.5862
   -14.5551 -14.5414 -14.4975 -14.4026 -14.3910 -14.3871 -14.3259 -14.2095
   -14.1716 -14.0321 -13.9886 -13.9505 -13.9270 -13.9175 -13.9108 -13.9070
   -13.8633 -13.8137 -13.6455 -13.5671 -13.5562 -13.4905  -7.9915  -7.9609
    -7.9069  -7.8275  -7.8202  -7.8071  -7.7563  -7.7477  -7.7170  -7.7097
    -7.6567  -7.6491  -7.6330  -7.5998  -7.5924  -7.5824  -7.5371  -7.4831
    -7.4829  -7.4679  -7.4521  -7.4021  -7.3100  -7.2864  -3.0384  -2.9876
    -2.7729  -2.7220  -2.3832  -2.2411  -2.1413  -2.1185  -2.0871  -2.0809
    -2.0645  -2.0151  -2.0021  -1.9601  -1.9454  -1.9153  -1.8518  -1.8293
    -1.7413  -1.7036  -1.6663  -1.6283  -1.6073  -1.5583  -1.5284  -1.4479
    -1.3773  -1.3519  -1.3075  -1.3047  -1.2798  -1.2792  -1.2531  -1.2276
    -1.2070  -1.1530  -1.0604  -0.9870  -0.9074  -0.8668  -0.7345  -0.7253
    -0.7028  -0.6890  -0.6355  -0.6335  -0.6119  -0.5725  -0.5256  -0.5020
    -0.4796  -0.4058  -0.3325  -0.3135  -0.2673  -0.2583  -0.2533  -0.2391
    -0.2159  -0.2034  -0.1705  -0.1647  -0.0891  -0.0396  -0.0235  -0.0185
    -0.0095   0.0815   0.0993   0.1121   0.1187   0.1677   0.1901   0.1917
     0.2622   0.2715   0.2862   0.3020   0.3192   0.3323   0.3998   0.4062
     0.4074   0.4099   0.4347   0.4688   0.4882   0.4975   0.5043   0.5198
     0.5324   0.5401   0.5547   0.5671   0.6184   0.7329   0.7535   0.7545
     0.7718   0.8903   0.9459   0.9725   0.9952   1.0603   1.0705   1.1554
     1.1796   1.2148   1.2317   1.2518   1.2887   1.3200   1.3284   1.3417
     1.3687   1.3771   1.3962   1.4123   1.4249   1.4574   1.4772   1.5173
     1.5216   1.5412   1.6067   1.6426   1.6531   1.6837   1.7318   1.7562
     1.7990   1.8119   1.8222   1.8363   1.8591   1.8989   1.9133   1.9376
     1.9459   1.9864   2.0020   2.0155   2.1077   2.1183   2.2305   2.2773
     2.3412   2.4318   2.4361   2.6296   2.9149   2.9516   2.9818   3.0020
     3.0142   3.0810   3.1131   3.1855   3.2550   3.3455   5.4163   5.7584
     5.8189   6.1007   6.4454   6.6562   6.7619   7.0326   7.0568   7.1034
     7.1204   7.1775   7.4126   7.6878   7.7627   7.8226   7.9058   7.9713
     8.0136   8.0356   8.2847   8.3560   8.4805   8.5304   8.5871   8.6984
     8.7922   8.8778   8.9103   8.9475   9.0394   9.0625   9.2108   9.2468
     9.3107   9.3317

          k = 0.1250 0.5236 0.0000 ( 69170 PWs)   bands (ev):

   -39.2177 -37.9529 -36.6870 -35.5830 -22.6696 -22.5681 -22.5444 -22.5228
   -22.4458 -22.4051 -22.3847 -22.2535 -19.4072 -19.3489 -19.2087 -18.3163
   -18.3056 -18.2987 -17.8389 -17.7974 -17.7104 -16.8385 -16.8256 -16.7972
   -15.0908 -14.9796 -14.7324 -14.7091 -14.7015 -14.6328 -14.5540 -14.5441
   -14.5200 -14.4590 -14.4497 -14.4064 -14.3795 -14.2660 -14.2245 -14.2145
   -14.1369 -14.0566 -14.0340 -13.9475 -13.9436 -13.8998 -13.8994 -13.8662
   -13.8600 -13.7349 -13.7336 -13.6771 -13.6337 -13.5926  -8.2111  -8.0990
    -8.0542  -7.9726  -7.9407  -7.9373  -7.8886  -7.8670  -7.8525  -7.8447
    -7.8063  -7.7749  -7.7735  -7.7489  -7.7140  -7.7031  -7.6716  -7.6117
    -7.5955  -7.5866  -7.5331  -7.4849  -7.3916  -7.2601  -3.4128  -3.3774
    -3.0179  -2.9435  -2.7870  -2.7258  -2.5403  -2.4906  -2.4358  -2.3575
    -2.3544  -2.3401  -2.1897  -2.1868  -2.1647  -2.1375  -2.1213  -2.0959
    -1.9853  -1.9804  -1.9704  -1.9699  -1.9661  -1.9560  -1.9135  -1.8667
    -1.8201  -1.7087  -1.5574  -1.5532  -1.5302  -1.4593  -1.4475  -1.3311
    -1.2934  -1.2256  -1.1205  -1.0901  -0.9797  -0.8782  -0.8665  -0.8495
    -0.7911  -0.7625  -0.7356  -0.7064  -0.6876  -0.6672  -0.6316  -0.5991
    -0.5645  -0.5521  -0.5303  -0.5094  -0.4948  -0.4823  -0.4737  -0.4556
    -0.4077  -0.4013  -0.3939  -0.3904  -0.3670  -0.3559  -0.2977  -0.2676
    -0.2313  -0.2192  -0.1520  -0.1394   0.0138   0.0599   0.2022   0.2570
     0.2681   0.2798   0.2952   0.3056   0.3627   0.3701   0.4079   0.4191
     0.4529   0.4745   0.5528   0.6122   0.6557   0.7149   0.7717   0.7986
     0.8449   0.8747   0.8885   0.9585   0.9689   0.9862   1.0924   1.1178
     1.1336   1.1553   1.1874   1.2103   1.2322   1.2761   1.2919   1.3028
     1.3184   1.3534   1.3709   1.3936   1.4318   1.4444   1.4582   1.4700
     1.4889   1.5040   1.5293   1.5645   1.5686   1.5807   1.5981   1.6245
     1.6432   1.6669   1.6871   1.7072   1.7381   1.7950   1.8181   1.8283
     1.8760   1.9150   1.9382   1.9445   1.9527   1.9759   2.0004   2.0355
     2.0611   2.1134   2.1793   2.1829   2.1914   2.2442   2.2533   2.3194
     2.3528   2.4649   2.5582   2.7526   3.1924   3.2052   3.2314   3.2581
     3.8020   3.8120   3.8961   3.9124   4.0403   4.0482   6.0174   6.1291
     6.2214   6.6373   6.6622   6.7502   6.7950   6.9996   7.1021   7.2483
     7.4675   7.7850   7.8343   7.9729   8.1143   8.2490   8.3651   8.4067
     8.4312   8.5289   8.6539   8.6697   8.6774   8.7638   8.7944   8.8488
     8.9189   9.0150   9.0609   9.1166   9.1939   9.3161   9.3961   9.4326
     9.4670   9.5134

          k = 0.1250 0.7854 0.0000 ( 69162 PWs)   bands (ev):

   -39.2124 -37.9464 -36.6835 -35.5789 -22.6078 -22.5195 -22.4819 -22.4636
   -22.3975 -22.3571 -22.3261 -22.2057 -19.5248 -19.3379 -19.1719 -18.5254
   -18.2883 -18.1926 -17.9080 -17.7903 -17.6839 -16.9591 -16.7861 -16.7532
   -14.9023 -14.7759 -14.6904 -14.6376 -14.6152 -14.5754 -14.5364 -14.4617
   -14.4454 -14.3900 -14.3709 -14.3029 -14.2746 -14.2657 -14.2193 -14.1452
   -14.0664 -14.0556 -14.0249 -13.9398 -13.9254 -13.8879 -13.8494 -13.8404
   -13.8289 -13.8195 -13.8144 -13.7229 -13.6991 -13.6385  -8.5626  -8.4540
    -8.3806  -8.2708  -8.2410  -8.1670  -8.0946  -7.9601  -7.9545  -7.8927
    -7.8891  -7.8857  -7.8016  -7.7992  -7.7633  -7.7349  -7.7169  -7.6970
    -7.5977  -7.5515  -7.5411  -7.4298  -7.3396  -7.2042  -3.8716  -3.8572
    -3.4246  -3.3591  -3.1502  -3.1300  -3.0115  -2.9233  -2.9024  -2.8645
    -2.7360  -2.7227  -2.6753  -2.6718  -2.4778  -2.4446  -2.3497  -2.3032
    -2.2440  -2.1874  -2.0879  -2.0718  -2.0185  -2.0059  -1.9914  -1.9772
    -1.7731  -1.7532  -1.7355  -1.6886  -1.6415  -1.5509  -1.4978  -1.4354
    -1.3910  -1.2320  -1.1696  -1.1012  -1.0874  -1.0474  -0.9911  -0.9677
    -0.9584  -0.9244  -0.8931  -0.8766  -0.8516  -0.8401  -0.7944  -0.7760
    -0.7640  -0.7494  -0.7414  -0.7185  -0.6965  -0.6745  -0.6430  -0.6342
    -0.6167  -0.6045  -0.6022  -0.5782  -0.5513  -0.4845  -0.4828  -0.4156
    -0.4037  -0.3838  -0.1018  -0.0940  -0.0327   0.0083   0.1027   0.1569
     0.2082   0.2475   0.3052   0.3135   0.3659   0.4181   0.4387   0.4480
     0.5101   0.5398   0.7013   0.8093   0.9159   0.9255   0.9567   0.9802
     1.0270   1.0969   1.1171   1.1404   1.1600   1.2034   1.2166   1.2249
     1.2518   1.3265   1.3679   1.3856   1.3911   1.4199   1.4508   1.4671
     1.4800   1.5232   1.5420   1.5617   1.5993   1.6161   1.6339   1.6455
     1.6731   1.6850   1.7100   1.7586   1.7791   1.7971   1.8209   1.8355
     1.8639   1.8738   1.8957   1.9142   1.9413   1.9487   1.9561   1.9658
     1.9882   2.0088   2.0899   2.1133   2.1367   2.1698   2.1862   2.2138
     2.2673   2.2910   2.3711   2.3790   2.3834   2.4488   2.4968   2.5401
     2.5853   2.5895   2.6039   2.6742   3.0397   3.0516   3.1479   3.1704
     4.0965   4.1612   4.4333   4.5251   4.5996   4.6693   5.8417   5.9270
     6.2664   6.2945   6.7872   6.9054   7.4354   7.5223   7.5605   7.6173
     7.9398   7.9965   8.0765   8.2332   8.3588   8.4724   8.5646   8.7167
     8.7932   8.8761   8.9354   8.9568   9.0142   9.1445   9.1873   9.1993
     9.2572   9.3052   9.3876   9.4190   9.4862   9.4945   9.5129   9.5292
     9.5945   9.6212

          k = 0.1250-1.0472 0.0000 ( 69250 PWs)   bands (ev):

   -39.2101 -37.9437 -36.6821 -35.5772 -22.5816 -22.4990 -22.4555 -22.4385
   -22.3772 -22.3370 -22.3012 -22.1855 -19.5738 -19.3333 -19.1542 -18.6059
   -18.2811 -18.1454 -17.9370 -17.7874 -17.6716 -17.0095 -16.7815 -16.7173
   -14.7916 -14.7873 -14.6896 -14.6688 -14.5697 -14.5555 -14.5099 -14.4178
   -14.3994 -14.3933 -14.3729 -14.2572 -14.1582 -14.1381 -14.1239 -14.1136
   -14.0917 -14.0566 -14.0327 -14.0113 -13.9345 -13.9209 -13.8763 -13.8191
   -13.8138 -13.8019 -13.7977 -13.7918 -13.7486 -13.6037  -8.6954  -8.5877
    -8.5158  -8.4011  -8.3715  -8.2975  -8.2323  -7.9964  -7.9640  -7.9544
    -7.9083  -7.8842  -7.8024  -7.7950  -7.7833  -7.7615  -7.7062  -7.6970
    -7.6162  -7.5435  -7.5174  -7.4054  -7.3149  -7.1785  -4.0676  -4.0521
    -3.6116  -3.5546  -3.3105  -3.2849  -3.1951  -3.1120  -3.0967  -3.0165
    -2.9686  -2.9507  -2.9057  -2.9031  -2.5035  -2.4576  -2.3759  -2.3577
    -2.3218  -2.3114  -2.1111  -2.0950  -2.0182  -2.0078  -1.9813  -1.9766
    -1.8552  -1.8486  -1.8007  -1.7205  -1.6252  -1.4859  -1.4557  -1.4107
    -1.4023  -1.3048  -1.2586  -1.2258  -1.1472  -1.0881  -1.0759  -1.0364
    -1.0207  -0.9841  -0.9537  -0.9468  -0.9081  -0.9074  -0.8969  -0.8667
    -0.8543  -0.8276  -0.7944  -0.7863  -0.7811  -0.7399  -0.7279  -0.7077
    -0.6966  -0.6779  -0.6635  -0.6587  -0.6340  -0.5751  -0.5739  -0.3802
    -0.3698  -0.3203  -0.0688  -0.0630  -0.0338   0.0240   0.0328   0.0428
     0.1516   0.1883   0.3055   0.3176   0.3921   0.4241   0.4253   0.4438
     0.5443   0.5756   0.7675   0.8680   0.9203   0.9417   0.9858   1.0188
     1.0496   1.0811   1.1539   1.2099   1.2314   1.2640   1.3310   1.3377
     1.3584   1.3671   1.4032   1.4415   1.4761   1.4797   1.4883   1.5191
     1.5316   1.5653   1.5882   1.5915   1.6170   1.6742   1.7109   1.7329
     1.7592   1.7687   1.7879   1.8250   1.8784   1.8894   1.9437   1.9519
     1.9718   1.9760   1.9979   2.0015   2.0109   2.0625   2.0797   2.1014
     2.1471   2.1944   2.1955   2.2540   2.2945   2.3161   2.3186   2.3270
     2.3419   2.3518   2.3590   2.4458   2.5150   2.5490   2.5793   2.5812
     2.6477   2.7497   2.7525   2.7611   2.8076   2.8221   2.9841   3.0032
     4.1183   4.2222   4.6103   4.7178   4.7930   4.8729   5.7588   5.8338
     6.0396   6.0633   6.7957   7.2883   7.5629   7.7214   7.7319   7.8581
     8.0301   8.0713   8.2525   8.3513   8.3779   8.4347   8.4968   8.7462
     8.8997   9.0040   9.0284   9.1412   9.1623   9.1794   9.2427   9.2905
     9.3659   9.4004   9.4159   9.4265   9.4380   9.5531   9.5641   9.6105
     9.7078   9.7309

          k = 0.2500 0.0000 0.0000 ( 69201 PWs)   bands (ev):

   -39.2252 -37.9621 -36.6919 -35.5888 -22.7413 -22.6483 -22.6163 -22.5943
   -22.5263 -22.4807 -22.4571 -22.3285 -19.3621 -19.3166 -19.1708 -18.4350
   -18.3224 -17.9653 -17.8138 -17.7824 -17.7014 -16.9470 -16.8424 -16.6183
   -15.2777 -15.2483 -14.9201 -14.8702 -14.8113 -14.8076 -14.7570 -14.6448
   -14.5787 -14.5691 -14.5356 -14.5108 -14.4353 -14.4209 -14.4135 -14.1927
   -14.1695 -14.0205 -13.9446 -13.9361 -13.9346 -13.9282 -13.9229 -13.8667
   -13.8392 -13.8091 -13.6353 -13.5625 -13.5495 -13.4401  -8.0033  -7.9558
    -7.8993  -7.8453  -7.8192  -7.7611  -7.7474  -7.7268  -7.6737  -7.6482
    -7.6378  -7.5990  -7.5436  -7.5244  -7.4904  -7.4673  -7.4528  -7.4438
    -7.3995  -7.3544  -7.3166  -7.2976  -7.2737  -7.1531  -2.8551  -2.7894
    -2.6190  -2.5774  -2.1911  -2.1301  -2.1290  -2.0835  -2.0589  -2.0470
    -2.0155  -1.9714  -1.9674  -1.8890  -1.8281  -1.7654  -1.7472  -1.6990
    -1.6433  -1.6289  -1.5456  -1.5180  -1.4036  -1.3814  -1.3488  -1.3460
    -1.3084  -1.2194  -1.1346  -1.0672  -0.9753  -0.9330  -0.8858  -0.8807
    -0.8626  -0.8592  -0.8579  -0.8550  -0.8511  -0.8347  -0.7965  -0.7158
    -0.6613  -0.6517  -0.6326  -0.6101  -0.5808  -0.5574  -0.5275  -0.5140
    -0.4826  -0.4115  -0.3561  -0.3202  -0.2390  -0.2348  -0.2211  -0.2034
    -0.1846  -0.1626  -0.1558  -0.1258  -0.1238  -0.1234  -0.1226  -0.0615
     0.0444   0.0815   0.0974   0.0982   0.1019   0.1260   0.1418   0.1563
     0.2237   0.3021   0.3309   0.3310   0.3349   0.3564   0.3575   0.3596
     0.3856   0.4216   0.4299   0.4686   0.4736   0.4802   0.5107   0.5203
     0.5443   0.5957   0.6019   0.6271   0.6551   0.6741   0.6880   0.7029
     0.7448   0.7842   0.8019   0.8483   0.8937   0.9916   1.0350   1.0704
     1.0849   1.1223   1.1364   1.1533   1.1709   1.1900   1.2167   1.2777
     1.2957   1.3129   1.3559   1.3928   1.3970   1.4122   1.4430   1.5050
     1.5220   1.5657   1.5658   1.6368   1.6595   1.6775   1.6798   1.6999
     1.7588   1.7650   1.8352   1.8401   1.8788   1.9169   1.9228   1.9406
     1.9667   2.0421   2.0929   2.1042   2.1258   2.1810   2.2378   2.2631
     2.2934   2.3042   2.3454   2.3841   2.4018   2.4343   2.5340   2.5863
     2.6609   2.7284   2.7434   2.8048   2.9599   2.9708   5.2781   5.5266
     5.6164   6.0333   6.3574   6.6080   6.6360   6.6509   6.6798   6.9657
     6.9958   7.2329   7.2514   7.5430   7.6085   7.7661   7.8890   8.0902
     8.1388   8.1678   8.2512   8.2681   8.3845   8.5198   8.5258   8.6276
     8.6677   8.6711   8.8311   8.8799   8.9209   8.9834   9.0175   9.0392
     9.0793   9.1548

          k = 0.2500 0.2618 0.0000 ( 69198 PWs)   bands (ev):

   -39.2230 -37.9594 -36.6905 -35.5871 -22.7175 -22.6283 -22.5923 -22.5713
   -22.5064 -22.4611 -22.4344 -22.3090 -19.3576 -19.3211 -19.2057 -18.3964
   -18.3153 -18.0762 -17.8106 -17.7860 -17.7176 -16.9171 -16.8361 -16.6841
   -15.2158 -15.1449 -14.8764 -14.8207 -14.7694 -14.7603 -14.6952 -14.5961
   -14.5398 -14.5239 -14.5138 -14.4780 -14.4261 -14.4030 -14.3818 -14.2044
   -14.1286 -14.0213 -13.9936 -13.9332 -13.9283 -13.9222 -13.9127 -13.8740
   -13.8699 -13.7870 -13.6660 -13.5922 -13.5709 -13.4905  -7.9979  -7.9631
    -7.9271  -7.8738  -7.8353  -7.8249  -7.7931  -7.7906  -7.7483  -7.7380
    -7.6969  -7.6665  -7.6359  -7.6281  -7.5761  -7.5332  -7.5214  -7.4908
    -7.4640  -7.4246  -7.3936  -7.3578  -7.2498  -7.2252  -2.9475  -2.8835
    -2.6722  -2.6187  -2.4118  -2.2761  -2.1623  -2.1162  -2.1024  -2.0965
    -2.0597  -2.0448  -2.0352  -1.9702  -1.9524  -1.9275  -1.8771  -1.8415
    -1.7704  -1.7431  -1.7205  -1.7011  -1.6329  -1.5691  -1.5298  -1.4933
    -1.3589  -1.3431  -1.3050  -1.2984  -1.2832  -1.2822  -1.2057  -1.1733
    -1.1714  -1.0746  -1.0372  -0.9262  -0.9130  -0.8698  -0.7588  -0.7499
    -0.7471  -0.7069  -0.6889  -0.6364  -0.5877  -0.5803  -0.5355  -0.4953
    -0.4833  -0.4717  -0.4519  -0.3794  -0.3394  -0.3247  -0.2507  -0.2418
    -0.2231  -0.2010  -0.1845  -0.1737  -0.0879  -0.0415  -0.0231   0.0031
     0.0158   0.0792   0.0967   0.1033   0.1240   0.1283   0.1408   0.1475
     0.2595   0.2652   0.2678   0.2835   0.2919   0.2978   0.3995   0.4386
     0.4402   0.4431   0.4650   0.4979   0.4995   0.5014   0.5156   0.5325
     0.5453   0.5689   0.5925   0.6000   0.6633   0.7043   0.7157   0.7709
     0.7905   0.8741   0.9802   0.9961   1.0081   1.0219   1.0569   1.1667
     1.2048   1.2241   1.2477   1.2618   1.2777   1.2983   1.3175   1.3297
     1.3453   1.3562   1.3779   1.3875   1.3949   1.4500   1.4672   1.4959
     1.5494   1.5526   1.5766   1.5960   1.6260   1.6429   1.7361   1.7457
     1.7806   1.7846   1.8104   1.8390   1.8594   1.8758   1.8965   1.9209
     1.9312   1.9518   1.9742   2.0609   2.0675   2.1720   2.3513   2.4276
     2.4420   2.5090   2.6479   2.6901   2.9018   2.9479   2.9889   2.9949
     3.0117   3.0710   3.1296   3.1762   3.2400   3.3165   5.5270   5.8658
     5.9124   6.1677   6.5136   6.5549   6.7725   6.7980   6.8112   7.0915
     7.2695   7.2821   7.5234   7.6155   7.7656   7.9161   7.9959   8.0200
     8.1929   8.2175   8.3154   8.4050   8.4877   8.5402   8.6735   8.6939
     8.7367   8.8187   8.9396   8.9959   9.0170   9.0444   9.1231   9.1417
     9.1813   9.2248

          k = 0.2500 0.5236 0.0000 ( 69170 PWs)   bands (ev):

   -39.2177 -37.9529 -36.6870 -35.5830 -22.6590 -22.5791 -22.5333 -22.5149
   -22.4574 -22.4131 -22.3782 -22.2610 -19.4072 -19.3465 -19.2087 -18.3162
   -18.2981 -18.2973 -17.8389 -17.8029 -17.7107 -16.8433 -16.8278 -16.8204
   -15.0604 -14.9136 -14.7665 -14.6938 -14.6843 -14.6333 -14.5487 -14.5338
   -14.5032 -14.4645 -14.4374 -14.4049 -14.3797 -14.3087 -14.2927 -14.2420
   -14.1468 -14.0465 -14.0283 -13.9324 -13.9240 -13.8949 -13.8889 -13.8704
   -13.8592 -13.7486 -13.7273 -13.6813 -13.6412 -13.5924  -8.2465  -8.1361
    -8.0745  -7.9934  -7.9591  -7.9559  -7.8935  -7.8860  -7.8811  -7.8126
    -7.8092  -7.7811  -7.7740  -7.7463  -7.7235  -7.6945  -7.6665  -7.6357
    -7.5828  -7.5481  -7.5058  -7.4382  -7.3535  -7.2220  -3.3165  -3.2769
    -2.9158  -2.8464  -2.8206  -2.7589  -2.5490  -2.5000  -2.4325  -2.3625
    -2.3447  -2.3234  -2.1765  -2.1752  -2.1688  -2.1334  -2.1194  -2.0940
    -2.0386  -1.9876  -1.9714  -1.9685  -1.9641  -1.9500  -1.9317  -1.8296
    -1.8043  -1.7314  -1.7124  -1.5224  -1.4874  -1.4839  -1.4259  -1.3753
    -1.3114  -1.2362  -1.1531  -1.1168  -1.0129  -0.9407  -0.9265  -0.8936
    -0.8652  -0.8007  -0.7788  -0.7532  -0.7233  -0.6947  -0.6778  -0.6547
    -0.6255  -0.6195  -0.5597  -0.5290  -0.4989  -0.4928  -0.4577  -0.4454
    -0.4277  -0.3851  -0.3799  -0.3736  -0.3697  -0.3637  -0.2904  -0.2809
    -0.2389  -0.1900  -0.1404  -0.1374   0.0117   0.0479   0.1176   0.2181
     0.2510   0.2719   0.3122   0.3429   0.3554   0.3697   0.4009   0.4758
     0.4913   0.5383   0.5817   0.6248   0.6958   0.7185   0.7549   0.8194
     0.8720   0.8894   0.9426   0.9781   0.9876   0.9961   1.0496   1.1071
     1.1205   1.1402   1.1942   1.2056   1.2114   1.2352   1.2379   1.2571
     1.2668   1.3117   1.3632   1.3678   1.3831   1.4774   1.4932   1.5051
     1.5340   1.5690   1.5740   1.5930   1.6010   1.6207   1.6267   1.6363
     1.6540   1.6677   1.6907   1.7069   1.7281   1.7564   1.7635   1.7966
     1.8292   1.8685   1.9166   1.9256   1.9355   1.9700   1.9778   2.0013
     2.0258   2.1405   2.1514   2.1644   2.1857   2.3121   2.3354   2.4496
     2.6449   2.7141   2.8638   2.9171   3.1951   3.2094   3.2380   3.2668
     3.7465   3.8040   3.8176   3.8553   3.9554   3.9644   6.0690   6.1226
     6.2976   6.6780   6.7036   6.7682   6.8238   7.0120   7.1600   7.3026
     7.4014   7.7022   7.8844   8.1075   8.1849   8.2646   8.3398   8.4234
     8.4834   8.5249   8.5538   8.6544   8.6774   8.7564   8.7921   8.8878
     8.9535   9.0185   9.0906   9.1302   9.1994   9.2254   9.3664   9.4212
     9.4516   9.4937

          k = 0.2500 0.7854 0.0000 ( 69176 PWs)   bands (ev):

   -39.2124 -37.9464 -36.6835 -35.5789 -22.5989 -22.5288 -22.4724 -22.4569
   -22.4074 -22.3640 -22.3205 -22.2118 -19.5248 -19.3355 -19.1719 -18.5253
   -18.2809 -18.1914 -17.9080 -17.7955 -17.6841 -16.9590 -16.8085 -16.7584
   -14.8807 -14.7365 -14.6683 -14.6374 -14.5865 -14.5611 -14.5488 -14.4879
   -14.4309 -14.3818 -14.3649 -14.2925 -14.2790 -14.2681 -14.2181 -14.1692
   -14.1351 -14.0889 -14.0100 -13.9348 -13.9221 -13.8917 -13.8459 -13.8360
   -13.8222 -13.8163 -13.8147 -13.7205 -13.7081 -13.6497  -8.5227  -8.4145
    -8.3387  -8.2025  -8.1616  -8.0561  -8.0198  -7.9858  -7.9484  -7.9396
    -7.9110  -7.8950  -7.8545  -7.8175  -7.7739  -7.7637  -7.7238  -7.7090
    -7.6890  -7.5973  -7.5623  -7.4872  -7.3935  -7.2568  -3.7691  -3.7547
    -3.3303  -3.2730  -3.1949  -3.1754  -3.0131  -2.9427  -2.9085  -2.8891
    -2.7289  -2.7172  -2.6824  -2.6780  -2.4336  -2.4116  -2.3035  -2.2641
    -2.1684  -2.1110  -2.0920  -2.0749  -2.0310  -2.0137  -1.9796  -1.9731
    -1.8608  -1.7463  -1.6934  -1.6794  -1.6671  -1.6055  -1.5176  -1.4873
    -1.3767  -1.3514  -1.3065  -1.2508  -1.1693  -1.1046  -1.0793  -1.0523
    -0.9907  -0.9641  -0.9478  -0.9336  -0.8915  -0.8550  -0.8463  -0.7835
    -0.7767  -0.7676  -0.7224  -0.6842  -0.6652  -0.6450  -0.6287  -0.6154
    -0.6096  -0.5958  -0.5834  -0.5703  -0.5333  -0.4943  -0.4843  -0.4237
    -0.3942  -0.3567  -0.1355  -0.1245  -0.0462   0.0358   0.0889   0.1898
     0.2572   0.3226   0.3312   0.3726   0.3861   0.4636   0.4670   0.5020
     0.5094   0.5290   0.7507   0.8217   0.8469   0.8598   1.0126   1.0324
     1.0595   1.0932   1.1067   1.1426   1.1680   1.1798   1.2467   1.2793
     1.2880   1.2950   1.3307   1.3590   1.3795   1.3980   1.4289   1.4408
     1.4589   1.4996   1.5344   1.5392   1.6144   1.6213   1.6385   1.6477
     1.6711   1.6757   1.7154   1.7274   1.7584   1.7915   1.8176   1.8255
     1.8482   1.8707   1.9033   1.9207   1.9328   1.9419   1.9652   1.9834
     2.0079   2.0122   2.0810   2.0901   2.1160   2.1371   2.1664   2.1831
     2.2871   2.4036   2.4044   2.4403   2.4820   2.5615   2.5667   2.5870
     2.6359   2.6911   2.8196   2.8753   3.0463   3.0594   3.1840   3.2074
     4.0908   4.1728   4.2619   4.3376   4.4295   4.4895   5.8686   6.0616
     6.4231   6.4533   6.7399   6.9831   7.3076   7.4093   7.4534   7.5380
     7.8879   7.9406   8.1167   8.2121   8.3349   8.4873   8.5853   8.7193
     8.8003   8.8262   8.9404   8.9645   9.0436   9.1716   9.1907   9.2576
     9.3139   9.3662   9.3988   9.4582   9.4692   9.4789   9.5822   9.6072
     9.6192   9.6457

          k = 0.2500-1.0472 0.0000 ( 69140 PWs)   bands (ev):

   -39.2101 -37.9437 -36.6821 -35.5772 -22.5735 -22.5075 -22.4467 -22.4324
   -22.3863 -22.3433 -22.2962 -22.1910 -19.5737 -19.3310 -19.1543 -18.6058
   -18.2738 -18.1442 -17.9370 -17.7925 -17.6718 -17.0095 -16.8032 -16.7221
   -14.7773 -14.7549 -14.6590 -14.6504 -14.5606 -14.5185 -14.5052 -14.4300
   -14.4257 -14.4031 -14.3832 -14.2499 -14.1595 -14.1406 -14.1291 -14.1139
   -14.0862 -14.0724 -14.0601 -14.0190 -13.9407 -13.9091 -13.9039 -13.8175
   -13.8124 -13.8045 -13.8023 -13.8002 -13.7338 -13.6221  -8.6086  -8.5012
    -8.4326  -8.3124  -8.2880  -8.2078  -8.1428  -8.0064  -7.9710  -7.9478
    -7.9110  -7.9008  -7.8926  -7.8512  -7.7887  -7.7740  -7.7149  -7.7074
    -7.7021  -7.6376  -7.5560  -7.5265  -7.4204  -7.2798  -3.9625  -3.9463
    -3.5183  -3.4690  -3.3554  -3.3291  -3.2070  -3.1179  -3.1171  -3.0477
    -2.9626  -2.9479  -2.9134  -2.9100  -2.4503  -2.4147  -2.3206  -2.2880
    -2.2727  -2.2406  -2.1183  -2.0972  -2.0375  -2.0081  -1.9741  -1.9708
    -1.8085  -1.7933  -1.7825  -1.6588  -1.6498  -1.6125  -1.5453  -1.5254
    -1.4781  -1.3927  -1.3582  -1.3092  -1.2845  -1.1791  -1.1645  -1.1540
    -1.0940  -1.0384  -1.0102  -0.9900  -0.9411  -0.9014  -0.8780  -0.8608
    -0.8564  -0.8189  -0.7940  -0.7307  -0.7242  -0.7012  -0.6930  -0.6881
    -0.6728  -0.6676  -0.6532  -0.6530  -0.5862  -0.5787  -0.5776  -0.3907
    -0.3788  -0.3198  -0.1118  -0.1019  -0.0563   0.0149   0.0993   0.1816
     0.2153   0.3217   0.3526   0.3538   0.3771   0.4593   0.4651   0.4975
     0.5217   0.5488   0.7948   0.9029   0.9146   0.9225   1.0348   1.0731
     1.1152   1.1291   1.1610   1.1624   1.2057   1.2734   1.3243   1.3301
     1.3501   1.3519   1.3796   1.3828   1.3848   1.4331   1.4791   1.5196
     1.5353   1.5625   1.5727   1.5765   1.6747   1.6914   1.6967   1.7052
     1.7308   1.7669   1.7913   1.7953   1.8270   1.8810   1.9318   1.9406
     1.9419   1.9639   1.9855   1.9877   1.9905   2.0400   2.0665   2.0726
     2.1774   2.2371   2.2644   2.2867   2.3134   2.3135   2.3317   2.3386
     2.4260   2.4412   2.5483   2.5933   2.5985   2.5985   2.6389   2.6742
     2.6747   2.7291   2.7334   2.7381   2.8237   2.8372   3.0569   3.0739
     4.1146   4.2530   4.4000   4.4913   4.5817   4.6460   5.7898   5.9678
     6.2324   6.2614   6.8787   7.0537   7.4371   7.5662   7.6093   7.6216
     8.0779   8.0812   8.1449   8.3003   8.3873   8.4848   8.5377   8.7381
     8.8546   8.9870   9.1171   9.1899   9.3206   9.3315   9.3738   9.3887
     9.4365   9.4374   9.4735   9.5373   9.5675   9.5679   9.5986   9.7280
     9.7604   9.7766

          k = 0.3750 0.0000 0.0000 ( 69222 PWs)   bands (ev):

   -39.2252 -37.9621 -36.6919 -35.5888 -22.7232 -22.6672 -22.5965 -22.5825
   -22.5468 -22.4926 -22.4476 -22.3392 -19.3596 -19.3165 -19.1708 -18.4333
   -18.3143 -17.9652 -17.8197 -17.7827 -17.7014 -16.9541 -16.8700 -16.6184
   -15.2282 -15.1534 -14.9700 -14.8473 -14.7864 -14.7781 -14.7347 -14.6689
   -14.6449 -14.5811 -14.5233 -14.5185 -14.4728 -14.4522 -14.4419 -14.1915
   -14.1433 -14.0058 -13.9479 -13.9416 -13.9359 -13.9314 -13.9254 -13.8474
   -13.8106 -13.7572 -13.6680 -13.6149 -13.5611 -13.4489  -8.0074  -7.9584
    -7.9049  -7.8545  -7.8252  -7.7544  -7.7394  -7.7210  -7.6886  -7.6278
    -7.6094  -7.6029  -7.5152  -7.5099  -7.5049  -7.4878  -7.4523  -7.4206
    -7.3936  -7.3730  -7.3331  -7.2850  -7.2810  -7.1856  -2.7342  -2.6343
    -2.4804  -2.4312  -2.3287  -2.2596  -2.1286  -2.1165  -2.1161  -2.0567
    -2.0022  -1.9895  -1.9576  -1.9421  -1.9067  -1.7895  -1.7789  -1.7570
    -1.6481  -1.6442  -1.6311  -1.5079  -1.4335  -1.3572  -1.3369  -1.3143
    -1.3136  -1.2504  -1.0509  -0.9956  -0.9294  -0.8895  -0.8598  -0.8572
    -0.8560  -0.8546  -0.8536  -0.8358  -0.8193  -0.7655  -0.7621  -0.7043
    -0.7012  -0.6717  -0.6213  -0.5953  -0.5649  -0.5229  -0.4768  -0.4706
    -0.4321  -0.4058  -0.3967  -0.3599  -0.3558  -0.3247  -0.2701  -0.2478
    -0.2375  -0.2153  -0.2036  -0.1973  -0.1387  -0.1129  -0.1062  -0.0574
     0.0239   0.0494   0.0639   0.0807   0.0881   0.0918   0.0996   0.1423
     0.2645   0.2729   0.3143   0.3369   0.3415   0.3512   0.3553   0.3842
     0.3924   0.4214   0.4603   0.4738   0.4897   0.5335   0.5368   0.5862
     0.5901   0.6144   0.6257   0.6344   0.6551   0.6682   0.6891   0.7332
     0.7630   0.8121   0.8171   0.8482   0.9187   0.9650   0.9809   0.9948
     1.0518   1.0815   1.1254   1.1398   1.1497   1.1795   1.2216   1.2771
     1.3006   1.3245   1.3384   1.4183   1.4261   1.4473   1.4615   1.4694
     1.4922   1.5039   1.5734   1.5815   1.6087   1.6192   1.6490   1.6581
     1.6964   1.7673   1.8176   1.8322   1.8349   1.9524   1.9837   2.0138
     2.0412   2.0766   2.0919   2.1027   2.1027   2.2088   2.2645   2.2705
     2.2787   2.3059   2.3168   2.3589   2.4410   2.4538   2.5352   2.6265
     2.6662   2.7621   2.7857   2.8015   2.9176   2.9366   5.4894   5.7313
     5.7842   6.1622   6.2908   6.3032   6.3788   6.4983   6.7042   7.1976
     7.2239   7.2580   7.3173   7.4408   7.7426   7.7671   7.9352   7.9509
     8.0980   8.2191   8.2710   8.2894   8.3838   8.5188   8.5758   8.5993
     8.6477   8.7101   8.7668   8.9410   9.0243   9.0409   9.0445   9.1398
     9.1779   9.2297

          k = 0.3750 0.2618 0.0000 ( 69210 PWs)   bands (ev):

   -39.2230 -37.9594 -36.6905 -35.5871 -22.7003 -22.6461 -22.5735 -22.5602
   -22.5259 -22.4724 -22.4253 -22.3190 -19.3551 -19.3211 -19.2057 -18.3947
   -18.3073 -18.0762 -17.8164 -17.7863 -17.7178 -16.9238 -16.8625 -16.6839
   -15.1688 -15.0508 -14.9255 -14.7980 -14.7462 -14.7373 -14.6750 -14.6164
   -14.5836 -14.5553 -14.4965 -14.4893 -14.4548 -14.4310 -14.4186 -14.2025
   -14.1050 -14.0129 -13.9987 -13.9292 -13.9271 -13.9269 -13.9170 -13.8732
   -13.8239 -13.7461 -13.6957 -13.6372 -13.5810 -13.4901  -8.0078  -7.9644
    -7.9525  -7.9004  -7.8559  -7.8509  -7.8241  -7.8165  -7.7592  -7.7501
    -7.7150  -7.6816  -7.6749  -7.6569  -7.5364  -7.5239  -7.5195  -7.4927
    -7.4119  -7.3842  -7.3493  -7.3156  -7.2075  -7.1811  -2.8153  -2.7246
    -2.5252  -2.4952  -2.4591  -2.3700  -2.2172  -2.1765  -2.1575  -2.0852
    -2.0794  -2.0583  -1.9978  -1.9772  -1.9586  -1.9397  -1.9325  -1.8890
    -1.8314  -1.7611  -1.7546  -1.7441  -1.7016  -1.6484  -1.5347  -1.4967
    -1.3127  -1.3004  -1.2911  -1.2884  -1.2869  -1.2628  -1.1573  -1.1182
    -1.0639  -1.0028  -0.9654  -0.9384  -0.8825  -0.8483  -0.7997  -0.7894
    -0.7785  -0.7515  -0.7183  -0.7088  -0.6678  -0.6130  -0.5683  -0.5313
    -0.5041  -0.4828  -0.4715  -0.4529  -0.4292  -0.3574  -0.3045  -0.2504
    -0.2326  -0.1903  -0.1530  -0.1427  -0.0883  -0.0639  -0.0173   0.0000
     0.0304   0.0608   0.0692   0.0810   0.0917   0.1202   0.1235   0.1673
     0.2234   0.2497   0.2563   0.2616   0.2836   0.3102   0.4115   0.4458
     0.4664   0.4822   0.4848   0.4977   0.5068   0.5201   0.5226   0.5347
     0.5625   0.5909   0.6202   0.6347   0.6442   0.7213   0.7494   0.7750
     0.8382   0.8883   0.9932   0.9976   1.0371   1.0583   1.0922   1.1306
     1.1613   1.1751   1.2295   1.2390   1.2442   1.3151   1.3238   1.3485
     1.3683   1.3720   1.3761   1.3822   1.3957   1.4331   1.4572   1.4752
     1.5202   1.5822   1.5900   1.6032   1.6168   1.6278   1.6316   1.6985
     1.7362   1.7591   1.7634   1.7716   1.8589   1.8671   1.8766   1.8935
     1.9333   1.9602   1.9690   2.0254   2.1369   2.2311   2.4232   2.4702
     2.6089   2.6466   2.8263   2.8334   2.8728   2.9094   2.9865   3.0033
     3.0252   3.0504   3.1343   3.1651   3.2001   3.2641   5.6762   6.0319
     6.0617   6.2360   6.3797   6.4955   6.5174   6.6831   6.8284   7.1222
     7.3927   7.4491   7.5359   7.6945   7.8776   7.9986   8.0461   8.0586
     8.1651   8.2206   8.3696   8.4257   8.4962   8.5568   8.6354   8.6739
     8.7313   8.8120   8.8553   8.9303   8.9692   9.0637   9.1051   9.1700
     9.2322   9.3192

          k = 0.3750 0.5236 0.0000 ( 69127 PWs)   bands (ev):

   -39.2177 -37.9529 -36.6870 -35.5830 -22.6442 -22.5945 -22.5168 -22.5054
   -22.4745 -22.4228 -22.3704 -22.2694 -19.4072 -19.3441 -19.2086 -18.3161
   -18.2958 -18.2904 -17.8388 -17.8085 -17.7109 -16.8490 -16.8455 -16.8269
   -15.0210 -14.8272 -14.8104 -14.6865 -14.6621 -14.6343 -14.5416 -14.5175
   -14.4932 -14.4736 -14.4230 -14.4007 -14.3973 -14.3804 -14.3324 -14.2463
   -14.1541 -14.0697 -14.0149 -13.9169 -13.9085 -13.8906 -13.8850 -13.8754
   -13.8417 -13.7687 -13.7170 -13.6889 -13.6494 -13.5920  -8.2447  -8.1344
    -8.1072  -8.0661  -7.9970  -7.9555  -7.9546  -7.9338  -7.8881  -7.8675
    -7.7877  -7.7681  -7.7576  -7.7328  -7.7161  -7.7017  -7.6133  -7.5938
    -7.5510  -7.5219  -7.4417  -7.4059  -7.3529  -7.2236  -3.1802  -3.1319
    -2.8906  -2.8395  -2.7685  -2.7173  -2.5761  -2.5262  -2.4292  -2.3685
    -2.3222  -2.2910  -2.1855  -2.1582  -2.1512  -2.1431  -2.1216  -2.1123
    -2.0723  -2.0240  -1.9900  -1.9785  -1.9601  -1.9585  -1.9329  -1.9012
    -1.8651  -1.7191  -1.6761  -1.5669  -1.4798  -1.4191  -1.3826  -1.3082
    -1.2930  -1.2447  -1.2134  -1.1853  -1.1070  -1.1018  -1.0334  -0.9712
    -0.9396  -0.8835  -0.8358  -0.8228  -0.7523  -0.7203  -0.7149  -0.6859
    -0.6031  -0.6001  -0.5521  -0.5430  -0.5068  -0.4974  -0.4489  -0.4363
    -0.4338  -0.3994  -0.3618  -0.3552  -0.3469  -0.3405  -0.3110  -0.2575
    -0.2549  -0.1691  -0.1440  -0.1324  -0.0919  -0.0240   0.0970   0.2082
     0.2211   0.2937   0.2984   0.3408   0.3550   0.4329   0.4563   0.5344
     0.5466   0.5667   0.6465   0.6523   0.7036   0.7258   0.7336   0.8447
     0.8621   0.9263   0.9594   0.9700   1.0298   1.0341   1.0577   1.0986
     1.1092   1.1369   1.1529   1.1900   1.1951   1.2018   1.2125   1.2215
     1.2365   1.2827   1.2994   1.3936   1.4242   1.4614   1.4654   1.5032
     1.5322   1.5592   1.5902   1.6257   1.6385   1.6476   1.6632   1.6746
     1.6856   1.7022   1.7116   1.7175   1.7332   1.7432   1.7597   1.7800
     1.8040   1.8359   1.8402   1.8824   1.9257   1.9590   1.9832   1.9904
     2.0237   2.0521   2.1157   2.1286   2.2427   2.3595   2.3752   2.5334
     2.9990   3.0246   3.1385   3.1593   3.1987   3.2137   3.2950   3.3326
     3.5879   3.6276   3.7745   3.8094   3.8223   3.8592   6.1227   6.1307
     6.3710   6.7264   6.7579   6.7814   6.8378   7.0209   7.2471   7.3132
     7.3544   7.6219   7.9355   8.2076   8.2854   8.2971   8.3515   8.3743
     8.4722   8.4833   8.5976   8.6389   8.7027   8.7935   8.8389   8.9183
     8.9972   9.0210   9.0995   9.1638   9.1850   9.2588   9.2851   9.3508
     9.3943   9.4968

          k = 0.3750 0.7854 0.0000 ( 69176 PWs)   bands (ev):

   -39.2124 -37.9464 -36.6835 -35.5789 -22.5867 -22.5413 -22.4584 -22.4490
   -22.4217 -22.3720 -22.3142 -22.2186 -19.5248 -19.3331 -19.1719 -18.5252
   -18.2734 -18.1901 -17.9080 -17.8008 -17.6843 -16.9590 -16.8307 -16.7635
   -14.8545 -14.6868 -14.6707 -14.6246 -14.5824 -14.5537 -14.5222 -14.5117
   -14.4121 -14.3654 -14.3553 -14.2860 -14.2824 -14.2699 -14.2230 -14.2008
   -14.1989 -14.1340 -13.9858 -13.9343 -13.9296 -13.8963 -13.8406 -13.8306
   -13.8265 -13.8167 -13.7973 -13.7379 -13.6993 -13.6643  -8.4413  -8.3330
    -8.2605  -8.1690  -8.1250  -8.0612  -8.0164  -7.9836  -7.9421  -7.9310
    -7.9073  -7.9015  -7.8660  -7.8353  -7.7646  -7.7525  -7.7502  -7.7346
    -7.7023  -7.6577  -7.5933  -7.5596  -7.4872  -7.3435  -3.6276  -3.6136
    -3.2771  -3.2591  -3.2048  -3.1623  -3.0244  -2.9821  -2.9260  -2.9150
    -2.7182  -2.7085  -2.6930  -2.6872  -2.3542  -2.3485  -2.2292  -2.1904
    -2.1346  -2.1108  -2.0848  -2.0553  -2.0023  -1.9849  -1.9629  -1.9521
    -1.9406  -1.8624  -1.7973  -1.6664  -1.6400  -1.6119  -1.5712  -1.5124
    -1.4971  -1.4602  -1.3597  -1.3429  -1.2813  -1.2207  -1.1803  -1.1293
    -1.0755  -1.0024  -0.9914  -0.9683  -0.8753  -0.8223  -0.7986  -0.7907
    -0.7793  -0.7624  -0.7328  -0.6597  -0.6351  -0.6157  -0.6056  -0.6016
    -0.5645  -0.5595  -0.5501  -0.5485  -0.5139  -0.5056  -0.4551  -0.4455
    -0.4261  -0.3558  -0.1856  -0.1758  -0.1584  -0.0919   0.1387   0.2465
     0.2801   0.3526   0.4054   0.4296   0.4679   0.4815   0.5039   0.5764
     0.6242   0.6705   0.6967   0.7475   0.8387   0.9044   0.9762   1.0575
     1.0857   1.0960   1.1123   1.1342   1.1533   1.1755   1.2054   1.2413
     1.2698   1.2940   1.3404   1.3752   1.3913   1.3936   1.4625   1.4739
     1.5023   1.5217   1.5308   1.5589   1.5763   1.5988   1.6057   1.6356
     1.6551   1.6766   1.6866   1.7140   1.7728   1.7750   1.8035   1.8178
     1.8326   1.8669   1.8785   1.8854   1.9236   1.9348   1.9521   1.9809
     2.0039   2.0256   2.0398   2.0685   2.0774   2.1340   2.1490   2.1608
     2.2884   2.3561   2.4042   2.4408   2.4507   2.5266   2.5327   2.6117
     2.9837   3.0245   3.0515   3.0679   3.1212   3.1729   3.4030   3.4245
     3.9359   4.0127   4.1283   4.1572   4.1956   4.2049   5.9119   6.2408
     6.6120   6.6551   6.7534   7.0351   7.1373   7.2228   7.2586   7.4903
     7.7796   7.8811   8.1371   8.2415   8.2839   8.5800   8.6227   8.7592
     8.8188   8.8315   8.9122   8.9971   9.0071   9.1258   9.1485   9.2156
     9.2793   9.3758   9.4291   9.4820   9.5343   9.5976   9.6858   9.6926
     9.7579   9.7887

          k = 0.3750-1.0472 0.0000 ( 69214 PWs)   bands (ev):

   -39.2101 -37.9437 -36.6821 -35.5772 -22.5624 -22.5189 -22.4338 -22.4253
   -22.3995 -22.3506 -22.2904 -22.1971 -19.5737 -19.3286 -19.1543 -18.6057
   -18.2664 -18.1430 -17.9370 -17.7976 -17.6720 -17.0096 -16.8246 -16.7269
   -14.7622 -14.7060 -14.6266 -14.6108 -14.5709 -14.5611 -14.4836 -14.4411
   -14.4220 -14.4202 -14.3403 -14.2482 -14.1650 -14.1426 -14.1353 -14.1319
   -14.1241 -14.1077 -14.0439 -14.0003 -13.9540 -13.9468 -13.8811 -13.8221
   -13.8149 -13.8102 -13.8078 -13.8036 -13.7103 -13.6488  -8.4771  -8.3698
    -8.3098  -8.1743  -8.1635  -8.1491  -8.0680  -8.0440  -8.0090  -7.9804
    -7.9506  -7.9327  -7.9083  -7.8416  -7.8395  -7.8044  -7.7851  -7.7618
    -7.7366  -7.6978  -7.6869  -7.5995  -7.5307  -7.4098  -3.8192  -3.8021
    -3.4394  -3.4157  -3.3928  -3.3595  -3.2193  -3.1579  -3.1246  -3.0962
    -2.9519  -2.9414  -2.9249  -2.9200  -2.3590  -2.3327  -2.2387  -2.1894
    -2.1848  -2.1351  -2.1217  -2.0996  -2.0798  -1.9976  -1.9613  -1.9312
    -1.8902  -1.8647  -1.7903  -1.7770  -1.7101  -1.6858  -1.6412  -1.6263
    -1.5210  -1.4913  -1.4699  -1.4135  -1.3626  -1.3076  -1.2243  -1.1591
    -1.1345  -1.0506  -1.0261  -1.0207  -0.9752  -0.9022  -0.8656  -0.8475
    -0.8292  -0.8052  -0.7729  -0.6978  -0.6939  -0.6858  -0.6439  -0.6436
    -0.6384  -0.6310  -0.5981  -0.5936  -0.5868  -0.5804  -0.4936  -0.4395
    -0.4129  -0.3632  -0.1821  -0.1814  -0.1678  -0.1211   0.1560   0.2736
     0.2987   0.3871   0.4284   0.4457   0.4898   0.5095   0.5297   0.5674
     0.5692   0.7007   0.7068   0.7867   0.9397   0.9675   1.0833   1.1473
     1.1754   1.1798   1.1920   1.2133   1.2405   1.2415   1.2557   1.2576
     1.2874   1.3599   1.3823   1.3918   1.4107   1.4107   1.4764   1.5263
     1.5366   1.5399   1.5614   1.5806   1.5913   1.6156   1.6458   1.6921
     1.7117   1.7509   1.7793   1.8137   1.8248   1.8407   1.8461   1.8740
     1.9230   1.9631   1.9655   1.9868   1.9993   2.0127   2.0526   2.0766
[...]
    -1.9056  -1.8253  -1.7749  -1.7497  -1.7020  -1.6592  -1.5326  -1.4928
    -1.3005  -1.2953  -1.2938  -1.2909  -1.2851  -1.2295  -1.0868  -1.0681
    -1.0371  -0.9806  -0.9443  -0.9023  -0.8994  -0.8482  -0.8144  -0.8099
    -0.7837  -0.7634  -0.7291  -0.7277  -0.7035  -0.6953  -0.6485  -0.5563
    -0.5239  -0.4833  -0.4584  -0.4303  -0.4021  -0.3990  -0.3429  -0.2787
    -0.2308  -0.1815  -0.1398  -0.1040  -0.1039  -0.0772  -0.0472   0.0204
     0.0363   0.0392   0.0601   0.0677   0.0991   0.1027   0.1317   0.1812
     0.2062   0.2465   0.2483   0.2617   0.2805   0.3203   0.4201   0.4393
     0.4715   0.4919   0.4943   0.4996   0.5238   0.5268   0.5482   0.5518
     0.5611   0.5723   0.5930   0.6274   0.6396   0.7595   0.7789   0.7932
     0.8387   0.9361   1.0000   1.0031   1.0381   1.0638   1.0828   1.1247
     1.1599   1.1651   1.1726   1.1886   1.2709   1.3007   1.3228   1.3751
     1.3839   1.3860   1.4028   1.4051   1.4238   1.4268   1.4388   1.4917
     1.5095   1.5382   1.5633   1.5834   1.5910   1.6527   1.6727   1.6768
     1.6830   1.7140   1.7298   1.7963   1.8080   1.8369   1.8835   1.8940
     1.9412   1.9682   1.9804   2.0144   2.1766   2.2346   2.4339   2.4849
     2.7105   2.7492   2.8219   2.8479   2.8978   2.9473   2.9870   3.0203
     3.0329   3.0538   3.0864   3.1593   3.2000   3.2108   5.7635   6.2364
     6.2528   6.2583   6.2591   6.2665   6.3037   6.7793   6.8502   7.1333
     7.2531   7.5570   7.8193   7.8599   7.8717   7.8965   7.9987   8.0838
     8.1080   8.2153   8.3124   8.3800   8.4636   8.4953   8.6561   8.7341
     8.7519   8.8446   8.8972   8.9311   8.9935   9.0071   9.1151   9.1473
     9.1656   9.2733

          k =-0.5000 0.5236 0.0000 ( 69170 PWs)   bands (ev):

   -39.2177 -37.9529 -36.6870 -35.5830 -22.6341 -22.6048 -22.5018 -22.5007
   -22.4896 -22.4277 -22.3668 -22.2733 -19.4071 -19.3431 -19.2086 -18.3160
   -18.2952 -18.2871 -17.8388 -17.8108 -17.7110 -16.8558 -16.8507 -16.8272
   -14.9991 -14.8341 -14.7716 -14.6972 -14.6439 -14.6426 -14.5361 -14.5046
   -14.4989 -14.4779 -14.4419 -14.4087 -14.3963 -14.3828 -14.3522 -14.2470
   -14.1562 -14.0822 -14.0103 -13.9095 -13.9016 -13.8905 -13.8884 -13.8771
   -13.8245 -13.7834 -13.7083 -13.6963 -13.6530 -13.5919  -8.2107  -8.1816
    -8.0988  -8.0733  -8.0313  -8.0025  -7.9548  -7.9258  -7.8956  -7.8875
    -7.8102  -7.7674  -7.7608  -7.7316  -7.7299  -7.6135  -7.6100  -7.6008
    -7.5042  -7.4917  -7.4632  -7.3895  -7.3367  -7.2445  -3.0720  -3.0074
    -2.9704  -2.9293  -2.6533  -2.6394  -2.6259  -2.5684  -2.4279  -2.3713
    -2.2963  -2.2545  -2.2142  -2.2120  -2.1508  -2.1217  -2.1048  -2.0794
    -2.0784  -2.0638  -2.0324  -1.9944  -1.9577  -1.9543  -1.9334  -1.9050
    -1.8767  -1.8640  -1.5534  -1.4501  -1.4476  -1.3904  -1.3863  -1.3475
    -1.3074  -1.2913  -1.2673  -1.1729  -1.1499  -1.1069  -1.0921  -1.0845
    -0.9545  -0.9374  -0.8886  -0.8511  -0.7238  -0.7163  -0.7052  -0.7024
    -0.6005  -0.5801  -0.5562  -0.5496  -0.5092  -0.4881  -0.4699  -0.4343
    -0.4286  -0.3775  -0.3680  -0.3446  -0.3383  -0.3270  -0.3108  -0.2980
    -0.2009  -0.1815  -0.1639  -0.1352  -0.1206  -0.0970   0.1384   0.1862
     0.2209   0.2691   0.3244   0.3269   0.3652   0.4762   0.5000   0.5102
     0.5801   0.6049   0.6536   0.6560   0.7061   0.7217   0.7292   0.8539
     0.8777   0.9295   0.9587   0.9612   1.0403   1.0686   1.0897   1.0973
     1.1015   1.1143   1.1663   1.1674   1.1850   1.1898   1.1909   1.2075
     1.2101   1.2761   1.2869   1.4227   1.4403   1.4552   1.4575   1.4885
     1.5406   1.5598   1.5944   1.6087   1.6339   1.6380   1.6604   1.6814
     1.6919   1.7028   1.7083   1.7395   1.7556   1.7570   1.7713   1.7765
     1.8156   1.8541   1.8735   1.8736   1.8962   1.9100   1.9235   1.9670
     2.0663   2.0733   2.0796   2.0927   2.2676   2.3692   2.3893   2.5578
     3.1650   3.1957   3.1976   3.2139   3.3019   3.3452   3.3704   3.3984
     3.5037   3.5285   3.5853   3.6257   3.8244   3.8474   6.1292   6.1540
     6.4019   6.7532   6.7809   6.7969   6.8255   7.0267   7.2720   7.3138
     7.3523   7.5886   7.9523   8.1651   8.3094   8.3447   8.4095   8.4312
     8.4610   8.4692   8.5745   8.5924   8.7679   8.8046   8.8619   9.0150
     9.0288   9.0419   9.0660   9.1537   9.1778   9.1966   9.2762   9.3372
     9.4017   9.4646

          k =-0.5000 0.7854 0.0000 ( 69170 PWs)   bands (ev):

   -39.2124 -37.9464 -36.6835 -35.5789 -22.5788 -22.5493 -22.4463 -22.4453
   -22.4340 -22.3759 -22.3113 -22.2217 -19.5247 -19.3321 -19.1719 -18.5252
   -18.2703 -18.1895 -17.9080 -17.8029 -17.6844 -16.9589 -16.8398 -16.7657
   -14.8412 -14.6827 -14.6451 -14.6197 -14.5894 -14.5745 -14.5338 -14.4644
   -14.3969 -14.3603 -14.3471 -14.3110 -14.2862 -14.2594 -14.2449 -14.2170
   -14.1884 -14.1706 -13.9599 -13.9564 -13.9272 -13.8986 -13.8363 -13.8305
   -13.8274 -13.8185 -13.7832 -13.7525 -13.6898 -13.6750  -8.3374  -8.2988
    -8.2254  -8.1951  -8.1822  -8.0856  -8.0386  -7.9779  -7.9344  -7.9199
    -7.9132  -7.8409  -7.8403  -7.7742  -7.7728  -7.7681  -7.7567  -7.7348
    -7.7245  -7.7172  -7.5906  -7.5879  -7.5278  -7.4133  -3.5291  -3.5168
    -3.3504  -3.3298  -3.1164  -3.0802  -3.0615  -3.0329  -2.9442  -2.9187
    -2.7060  -2.7051  -2.6986  -2.6974  -2.2746  -2.2657  -2.2238  -2.1941
    -2.1789  -2.0965  -2.0897  -2.0705  -1.9780  -1.9586  -1.9409  -1.9367
    -1.8824  -1.8559  -1.8114  -1.8088  -1.7653  -1.6859  -1.5687  -1.5525
    -1.4600  -1.4172  -1.4093  -1.3556  -1.3417  -1.2428  -1.2388  -1.1768
    -1.0664  -1.0389  -1.0108  -0.9737  -0.8458  -0.8309  -0.7992  -0.7781
    -0.7743  -0.7376  -0.7267  -0.6593  -0.6284  -0.6283  -0.6040  -0.5552
    -0.5467  -0.5435  -0.5365  -0.5343  -0.5333  -0.5076  -0.4765  -0.4400
    -0.4008  -0.3358  -0.2205  -0.2144  -0.2034  -0.1803   0.2009   0.2204
     0.3274   0.3376   0.4148   0.4231   0.5103   0.5478   0.5885   0.5916
     0.6522   0.6995   0.7086   0.7589   0.8267   0.8644   0.9638   1.0467
     1.0584   1.1070   1.1214   1.1260   1.1621   1.1766   1.2080   1.2095
     1.2288   1.3143   1.3717   1.3961   1.4095   1.4159   1.4309   1.4716
     1.4999   1.5133   1.5298   1.5497   1.5713   1.6078   1.6482   1.6622
     1.6679   1.6740   1.7169   1.7235   1.7259   1.7551   1.7660   1.8118
     1.8401   1.8411   1.8601   1.8739   1.9166   1.9167   1.9527   1.9707
     1.9806   2.0179   2.0480   2.0685   2.0688   2.1105   2.1714   2.1767
     2.2860   2.2937   2.3697   2.4790   2.4851   2.4892   2.4975   2.6137
     3.0318   3.0549   3.0571   3.0756   3.5580   3.5608   3.5909   3.6349
     3.7803   3.7906   3.7960   3.8524   4.1460   4.1899   5.9343   6.3522
     6.6064   6.8944   6.9459   6.9506   6.9914   7.0110   7.1947   7.4783
     7.7115   7.8544   8.1439   8.2594   8.2846   8.6068   8.6349   8.8210
     8.8403   8.8781   8.9064   8.9132   9.0358   9.0805   9.1106   9.1404
     9.2889   9.2906   9.4057   9.6109   9.6725   9.6798   9.7392   9.7824
     9.8006   9.8305

          k =-0.5000-1.0472 0.0000 ( 69164 PWs)   bands (ev):

   -39.2101 -37.9437 -36.6821 -35.5772 -22.5554 -22.5259 -22.4229 -22.4219
   -22.4105 -22.3541 -22.2878 -22.1999 -19.5737 -19.3276 -19.1544 -18.6057
   -18.2633 -18.1425 -17.9370 -17.7997 -17.6721 -17.0096 -16.8334 -16.7289
   -14.7555 -14.6658 -14.6119 -14.6033 -14.5801 -14.5556 -14.5434 -14.4400
   -14.4294 -14.3658 -14.3208 -14.2486 -14.1750 -14.1722 -14.1430 -14.1384
   -14.1382 -14.1096 -14.0211 -13.9885 -13.9736 -13.9637 -13.8595 -13.8423
   -13.8119 -13.8111 -13.8075 -13.8068 -13.6855 -13.6748  -8.3408  -8.2901
    -8.2281  -8.2053  -8.1905  -8.0875  -8.0511  -8.0157  -7.9922  -7.9550
    -7.9482  -7.9133  -7.9108  -7.9012  -7.8866  -7.8753  -7.8334  -7.8072
    -7.7509  -7.7269  -7.6887  -7.6568  -7.5355  -7.4999  -3.7245  -3.7067
    -3.5095  -3.4827  -3.3121  -3.2863  -3.2449  -3.2012  -3.1272  -3.1266
    -2.9389  -2.9382  -2.9326  -2.9302  -2.2805  -2.2128  -2.2017  -2.1935
    -2.1700  -2.1142  -2.0996  -2.0632  -2.0415  -2.0178  -1.9616  -1.9495
    -1.9348  -1.8602  -1.8582  -1.8371  -1.8366  -1.7281  -1.7100  -1.6743
    -1.6047  -1.5759  -1.4278  -1.3798  -1.3642  -1.2717  -1.2674  -1.1996
    -1.1050  -1.0782  -1.0591  -1.0312  -0.9468  -0.9341  -0.8665  -0.8511
    -0.8314  -0.7775  -0.7187  -0.6990  -0.6917  -0.6784  -0.6427  -0.6178
    -0.6168  -0.6133  -0.5979  -0.5843  -0.5722  -0.5346  -0.4792  -0.4341
    -0.4263  -0.3500  -0.2407  -0.2282  -0.2281  -0.2089   0.2221   0.2306
     0.3705   0.3766   0.4554   0.4577   0.5410   0.5679   0.6119   0.6177
     0.6707   0.6765   0.7091   0.8157   0.8534   0.9832   1.0294   1.0870
     1.1585   1.1689   1.2015   1.2539   1.2624   1.2936   1.2990   1.3236
     1.3548   1.3640   1.3720   1.4178   1.4272   1.4316   1.4529   1.4794
     1.4921   1.5092   1.5325   1.5709   1.5751   1.5980   1.6311   1.6435
     1.6614   1.7068   1.7729   1.7806   1.8141   1.8547   1.8599   1.9110
     1.9305   1.9359   1.9691   1.9900   1.9903   2.0330   2.0417   2.0479
     2.1437   2.1463   2.2171   2.2195   2.2889   2.3041   2.3106   2.3108
     2.3369   2.3559   2.4968   2.6296   2.6585   2.6633   2.6674   2.6739
     2.8297   2.8446   2.8542   2.8662   3.5746   3.6073   3.6081   3.6894
     3.7707   3.7888   3.8698   3.9235   4.1931   4.2918   5.8565   6.2961
     6.7107   6.8424   6.8872   6.8939   6.9617   6.9821   7.1194   7.5747
     7.7358   8.1078   8.2966   8.3814   8.4702   8.4874   8.6069   8.7138
     8.9121   9.0194   9.2235   9.2239   9.3223   9.3437   9.4129   9.5133
     9.5650   9.5781   9.6987   9.7008   9.7435   9.7714   9.7915   9.8643
     9.8708   9.9492

     the Fermi energy is     2.8385 ev

!    total energy              =   -3711.67282822 Ry
     Harris-Foulkes estimate   =   -3711.67282824 Ry
     estimated scf accuracy    <          7.2E-09 Ry

     The total energy is the sum of the following terms:

     one-electron contribution =  -63959.66374347 Ry
     hartree contribution      =   32287.20808073 Ry
     xc contribution           =   -1263.85914271 Ry
     ewald contribution        =   29224.65509597 Ry
     smearing contrib. (-TS)   =      -0.01311874 Ry

     convergence has been achieved in  33 iterations

     negative rho (up, down):  9.198E-02 0.000E+00

     Forces acting on atoms (cartesian axes, Ry/au):

     atom    1 type  4   force =    -0.00001312    0.00000000   -0.00007929
     atom    2 type  4   force =     0.00001312    0.00000000   -0.00007929
     atom    3 type  3   force =    -0.00001805    0.00000000   -0.00009864
     atom    4 type  3   force =     0.00001805    0.00000000   -0.00009864
     atom    5 type  4   force =    -0.00000399    0.00000000   -0.00005324
     atom    6 type  4   force =     0.00000399    0.00000000   -0.00005324
     atom    7 type  1   force =     0.00000000    0.00000000   -0.00005387
     atom    8 type  1   force =     0.00000000    0.00000000   -0.00005092
     atom    9 type  3   force =     0.00000628    0.00000000   -0.00008368
     atom   10 type  3   force =    -0.00000628    0.00000000   -0.00008368
     atom   11 type  4   force =     0.00000000    0.00000000   -0.00000085
     atom   12 type  4   force =    -0.00001611    0.00000000   -0.00005007
     atom   13 type  4   force =     0.00001611    0.00000000   -0.00005007
     atom   14 type  4   force =     0.00000000    0.00000000   -0.00001417
     atom   15 type  2   force =     0.00000000    0.00000000   -0.00009138
     atom   16 type  5   force =     0.00000000    0.00000000   -0.00013592
     atom   17 type  4   force =     0.00003643    0.00000000    0.00011953
     atom   18 type  4   force =    -0.00003643    0.00000000    0.00011953
     atom   19 type  4   force =     0.00000000    0.00000000    0.00012580
     atom   20 type  4   force =     0.00000000    0.00000000    0.00022417
     atom   21 type  3   force =    -0.00003818    0.00000000   -0.00033326
     atom   22 type  3   force =     0.00003818    0.00000000   -0.00033326
     atom   23 type  1   force =     0.00000000    0.00000000   -0.00042846
     atom   24 type  1   force =     0.00000000    0.00000000   -0.00048589
     atom   25 type  4   force =    -0.00004204    0.00000000    0.00126635
     atom   26 type  4   force =     0.00004204    0.00000000    0.00126635
     atom   27 type  4   force =     0.00027532    0.00000000    0.00165228
     atom   28 type  4   force =    -0.00027532    0.00000000    0.00165228
     atom   29 type  3   force =     0.00027156    0.00000000   -0.00280732
     atom   30 type  3   force =    -0.00027156    0.00000000   -0.00280732
     atom   31 type  4   force =     0.00029506    0.00000000    0.00310999
     atom   32 type  4   force =    -0.00029506    0.00000000    0.00310999
     atom   33 type  1   force =     0.00000000    0.00000000   -0.00932098
     atom   34 type  1   force =     0.00000000    0.00000000   -0.00652666
     atom   35 type  3   force =    -0.00268517    0.00000000    0.00182503
     atom   36 type  3   force =     0.00268517    0.00000000    0.00182503
     atom   37 type  4   force =     0.00000000    0.00000000    0.02173509
     atom   38 type  4   force =     0.00000000    0.00000000    0.03938945
     atom   39 type  4   force =     0.00899765    0.00000000    0.03319926
     atom   40 type  4   force =    -0.00899765    0.00000000    0.03319926
     atom   41 type  5   force =     0.00000000    0.00000000    0.03567256
     atom   42 type  2   force =     0.00000000    0.00000000    0.02652596
     atom   43 type  4   force =     0.00000000    0.00000000   -0.04300558
     atom   44 type  4   force =    -0.00250981    0.00000000   -0.03253422
     atom   45 type  4   force =     0.00250981    0.00000000   -0.03253422
     atom   46 type  4   force =     0.00000000    0.00000000   -0.01796623
     atom   47 type  3   force =    -0.00051334    0.00000000   -0.01054739
     atom   48 type  3   force =     0.00051334    0.00000000   -0.01054739
     atom   49 type  1   force =     0.00000000    0.00000000   -0.01559474
     atom   50 type  1   force =     0.00000000    0.00000000   -0.01999648
     atom   51 type  4   force =     0.00040786    0.00000000    0.00041989
     atom   52 type  4   force =    -0.00040786    0.00000000    0.00041989
     atom   53 type  3   force =    -0.00010758    0.00000000   -0.00101438
     atom   54 type  3   force =     0.00010758    0.00000000   -0.00101438
     atom   55 type  4   force =    -0.00001184    0.00000000    0.00100870
     atom   56 type  4   force =     0.00001184    0.00000000    0.00100870

     Total force =     0.108327     Total SCF correction =     0.000398


     Computing stress (Cartesian axis) and pressure


     negative rho (up, down):  9.198E-02 0.000E+00
          total   stress  (Ry/bohr**3)                   (kbar)     P=       -7.41
  -0.00001451   0.00000000   0.00000000           -2.13        0.00        0.00
   0.00000000  -0.00001018   0.00000000            0.00       -1.50        0.00
   0.00000000   0.00000000  -0.00012646            0.00        0.00      -18.60

 
     init_run     :     26.21s CPU     27.29s WALL (       1 calls)
     electrons    :   1839.62s CPU   1932.31s WALL (       1 calls)
     forces       :     11.46s CPU     12.13s WALL (       1 calls)
     stress       :    128.47s CPU    130.41s WALL (       1 calls)

     Called by init_run:
     wfcinit      :     21.70s CPU     22.14s WALL (       1 calls)
     potinit      :      0.98s CPU      1.01s WALL (       1 calls)
     hinit0       :      1.50s CPU      1.53s WALL (       1 calls)

     Called by electrons:
     c_bands      :   1542.89s CPU   1595.84s WALL (      33 calls)
     sum_band     :    222.25s CPU    244.18s WALL (      33 calls)
     v_of_rho     :      4.94s CPU      5.01s WALL (      34 calls)
     newd         :     35.45s CPU     53.37s WALL (      34 calls)
     mix_rho      :     34.51s CPU     34.80s WALL (      33 calls)

     Called by c_bands:
     init_us_2    :      8.20s CPU      8.28s WALL (    1725 calls)
     cegterg      :   1471.45s CPU   1507.93s WALL (     825 calls)

     Called by sum_band:
     sum_band:bec :      1.00s CPU      1.00s WALL (     825 calls)
     addusdens    :     29.53s CPU     49.38s WALL (      33 calls)

     Called by *egterg:
     h_psi        :    678.04s CPU    691.42s WALL (    4642 calls)
     s_psi        :     95.67s CPU     96.27s WALL (    4642 calls)
     g_psi        :      1.38s CPU      1.41s WALL (    3792 calls)
     cdiaghg      :    352.15s CPU    353.61s WALL (    4617 calls)

     Called by h_psi:
     h_psi:calbec :    112.32s CPU    112.81s WALL (    4642 calls)
     vloc_psi     :    466.76s CPU    473.00s WALL (    4642 calls)
     add_vuspsi   :     96.29s CPU     96.78s WALL (    4642 calls)

     General routines
     calbec       :    205.56s CPU    206.38s WALL (    5592 calls)
     fft          :      4.92s CPU      4.96s WALL (     465 calls)
     ffts         :     19.16s CPU     19.34s WALL (   17029 calls)
     fftw         :    542.56s CPU    549.56s WALL ( 1183964 calls)
     interpolate  :      0.40s CPU      0.40s WALL (      34 calls)
 
     Parallel routines
     fft_scatt_xy :     55.82s CPU     56.57s WALL ( 1201458 calls)
     fft_scatt_yz :    378.16s CPU    383.06s WALL ( 1201458 calls)
 
     PWSCF        :  33m26.73s CPU  35m 3.20s WALL

 
   This run was terminated on:   0:30:25  28May2021            

=------------------------------------------------------------------------------=
   JOB DONE.
=------------------------------------------------------------------------------=
[1622176225.409011] [holy7c06209:48205:0]          mpool.c:43   UCX  WARN  object 0x425d040 was not returned to mpool ucp_requests
[1622176225.419478] [holy7c06209:48206:0]          mpool.c:43   UCX  WARN  object 0x35fd180 was not returned to mpool ucp_requests
[1622176225.418577] [holy7c06209:48201:0]          mpool.c:43   UCX  WARN  object 0x3baa040 was not returned to mpool ucp_requests
[1622176225.418255] [holy7c06207:185184:0]          mpool.c:43   UCX  WARN  object 0x3287dc0 was not returned to mpool ucp_requests
[1622176225.418286] [holy7c06207:185184:0]          mpool.c:43   UCX  WARN  object 0x3288300 was not returned to mpool ucp_requests
[1622176225.417712] [holy7c06207:185196:0]          mpool.c:43   UCX  WARN  object 0x4610f40 was not returned to mpool ucp_requests
[1622176225.419632] [holy7c06207:185194:0]          mpool.c:43   UCX  WARN  object 0x39f8c00 was not returned to mpool ucp_requests
[1622176225.419654] [holy7c06207:185194:0]          mpool.c:43   UCX  WARN  object 0x39f8f80 was not returned to mpool ucp_requests
[1622176225.418769] [holy7c06207:185187:0]          mpool.c:43   UCX  WARN  object 0x3660100 was not returned to mpool ucp_requests
[1622176225.422340] [holy7c06207:185188:0]          mpool.c:43   UCX  WARN  object 0x3296440 was not returned to mpool ucp_requests
[1622176225.425664] [holy7c06207:185192:0]          mpool.c:43   UCX  WARN  object 0x32b6a40 was not returned to mpool ucp_requests
[1622176225.426205] [holy7c06207:185182:0]          mpool.c:43   UCX  WARN  object 0x3c57780 was not returned to mpool ucp_requests
[1622176225.422236] [holy7c06207:185189:0]          mpool.c:43   UCX  WARN  object 0x4295b00 was not returned to mpool ucp_requests
[1622176225.422262] [holy7c06207:185189:0]          mpool.c:43   UCX  WARN  object 0x4296040 was not returned to mpool ucp_requests
[1622176225.422266] [holy7c06207:185189:0]          mpool.c:43   UCX  WARN  object 0x4296200 was not returned to mpool ucp_requests
[1622176225.417151] [holy7c06207:185183:0]          mpool.c:43   UCX  WARN  object 0x42c1cc0 was not returned to mpool ucp_requests
[1622176225.420234] [holy7c06209:48203:0]          mpool.c:43   UCX  WARN  object 0x399f280 was not returned to mpool ucp_requests
[1622176225.420263] [holy7c06209:48203:0]          mpool.c:43   UCX  WARN  object 0x399f980 was not returned to mpool ucp_requests
