
     Program PWSCF v.6.5 starts on 28May2021 at 10: 0:55 

     This program is part of the open-source Quantum ESPRESSO suite
     for quantum simulation of materials; please cite
         "P. Giannozzi et al., J. Phys.:Condens. Matter 21 395502 (2009);
         "P. Giannozzi et al., J. Phys.:Condens. Matter 29 465901 (2017);
          URL http://www.quantum-espresso.org", 
     in publications or presentations arising from this work. More details at
     http://www.quantum-espresso.org/quote

     Parallel version (MPI), running on    32 processors

     MPI processes distributed on     4 nodes
     R & G space division:  proc/nbgrp/npool/nimage =      32
     Reading input from YCBCO50_212_CuO_cleave_3.0_sep.pwi
Warning: card &IONS ignored
Warning: card     ION_DYNAMICS = 'BFGS' ignored
Warning: card / ignored
Warning: card &CELL ignored
Warning: card     CELL_DYNAMICS = 'BFGS' ignored
Warning: card     PRESS_CONV_THR = 5 ignored
Warning: card / ignored

     Current dimensions of program PWSCF are:
     Max number of different atomic species (ntypx) = 10
     Max number of k-points (npk) =  40000
     Max angular momentum in pseudopotentials (lmaxx) =  3

     Subspace diagonalization in iterative solution of the eigenvalue problem:
     one sub-group per band group will be used
     scalapack distributed-memory algorithm (size of sub-group:  5*  5 procs)

     Message from routine setup:
     using ibrav=0 with symmetry is DISCOURAGED, use correct ibrav instead
 
     Parallelization info
     --------------------
     sticks:   dense  smooth     PW     G-vecs:    dense   smooth      PW
     Min         188      62     17                94912    18254    2723
     Max         189      63     18                94944    18301    2764
     Sum        6019    2003    565              3037741   584901   87953
 


     bravais-lattice index     =            0
     lattice parameter (alat)  =      14.8133  a.u.
     unit-cell volume          =    9311.2145 (a.u.)^3
     number of atoms/cell      =           56
     number of atomic types    =            5
     number of electrons       =       456.00
     number of Kohn-Sham states=          274
     kinetic-energy cutoff     =      60.0000  Ry
     charge density cutoff     =     720.0000  Ry
     convergence threshold     =      1.0E-08
     mixing beta               =       0.5000
     number of iterations used =           10  local-TF  mixing
     Exchange-correlation= SLA PW PBE PBE
                           (   1   4   3   4   0   0   0)

     celldm(1)=  14.813271  celldm(2)=   0.000000  celldm(3)=   0.000000
     celldm(4)=   0.000000  celldm(5)=   0.000000  celldm(6)=   0.000000

     crystal axes: (cart. coord. in units of alat)
               a(1) = (   1.000000   0.000000   0.000000 )  
               a(2) = (   0.000000   0.477453   0.000000 )  
               a(3) = (   0.000000   0.000000   5.999610 )  

     reciprocal axes: (cart. coord. in units 2 pi/alat)
               b(1) = (  1.000000  0.000000  0.000000 )  
               b(2) = (  0.000000  2.094448  0.000000 )  
               b(3) = (  0.000000  0.000000  0.166677 )  


     PseudoPot. # 1 for Ba read from file:
     ./pseudo/Ba.pbe-nsp-van.UPF
     MD5 check sum: 2b9c31dd849566dd297d80989662b7a0
     Pseudo is Ultrasoft + core correction, Zval = 10.0
     Generated by new atomic code, or converted to UPF format
     Using radial grid of  907 points,  6 beta functions with: 
                l(1) =   0
                l(2) =   0
                l(3) =   1
                l(4) =   1
                l(5) =   2
                l(6) =   2
     Q(r) pseudized with  6 coefficients,  rinner =    1.200   1.200   1.200
                                                       1.200   1.200

     PseudoPot. # 2 for Ca read from file:
     ./pseudo/Ca.pbe-nsp-van.UPF
     MD5 check sum: 6471098428ff4fa451746d08035ff179
     Pseudo is Ultrasoft + core correction, Zval = 10.0
     Generated by new atomic code, or converted to UPF format
     Using radial grid of  845 points,  6 beta functions with: 
                l(1) =   0
                l(2) =   0
                l(3) =   1
                l(4) =   1
                l(5) =   2
                l(6) =   2
     Q(r) pseudized with  6 coefficients,  rinner =    1.200   1.200   1.200
                                                       1.200   1.200

     PseudoPot. # 3 for Cu read from file:
     ./pseudo/Cu.pbe-n-van_ak.UPF
     MD5 check sum: 34e3282627ffb533726feb647e090d62
     Pseudo is Ultrasoft + core correction, Zval = 11.0
     Generated by new atomic code, or converted to UPF format
     Using radial grid of  867 points,  6 beta functions with: 
                l(1) =   0
                l(2) =   0
                l(3) =   1
                l(4) =   1
                l(5) =   2
                l(6) =   2
     Q(r) pseudized with  8 coefficients,  rinner =    1.400   1.400   1.400
                                                       1.400   1.400

     PseudoPot. # 4 for O  read from file:
     ./pseudo/O.pbe-van_ak.UPF
     MD5 check sum: 783ce7fe4c79b6a4916957118fed0856
     Pseudo is Ultrasoft, Zval =  6.0
     Generated by new atomic code, or converted to UPF format
     Using radial grid of  737 points,  4 beta functions with: 
                l(1) =   0
                l(2) =   0
                l(3) =   1
                l(4) =   1
     Q(r) pseudized with  8 coefficients,  rinner =    0.800   0.800   0.800


     PseudoPot. # 5 for Y  read from file:
     ./pseudo/Y.pbe-nsp-van.UPF
     MD5 check sum: 4412fed3ab108fed87a1b7d6a69a4a38
     Pseudo is Ultrasoft + core correction, Zval = 11.0
     Generated by new atomic code, or converted to UPF format
     Using radial grid of  885 points,  6 beta functions with: 
                l(1) =   0
                l(2) =   0
                l(3) =   1
                l(4) =   1
                l(5) =   2
                l(6) =   2
     Q(r) pseudized with  6 coefficients,  rinner =    1.200   1.200   1.200
                                                       1.200   1.200

     atomic species   valence    mass     pseudopotential
        Ba            10.00   137.32700     Ba( 1.00)
        Ca            10.00    40.07800     Ca( 1.00)
        Cu            11.00    63.54600     Cu( 1.00)
        O              6.00    15.99900     O ( 1.00)
        Y             11.00    88.90584     Y ( 1.00)

      4 Sym. Ops. (no inversion) found ( 2 have fractional translation)



   Cartesian axes

     site n.     atom                  positions (alat units)
         1           O   tau(   1) = (  -0.0008343   0.2387265  -0.0222443  )
         2           O   tau(   2) = (   0.5008340   0.2387265  -0.0222443  )
         3           Cu  tau(   3) = (   0.5017257   0.0000000   0.0109608  )
         4           Cu  tau(   4) = (  -0.0017260   0.0000000   0.0109608  )
         5           O   tau(   5) = (  -0.0028933   0.0000000   0.2506504  )
         6           O   tau(   6) = (   0.5028929   0.0000000   0.2506504  )
         7           Ba  tau(   7) = (   0.7499995   0.2387265   0.2749435  )
         8           Ba  tau(   8) = (   0.2499998   0.2387265   0.2755214  )
         9           Cu  tau(   9) = (   0.4980963   0.0000000   0.5208446  )
        10           Cu  tau(  10) = (   0.0019033   0.0000000   0.5208446  )
        11           O   tau(  11) = (   0.2499998   0.0000000   0.5341884  )
        12           O   tau(  12) = (   0.5083351   0.2387265   0.5569851  )
        13           O   tau(  13) = (  -0.0083354   0.2387265   0.5569851  )
        14           O   tau(  14) = (   0.7499995   0.0000000   0.5573831  )
        15           Ca  tau(  15) = (   0.2499998   0.2387265   0.7436937  )
        16           Y   tau(  16) = (   0.7499995   0.2387265   0.7469544  )
        17           O   tau(  17) = (  -0.0063798   0.2387265   0.9248530  )
        18           O   tau(  18) = (   0.5063794   0.2387265   0.9248530  )
        19           O   tau(  19) = (   0.7499995   0.0000000   0.9338544  )
        20           O   tau(  20) = (   0.2499998   0.0000000   0.9461329  )
        21           Cu  tau(  21) = (   0.0015717   0.0000000   0.9686860  )
        22           Cu  tau(  22) = (   0.4984280   0.0000000   0.9686860  )
        23           Ba  tau(  23) = (   0.2499998   0.2387265   1.2085224  )
        24           Ba  tau(  24) = (   0.7499995   0.2387265   1.2233294  )
        25           O   tau(  25) = (   0.0063772   0.0000000   1.2547537  )
        26           O   tau(  26) = (   0.4936224   0.0000000   1.2547537  )
        27           O   tau(  27) = (   0.5384045   0.2387265   1.4952521  )
        28           O   tau(  28) = (  -0.0384049   0.2387265   1.4952521  )
        29           Cu  tau(  29) = (   0.5006120   0.0000000   1.4952546  )
        30           Cu  tau(  30) = (  -0.0006123   0.0000000   1.4952546  )
        31           O   tau(  31) = (   0.4936212   0.0000000   2.1184625  )
        32           O   tau(  32) = (   0.0063785   0.0000000   2.1184625  )
        33           Ba  tau(  33) = (   0.7499995   0.2387265   2.1498918  )
        34           Ba  tau(  34) = (   0.2499998   0.2387265   2.1647014  )
        35           Cu  tau(  35) = (   0.4984280   0.0000000   2.4045327  )
        36           Cu  tau(  36) = (   0.0015717   0.0000000   2.4045327  )
        37           O   tau(  37) = (   0.2499998   0.0000000   2.4270908  )
        38           O   tau(  38) = (   0.7499995   0.0000000   2.4393605  )
        39           O   tau(  39) = (   0.5063781   0.2387265   2.4483656  )
        40           O   tau(  40) = (  -0.0063785   0.2387265   2.4483656  )
        41           Y   tau(  41) = (   0.7499995   0.2387265   2.6262592  )
        42           Ca  tau(  42) = (   0.2499998   0.2387265   2.6295288  )
        43           O   tau(  43) = (   0.7499995   0.0000000   2.8158266  )
        44           O   tau(  44) = (  -0.0083354   0.2387265   2.8162285  )
        45           O   tau(  45) = (   0.5083351   0.2387265   2.8162285  )
        46           O   tau(  46) = (   0.2499998   0.0000000   2.8390265  )
        47           Cu  tau(  47) = (   0.0019059   0.0000000   2.8523601  )
        48           Cu  tau(  48) = (   0.4980938   0.0000000   2.8523601  )
        49           Ba  tau(  49) = (   0.2499998   0.2387265   3.0976998  )
        50           Ba  tau(  50) = (   0.7499995   0.2387265   3.0982420  )
        51           O   tau(  51) = (  -0.0028895   0.0000000   3.1225491  )
        52           O   tau(  52) = (   0.5028891   0.0000000   3.1225491  )
        53           Cu  tau(  53) = (   0.5017844   0.0000000   3.3622336  )
        54           Cu  tau(  54) = (  -0.0017847   0.0000000   3.3622336  )
        55           O   tau(  55) = (   0.5008990   0.2387265   3.3954401  )
        56           O   tau(  56) = (  -0.0008994   0.2387265   3.3954401  )

     number of k points=    25  Gaussian smearing, width (Ry)=  0.0100
                       cart. coord. in units 2pi/alat
        k(    1) = (   0.0000000   0.0000000   0.0000000), wk =   0.0312500
        k(    2) = (   0.0000000   0.2618060   0.0000000), wk =   0.0625000
        k(    3) = (   0.0000000   0.5236121   0.0000000), wk =   0.0625000
        k(    4) = (   0.0000000   0.7854181   0.0000000), wk =   0.0625000
        k(    5) = (   0.0000000  -1.0472241   0.0000000), wk =   0.0312500
        k(    6) = (   0.1250000   0.0000000   0.0000000), wk =   0.0625000
        k(    7) = (   0.1250000   0.2618060   0.0000000), wk =   0.1250000
        k(    8) = (   0.1250000   0.5236121   0.0000000), wk =   0.1250000
        k(    9) = (   0.1250000   0.7854181   0.0000000), wk =   0.1250000
        k(   10) = (   0.1250000  -1.0472241   0.0000000), wk =   0.0625000
        k(   11) = (   0.2500000   0.0000000   0.0000000), wk =   0.0625000
        k(   12) = (   0.2500000   0.2618060   0.0000000), wk =   0.1250000
        k(   13) = (   0.2500000   0.5236121   0.0000000), wk =   0.1250000
        k(   14) = (   0.2500000   0.7854181   0.0000000), wk =   0.1250000
        k(   15) = (   0.2500000  -1.0472241   0.0000000), wk =   0.0625000
        k(   16) = (   0.3750000   0.0000000   0.0000000), wk =   0.0625000
        k(   17) = (   0.3750000   0.2618060   0.0000000), wk =   0.1250000
        k(   18) = (   0.3750000   0.5236121   0.0000000), wk =   0.1250000
        k(   19) = (   0.3750000   0.7854181   0.0000000), wk =   0.1250000
        k(   20) = (   0.3750000  -1.0472241   0.0000000), wk =   0.0625000
        k(   21) = (  -0.5000000   0.0000000   0.0000000), wk =   0.0312500
        k(   22) = (  -0.5000000   0.2618060   0.0000000), wk =   0.0625000
        k(   23) = (  -0.5000000   0.5236121   0.0000000), wk =   0.0625000
        k(   24) = (  -0.5000000   0.7854181   0.0000000), wk =   0.0625000
        k(   25) = (  -0.5000000  -1.0472241   0.0000000), wk =   0.0312500

     Dense  grid:  3037741 G-vectors     FFT dimensions: ( 128,  64, 768)

     Smooth grid:   584901 G-vectors     FFT dimensions: (  80,  36, 450)

     Estimated max dynamical RAM per process >     878.80 MB

     Estimated total dynamical RAM >      27.46 GB

     Initial potential from superposition of free atoms

     starting charge  455.69457, renormalised to  456.00000

     negative rho (up, down):  9.308E-02 0.000E+00
     Starting wfcs are  396 randomized atomic wfcs

     total cpu time spent up to now is       27.4 secs

     Self-consistent Calculation

     iteration #  1     ecut=    60.00 Ry     beta= 0.50
     Davidson diagonalization with overlap
     ethr =  1.00E-02,  avg # of iterations =  2.0

     negative rho (up, down):  8.599E-02 0.000E+00

     total cpu time spent up to now is       76.1 secs

     total energy              =   -3708.24682141 Ry
     Harris-Foulkes estimate   =   -3716.44615592 Ry
     estimated scf accuracy    <      31.57926228 Ry

     iteration #  2     ecut=    60.00 Ry     beta= 0.50
     Davidson diagonalization with overlap
     ethr =  6.93E-03,  avg # of iterations =  2.0

     negative rho (up, down):  8.573E-02 0.000E+00

     total cpu time spent up to now is      123.9 secs

     total energy              =   -3710.99130643 Ry
     Harris-Foulkes estimate   =   -3712.29497309 Ry
     estimated scf accuracy    <       6.87951122 Ry

     iteration #  3     ecut=    60.00 Ry     beta= 0.50
     Davidson diagonalization with overlap
     ethr =  1.51E-03,  avg # of iterations =  2.0

     negative rho (up, down):  8.609E-02 0.000E+00

     total cpu time spent up to now is      171.4 secs

     total energy              =   -3711.57993854 Ry
     Harris-Foulkes estimate   =   -3711.94374315 Ry
     estimated scf accuracy    <      10.94871386 Ry

     iteration #  4     ecut=    60.00 Ry     beta= 0.50
     Davidson diagonalization with overlap
     ethr =  1.51E-03,  avg # of iterations =  1.0

     negative rho (up, down):  8.689E-02 0.000E+00

     total cpu time spent up to now is      215.2 secs

     total energy              =   -3711.60409355 Ry
     Harris-Foulkes estimate   =   -3711.74104099 Ry
     estimated scf accuracy    <       2.88350385 Ry

     iteration #  5     ecut=    60.00 Ry     beta= 0.50
     Davidson diagonalization with overlap
     ethr =  6.32E-04,  avg # of iterations =  1.2

     negative rho (up, down):  8.785E-02 0.000E+00

     total cpu time spent up to now is      259.9 secs

     total energy              =   -3711.56874487 Ry
     Harris-Foulkes estimate   =   -3711.67963459 Ry
     estimated scf accuracy    <       3.17921503 Ry

     iteration #  6     ecut=    60.00 Ry     beta= 0.50
     Davidson diagonalization with overlap
     ethr =  6.32E-04,  avg # of iterations =  1.2

     negative rho (up, down):  8.894E-02 0.000E+00

     total cpu time spent up to now is      305.6 secs

     total energy              =   -3711.55620439 Ry
     Harris-Foulkes estimate   =   -3711.60766762 Ry
     estimated scf accuracy    <       1.20801227 Ry

     iteration #  7     ecut=    60.00 Ry     beta= 0.50
     Davidson diagonalization with overlap
     ethr =  2.65E-04,  avg # of iterations =  7.9

     negative rho (up, down):  8.992E-02 0.000E+00

     total cpu time spent up to now is      371.4 secs

     total energy              =   -3711.54873161 Ry
     Harris-Foulkes estimate   =   -3711.57440028 Ry
     estimated scf accuracy    <       0.62414014 Ry

     iteration #  8     ecut=    60.00 Ry     beta= 0.50
     Davidson diagonalization with overlap
     ethr =  1.37E-04,  avg # of iterations =  5.4

     negative rho (up, down):  9.046E-02 0.000E+00

     total cpu time spent up to now is      430.2 secs

     total energy              =   -3711.54380507 Ry
     Harris-Foulkes estimate   =   -3711.56210852 Ry
     estimated scf accuracy    <       0.62734941 Ry

     iteration #  9     ecut=    60.00 Ry     beta= 0.50
     Davidson diagonalization with overlap
     ethr =  1.37E-04,  avg # of iterations =  2.2

     negative rho (up, down):  9.062E-02 0.000E+00

     total cpu time spent up to now is      478.5 secs

     total energy              =   -3711.53947598 Ry
     Harris-Foulkes estimate   =   -3711.55031540 Ry
     estimated scf accuracy    <       0.24909326 Ry

     iteration # 10     ecut=    60.00 Ry     beta= 0.50
     Davidson diagonalization with overlap
     ethr =  5.46E-05,  avg # of iterations =  6.8

     negative rho (up, down):  9.048E-02 0.000E+00

     total cpu time spent up to now is      541.0 secs

     total energy              =   -3711.53098569 Ry
     Harris-Foulkes estimate   =   -3711.54372881 Ry
     estimated scf accuracy    <       0.21257065 Ry

     iteration # 11     ecut=    60.00 Ry     beta= 0.50
     Davidson diagonalization with overlap
     ethr =  4.66E-05,  avg # of iterations =  6.7

     negative rho (up, down):  9.025E-02 0.000E+00

     total cpu time spent up to now is      603.3 secs

     total energy              =   -3711.53232299 Ry
     Harris-Foulkes estimate   =   -3711.53574354 Ry
     estimated scf accuracy    <       0.13270540 Ry

     iteration # 12     ecut=    60.00 Ry     beta= 0.50
     Davidson diagonalization with overlap
     ethr =  2.91E-05,  avg # of iterations =  3.3

     negative rho (up, down):  9.008E-02 0.000E+00

     total cpu time spent up to now is      654.5 secs

     total energy              =   -3711.53272666 Ry
     Harris-Foulkes estimate   =   -3711.53355588 Ry
     estimated scf accuracy    <       0.11120245 Ry

     iteration # 13     ecut=    60.00 Ry     beta= 0.50
     Davidson diagonalization with overlap
     ethr =  2.44E-05,  avg # of iterations =  1.3

     negative rho (up, down):  8.965E-02 0.000E+00

     total cpu time spent up to now is      699.8 secs

     total energy              =   -3711.53107191 Ry
     Harris-Foulkes estimate   =   -3711.53299300 Ry
     estimated scf accuracy    <       0.10321715 Ry

     iteration # 14     ecut=    60.00 Ry     beta= 0.50
     Davidson diagonalization with overlap
     ethr =  2.26E-05,  avg # of iterations =  2.5

     negative rho (up, down):  9.076E-02 0.000E+00

     total cpu time spent up to now is      748.8 secs

     total energy              =   -3711.52839588 Ry
     Harris-Foulkes estimate   =   -3711.53130238 Ry
     estimated scf accuracy    <       0.10979682 Ry

     iteration # 15     ecut=    60.00 Ry     beta= 0.50
     Davidson diagonalization with overlap
     ethr =  2.26E-05,  avg # of iterations =  2.2

     negative rho (up, down):  9.642E-02 0.000E+00

     total cpu time spent up to now is      797.2 secs

     total energy              =   -3711.52692429 Ry
     Harris-Foulkes estimate   =   -3711.52872283 Ry
     estimated scf accuracy    <       0.11462800 Ry

     iteration # 16     ecut=    60.00 Ry     beta= 0.50
     Davidson diagonalization with overlap
     ethr =  2.26E-05,  avg # of iterations =  4.4

     negative rho (up, down):  1.015E-01 0.000E+00

     total cpu time spent up to now is      851.7 secs

     total energy              =   -3711.52486490 Ry
     Harris-Foulkes estimate   =   -3711.52714578 Ry
     estimated scf accuracy    <       0.09801548 Ry

     iteration # 17     ecut=    60.00 Ry     beta= 0.50
     Davidson diagonalization with overlap
     ethr =  2.15E-05,  avg # of iterations =  7.2

     negative rho (up, down):  1.300E-01 0.000E+00

     total cpu time spent up to now is      914.5 secs

     total energy              =   -3711.52197158 Ry
     Harris-Foulkes estimate   =   -3711.52517678 Ry
     estimated scf accuracy    <       0.06752596 Ry

     iteration # 18     ecut=    60.00 Ry     beta= 0.50
     Davidson diagonalization with overlap
     ethr =  1.48E-05,  avg # of iterations = 10.1

     negative rho (up, down):  1.215E-01 0.000E+00

     total cpu time spent up to now is      991.3 secs

     total energy              =   -3711.52210755 Ry
     Harris-Foulkes estimate   =   -3711.52264663 Ry
     estimated scf accuracy    <       0.01243976 Ry

     iteration # 19     ecut=    60.00 Ry     beta= 0.50
     Davidson diagonalization with overlap
     ethr =  2.73E-06,  avg # of iterations =  6.9

     negative rho (up, down):  1.123E-01 0.000E+00

     total cpu time spent up to now is     1054.1 secs

     total energy              =   -3711.52196622 Ry
     Harris-Foulkes estimate   =   -3711.52229720 Ry
     estimated scf accuracy    <       0.00633471 Ry

     iteration # 20     ecut=    60.00 Ry     beta= 0.50
     Davidson diagonalization with overlap
     c_bands:  1 eigenvalues not converged
     ethr =  1.39E-06,  avg # of iterations =  6.4

     negative rho (up, down):  9.600E-02 0.000E+00

     total cpu time spent up to now is     1114.4 secs

     total energy              =   -3711.52171139 Ry
     Harris-Foulkes estimate   =   -3711.52207860 Ry
     estimated scf accuracy    <       0.00306380 Ry

     iteration # 21     ecut=    60.00 Ry     beta= 0.50
     Davidson diagonalization with overlap
     c_bands:  1 eigenvalues not converged
     c_bands:  1 eigenvalues not converged
     ethr =  6.72E-07,  avg # of iterations = 10.7

     negative rho (up, down):  9.154E-02 0.000E+00

     total cpu time spent up to now is     1190.8 secs

     total energy              =   -3711.52179093 Ry
     Harris-Foulkes estimate   =   -3711.52176217 Ry
     estimated scf accuracy    <       0.00054265 Ry

     iteration # 22     ecut=    60.00 Ry     beta= 0.50
     Davidson diagonalization with overlap
     c_bands:  1 eigenvalues not converged
     c_bands:  1 eigenvalues not converged
     c_bands:  1 eigenvalues not converged
     c_bands:  1 eigenvalues not converged
     c_bands:  1 eigenvalues not converged
     ethr =  1.19E-07,  avg # of iterations =  9.9

     negative rho (up, down):  9.165E-02 0.000E+00

     total cpu time spent up to now is     1261.3 secs

     total energy              =   -3711.52180439 Ry
     Harris-Foulkes estimate   =   -3711.52181082 Ry
     estimated scf accuracy    <       0.00013023 Ry

     iteration # 23     ecut=    60.00 Ry     beta= 0.50
     Davidson diagonalization with overlap
     c_bands:  1 eigenvalues not converged
     ethr =  2.86E-08,  avg # of iterations =  3.8

     negative rho (up, down):  9.172E-02 0.000E+00

     total cpu time spent up to now is     1314.0 secs

     total energy              =   -3711.52184808 Ry
     Harris-Foulkes estimate   =   -3711.52181063 Ry
     estimated scf accuracy    <       0.00011589 Ry

     iteration # 24     ecut=    60.00 Ry     beta= 0.50
     Davidson diagonalization with overlap
     c_bands:  1 eigenvalues not converged
     ethr =  2.54E-08,  avg # of iterations =  4.5

     negative rho (up, down):  9.159E-02 0.000E+00

     total cpu time spent up to now is     1367.9 secs

     total energy              =   -3711.52186124 Ry
     Harris-Foulkes estimate   =   -3711.52185057 Ry
     estimated scf accuracy    <       0.00004209 Ry

     iteration # 25     ecut=    60.00 Ry     beta= 0.50
     Davidson diagonalization with overlap
     c_bands:  1 eigenvalues not converged
     c_bands:  1 eigenvalues not converged
     ethr =  9.23E-09,  avg # of iterations =  5.7

     negative rho (up, down):  9.118E-02 0.000E+00

     total cpu time spent up to now is     1425.3 secs

     total energy              =   -3711.52186187 Ry
     Harris-Foulkes estimate   =   -3711.52186335 Ry
     estimated scf accuracy    <       0.00010739 Ry

     iteration # 26     ecut=    60.00 Ry     beta= 0.50
     Davidson diagonalization with overlap
     c_bands:  1 eigenvalues not converged
     ethr =  9.23E-09,  avg # of iterations =  1.8

     negative rho (up, down):  9.135E-02 0.000E+00

     total cpu time spent up to now is     1472.4 secs

     total energy              =   -3711.52186379 Ry
     Harris-Foulkes estimate   =   -3711.52186304 Ry
     estimated scf accuracy    <       0.00001099 Ry

     iteration # 27     ecut=    60.00 Ry     beta= 0.50
     Davidson diagonalization with overlap
     ethr =  2.41E-09,  avg # of iterations =  2.0

     negative rho (up, down):  9.143E-02 0.000E+00

     total cpu time spent up to now is     1520.2 secs

     total energy              =   -3711.52186402 Ry
     Harris-Foulkes estimate   =   -3711.52186415 Ry
     estimated scf accuracy    <       0.00000382 Ry

     iteration # 28     ecut=    60.00 Ry     beta= 0.50
     Davidson diagonalization with overlap
     ethr =  8.38E-10,  avg # of iterations =  2.6

     negative rho (up, down):  9.168E-02 0.000E+00

     total cpu time spent up to now is     1569.6 secs

     total energy              =   -3711.52186346 Ry
     Harris-Foulkes estimate   =   -3711.52186417 Ry
     estimated scf accuracy    <       0.00000359 Ry

     iteration # 29     ecut=    60.00 Ry     beta= 0.50
     Davidson diagonalization with overlap
     ethr =  7.87E-10,  avg # of iterations =  1.0

     negative rho (up, down):  9.196E-02 0.000E+00

     total cpu time spent up to now is     1614.3 secs

     total energy              =   -3711.52186297 Ry
     Harris-Foulkes estimate   =   -3711.52186355 Ry
     estimated scf accuracy    <       0.00000152 Ry

     iteration # 30     ecut=    60.00 Ry     beta= 0.50
     Davidson diagonalization with overlap
     ethr =  3.34E-10,  avg # of iterations =  1.2

     negative rho (up, down):  9.196E-02 0.000E+00

     total cpu time spent up to now is     1659.4 secs

     total energy              =   -3711.52186301 Ry
     Harris-Foulkes estimate   =   -3711.52186303 Ry
     estimated scf accuracy    <       0.00000034 Ry

     iteration # 31     ecut=    60.00 Ry     beta= 0.50
     Davidson diagonalization with overlap
     ethr =  7.39E-11,  avg # of iterations =  2.9

     negative rho (up, down):  9.197E-02 0.000E+00

     total cpu time spent up to now is     1710.1 secs

     total energy              =   -3711.52186302 Ry
     Harris-Foulkes estimate   =   -3711.52186303 Ry
     estimated scf accuracy    <       0.00000031 Ry

     iteration # 32     ecut=    60.00 Ry     beta= 0.50
     Davidson diagonalization with overlap
     ethr =  6.86E-11,  avg # of iterations =  1.0

     negative rho (up, down):  9.196E-02 0.000E+00

     total cpu time spent up to now is     1756.5 secs

     total energy              =   -3711.52186304 Ry
     Harris-Foulkes estimate   =   -3711.52186303 Ry
     estimated scf accuracy    <       0.00000011 Ry

     iteration # 33     ecut=    60.00 Ry     beta= 0.50
     Davidson diagonalization with overlap
     ethr =  2.32E-11,  avg # of iterations =  1.3

     negative rho (up, down):  9.195E-02 0.000E+00

     total cpu time spent up to now is     1802.3 secs

     total energy              =   -3711.52186305 Ry
     Harris-Foulkes estimate   =   -3711.52186304 Ry
     estimated scf accuracy    <       0.00000003 Ry

     iteration # 34     ecut=    60.00 Ry     beta= 0.50
     Davidson diagonalization with overlap
     ethr =  5.61E-12,  avg # of iterations =  2.8

     negative rho (up, down):  9.195E-02 0.000E+00

     total cpu time spent up to now is     1852.1 secs

     End of self-consistent calculation

          k = 0.0000 0.0000 0.0000 ( 73127 PWs)   bands (ev):

   -38.4713 -38.4079 -36.1065 -36.0345 -23.2324 -23.2150 -23.2040 -23.0866
   -23.0758 -23.0663 -22.9008 -22.6731 -18.9444 -18.8903 -18.8443 -18.7825
   -18.4753 -18.4106 -17.4525 -17.3834 -17.3189 -17.2512 -17.1378 -17.0624
   -15.8486 -15.8073 -15.3893 -15.3702 -15.1819 -15.0616 -15.0086 -14.9968
   -14.9529 -14.9232 -14.8633 -14.8529 -14.8412 -14.8368 -14.7123 -14.6998
   -14.5349 -14.4914 -14.4226 -14.3903 -14.3824 -14.3792 -14.3749 -14.3651
   -14.3382 -14.2647 -14.2019 -14.1478 -13.2477 -12.7767  -8.5683  -8.4538
    -8.4399  -8.3464  -8.3328  -8.3027  -8.2640  -8.2537  -8.1702  -8.1260
    -8.1154  -8.0806  -8.0774  -8.0294  -8.0192  -7.9743  -7.9535  -7.9517
    -7.9015  -7.8881  -7.8774  -7.7191  -7.5131  -7.4105  -3.3942  -3.3704
    -3.2822  -3.1846  -2.5680  -2.5618  -2.4815  -2.4791  -2.4746  -2.4447
    -2.3356  -2.2847  -2.2741  -2.2489  -2.2444  -2.2254  -2.1832  -2.1813
    -2.1172  -2.0800  -2.0733  -2.0196  -1.9675  -1.9111  -1.7742  -1.7454
    -1.5896  -1.5390  -1.5261  -1.4992  -1.4347  -1.3642  -1.3366  -1.3212
    -1.3133  -1.3119  -1.3046  -1.3024  -1.2817  -1.2800  -1.2177  -1.1437
    -1.0883  -1.0811  -0.8406  -0.7999  -0.7254  -0.6621  -0.6524  -0.6424
    -0.6421  -0.6227  -0.6164  -0.5985  -0.5838  -0.5671  -0.5298  -0.5251
    -0.5232  -0.5228  -0.5119  -0.4748  -0.4434  -0.3732  -0.3485  -0.3380
    -0.3370  -0.3279  -0.3141  -0.2688  -0.2638  -0.2523  -0.2465  -0.2185
    -0.2172  -0.2155  -0.2135  -0.1360  -0.1183  -0.1106  -0.0991  -0.0787
    -0.0724  -0.0713  -0.0288   0.0035   0.0154   0.0323   0.0834   0.1269
     0.1575   0.1615   0.1909   0.1921   0.2006   0.2153   0.2195   0.2220
     0.3799   0.4078   0.4790   0.5314   0.5563   0.5979   0.6443   0.6566
     0.6675   0.6894   0.6947   0.7287   0.8030   0.8374   0.8505   0.8724
     0.8778   0.8813   0.8826   0.8834   0.9626   0.9870   0.9995   1.0336
     1.0376   1.0426   1.0585   1.0871   1.1194   1.1435   1.2081   1.2620
     1.2709   1.3035   1.3726   1.3772   1.3818   1.4448   1.4472   1.4546
     1.4724   1.5061   1.5164   1.5668   1.6069   1.7153   1.7289   1.7800
     1.8863   1.8941   2.0128   2.0595   2.0610   2.1374   2.1553   2.2414
     2.2499   2.2720   2.2755   2.3236   2.5186   2.5733   4.5837   4.8944
     4.9060   5.5466   5.6323   6.2380   6.2817   6.3395   6.5228   6.5500
     6.5774   6.9337   6.9442   7.0319   7.0392   7.0629   7.2001   7.3306
     7.6827   7.7200   7.7506   7.7972   7.8114   7.9322   8.0132   8.1017
     8.1335   8.1817   8.2335   8.3161   8.5485   8.5601   8.7176   8.7424
     8.7953   8.8844

          k = 0.0000 0.2618 0.0000 ( 73115 PWs)   bands (ev):

   -38.4686 -38.4053 -36.1048 -36.0328 -23.2136 -23.1904 -23.1795 -23.0675
   -23.0567 -23.0425 -22.8818 -22.6526 -18.9059 -18.8515 -18.8370 -18.7752
   -18.5861 -18.5218 -17.4231 -17.3540 -17.3146 -17.2468 -17.2037 -17.1285
   -15.7424 -15.7015 -15.3335 -15.3144 -15.1265 -15.0234 -14.9925 -14.9649
   -14.9488 -14.8512 -14.8330 -14.8326 -14.8064 -14.7771 -14.6779 -14.6648
   -14.5297 -14.4872 -14.4832 -14.4374 -14.4020 -14.3690 -14.3681 -14.3658
   -14.3569 -14.3013 -14.1937 -14.1870 -13.2003 -12.8418  -8.5591  -8.4471
    -8.4343  -8.3588  -8.3462  -8.3151  -8.2204  -8.2101  -8.1695  -8.1613
    -8.1610  -8.1578  -8.1511  -8.0953  -8.0940  -8.0846  -8.0734  -8.0728
    -7.9978  -7.9813  -7.9656  -7.9299  -7.5964  -7.5297  -3.5049  -3.4676
    -3.3357  -3.2398  -2.6952  -2.6813  -2.6629  -2.5915  -2.5816  -2.5747
    -2.4575  -2.4509  -2.4439  -2.3952  -2.3311  -2.2738  -2.2170  -2.1933
    -2.1303  -2.1097  -2.0820  -2.0525  -2.0202  -2.0008  -1.8959  -1.8470
    -1.8417  -1.8307  -1.7633  -1.7547  -1.7502  -1.7297  -1.7272  -1.7171
    -1.6869  -1.6090  -1.4084  -1.2529  -1.2236  -1.1810  -1.1132  -1.0986
    -1.0523  -0.9780  -0.9669  -0.9624  -0.8981  -0.8949  -0.7407  -0.7339
    -0.7122  -0.6888  -0.6758  -0.6640  -0.6555  -0.6432  -0.5924  -0.5670
    -0.5661  -0.5540  -0.4871  -0.4804  -0.3987  -0.3729  -0.3515  -0.3300
    -0.3221  -0.2562  -0.2449  -0.2389  -0.2260  -0.2003  -0.1988  -0.1807
    -0.1802  -0.1563  -0.1506  -0.1500  -0.1130  -0.0602  -0.0541  -0.0486
    -0.0111  -0.0094  -0.0018   0.0386   0.0485   0.0614   0.0729   0.0930
     0.0965   0.1110   0.1331   0.1502   0.2826   0.3246   0.3326   0.3839
     0.4021   0.4251   0.4909   0.5106   0.5936   0.6134   0.6270   0.6647
     0.7232   0.7914   0.8102   0.8352   0.8509   0.8627   0.8677   0.8857
     0.9306   0.9386   0.9606   0.9717   0.9918   1.0194   1.0482   1.0624
     1.1241   1.1429   1.1605   1.1648   1.1856   1.1930   1.2085   1.3238
     1.3289   1.3390   1.3885   1.3958   1.4005   1.4195   1.4545   1.4924
     1.4958   1.5048   1.5298   1.5755   1.5844   1.6550   1.7146   1.7636
     2.0099   2.0330   2.2815   2.2884   2.3680   2.4462   2.4734   2.4904
     2.5425   2.5513   2.5900   2.6187   2.8011   2.8303   4.8652   5.2717
     5.2809   5.8256   5.9017   6.5064   6.5761   6.6132   6.6504   6.7708
     6.7797   6.7962   6.8485   7.2206   7.2412   7.2628   7.4069   7.4157
     7.4385   7.4845   7.8678   7.8744   7.9707   8.0707   8.1833   8.2991
     8.3141   8.3855   8.4383   8.5283   8.5356   8.7287   8.8189   8.9161
     8.9567   8.9731

          k = 0.0000 0.5236 0.0000 ( 73047 PWs)   bands (ev):

   -38.4621 -38.3987 -36.1007 -36.0287 -23.1676 -23.1299 -23.1189 -23.0207
   -23.0098 -22.9840 -22.8352 -22.6023 -18.8269 -18.8195 -18.8055 -18.7637
   -18.7576 -18.7506 -17.3573 -17.3394 -17.3042 -17.2827 -17.2698 -17.2363
   -15.5008 -15.4623 -15.1868 -15.1672 -15.0432 -15.0043 -14.9895 -14.9307
   -14.8636 -14.8432 -14.8259 -14.7578 -14.6338 -14.6304 -14.6090 -14.5945
   -14.5793 -14.5538 -14.5022 -14.4779 -14.4738 -14.3786 -14.3556 -14.3422
   -14.3171 -14.3056 -14.2602 -14.1879 -13.0787 -12.9945  -8.6336  -8.6230
    -8.5388  -8.4738  -8.4672  -8.4636  -8.4103  -8.3982  -8.3891  -8.3395
    -8.3277  -8.3136  -8.2862  -8.2369  -8.2326  -8.2220  -8.1351  -8.1036
    -8.0931  -8.0746  -7.9882  -7.9076  -7.6923  -7.6822  -3.9111  -3.8561
    -3.5730  -3.4826  -3.1921  -3.1682  -3.0499  -2.9856  -2.8100  -2.7967
    -2.7238  -2.6764  -2.6150  -2.6106  -2.6079  -2.5744  -2.5671  -2.4916
    -2.4302  -2.4223  -2.4199  -2.4119  -2.3445  -2.3043  -2.2150  -2.1636
    -2.1508  -2.1243  -2.0611  -2.0110  -1.9913  -1.9878  -1.9378  -1.9359
    -1.6035  -1.5518  -1.4761  -1.3523  -1.3365  -1.3093  -1.2604  -1.2190
    -1.1820  -1.1716  -1.1489  -1.1371  -1.0024  -0.9938  -0.9921  -0.9614
    -0.9180  -0.9105  -0.9103  -0.8906  -0.8528  -0.8445  -0.8128  -0.7789
    -0.7705  -0.7356  -0.7220  -0.6816  -0.6736  -0.6176  -0.6034  -0.6023
    -0.5356  -0.4309  -0.4174  -0.3732  -0.3233  -0.2810  -0.2270  -0.2160
    -0.1327  -0.1307  -0.1015  -0.0733  -0.0309  -0.0290  -0.0220   0.0139
     0.0600   0.0652   0.0769   0.1566   0.2566   0.2933   0.3094   0.3273
     0.4229   0.4794   0.4832   0.5005   0.5069   0.6697   0.6993   0.7103
     0.7156   0.7303   0.7330   0.7619   0.8343   0.8672   0.9043   0.9172
     0.9286   0.9300   0.9352   0.9596   0.9611   1.0177   1.0377   1.0382
     1.0581   1.0834   1.0883   1.1139   1.1275   1.1390   1.1497   1.2192
     1.2451   1.2888   1.3251   1.3350   1.3431   1.3556   1.3848   1.4075
     1.4676   1.4683   1.4735   1.4779   1.5044   1.5209   1.5315   1.5826
     1.5929   1.6323   1.6608   1.7129   1.7383   1.7474   1.8297   1.8355
     1.8980   1.9117   2.2317   2.4060   2.6762   2.6944   2.7609   2.7905
     2.7967   2.8049   3.4587   3.4814   3.5464   3.5780   5.3943   6.1714
     6.1794   6.2870   6.2977   6.4885   6.5853   6.6239   6.7003   6.7852
     7.2439   7.3785   7.4673   7.4824   7.6901   7.7324   7.8756   7.9560
     8.0806   8.0955   8.1669   8.2292   8.2628   8.3543   8.3854   8.3859
     8.4232   8.5581   8.6180   8.7370   8.7490   8.9230   8.9318   8.9710
     9.0911   9.0912

          k = 0.0000 0.7854 0.0000 ( 73014 PWs)   bands (ev):

   -38.4556 -38.3922 -36.0966 -36.0246 -23.1206 -23.0675 -23.0565 -22.9727
   -22.9619 -22.9239 -22.7874 -22.5506 -19.0349 -18.9720 -18.8020 -18.7401
   -18.7006 -18.6453 -17.4787 -17.4034 -17.2939 -17.2667 -17.2259 -17.1980
   -15.2674 -15.2450 -15.1605 -15.1080 -15.0134 -14.9908 -14.9517 -14.8917
   -14.8639 -14.8433 -14.7941 -14.6746 -14.6635 -14.6564 -14.5401 -14.5161
   -14.5098 -14.4961 -14.4675 -14.4481 -14.4391 -14.3665 -14.3061 -14.3002
   -14.2895 -14.2711 -14.2589 -14.2235 -13.1393 -12.9450  -9.0286  -9.0179
    -8.8536  -8.7690  -8.7587  -8.7319  -8.5738  -8.5169  -8.4947  -8.4141
    -8.4015  -8.3461  -8.3329  -8.3257  -8.3018  -8.2912  -8.1809  -8.0869
    -8.0120  -7.9825  -7.9720  -7.7950  -7.7701  -7.6499  -4.3972  -4.3428
    -3.9766  -3.8928  -3.5942  -3.5748  -3.4152  -3.3455  -3.1895  -3.1799
    -3.1593  -3.1232  -3.1135  -3.0572  -2.9480  -2.9403  -2.8537  -2.7961
    -2.7121  -2.6699  -2.5371  -2.5321  -2.4700  -2.4655  -2.2533  -2.2009
    -2.1819  -2.1766  -2.1695  -2.1213  -2.0280  -1.9935  -1.8603  -1.8286
    -1.8084  -1.5753  -1.5737  -1.5341  -1.4868  -1.4259  -1.4155  -1.3751
    -1.3542  -1.3414  -1.3028  -1.2957  -1.2657  -1.2186  -1.2182  -1.1433
    -1.1321  -1.1204  -1.1129  -1.0735  -1.0640  -1.0588  -1.0534  -1.0336
    -0.9536  -0.9345  -0.9307  -0.9224  -0.8996  -0.8726  -0.7549  -0.5417
    -0.5333  -0.4725  -0.4192  -0.4107  -0.4002  -0.3365  -0.3304  -0.1498
    -0.1341  -0.1097  -0.0986  -0.0921  -0.0608  -0.0250  -0.0163  -0.0105
     0.1436   0.1653   0.2010   0.2439   0.4589   0.4707   0.5403   0.5828
     0.6304   0.6746   0.7104   0.7206   0.7329   0.7391   0.8300   0.8845
     0.8885   0.9264   0.9460   0.9491   0.9611   0.9916   0.9998   1.0417
     1.0451   1.0633   1.0995   1.1403   1.2072   1.2415   1.2449   1.2548
     1.2793   1.3493   1.3614   1.3645   1.3689   1.3971   1.3983   1.4194
     1.4260   1.4688   1.4733   1.4931   1.5040   1.5075   1.5403   1.5472
     1.5762   1.6063   1.6119   1.6563   1.6729   1.6744   1.6907   1.8213
     1.8394   1.8541   1.9166   1.9222   1.9275   1.9290   2.0532   2.1425
     2.1519   2.2442   2.2511   2.3689   2.5526   2.6190   2.6211   2.7209
     2.7242   2.7630   4.0865   4.1199   4.1594   4.1763   5.5491   5.7589
     5.7663   6.3425   6.4464   6.8183   7.0932   7.1055   7.4016   7.4646
     7.7771   7.8442   7.8820   8.0656   8.1394   8.2082   8.2168   8.2881
     8.3578   8.4026   8.4926   8.5254   8.5393   8.5786   8.6763   8.7450
     8.7951   8.8615   8.8643   8.9298   8.9360   9.0238   9.0595   9.1088
     9.2201   9.2823

          k = 0.0000-1.0472 0.0000 ( 73146 PWs)   bands (ev):

   -38.4529 -38.3895 -36.0949 -36.0229 -23.1009 -23.0411 -23.0301 -22.9525
   -22.9417 -22.8986 -22.7672 -22.5287 -19.1154 -19.0527 -18.7948 -18.7329
   -18.6534 -18.5979 -17.5291 -17.4538 -17.2896 -17.2312 -17.2217 -17.1623
   -15.2687 -15.2438 -15.0919 -15.0594 -15.0300 -14.9504 -14.9247 -14.8948
   -14.8511 -14.8241 -14.8201 -14.6717 -14.6577 -14.5610 -14.5247 -14.5215
   -14.5075 -14.4647 -14.4645 -14.4446 -14.3705 -14.3166 -14.3029 -14.2748
   -14.2722 -14.2596 -14.2535 -14.2409 -13.1964 -12.8854  -9.1819  -9.1712
    -9.0076  -8.8877  -8.8774  -8.8685  -8.6787  -8.6162  -8.5101  -8.4202
    -8.4059  -8.3430  -8.3317  -8.3293  -8.3264  -8.3188  -8.2101  -8.0785
    -8.0222  -7.9299  -7.9193  -7.7921  -7.7457  -7.6220  -4.5989  -4.5458
    -4.1629  -4.0809  -3.7483  -3.7312  -3.5651  -3.4910  -3.4243  -3.4139
    -3.3680  -3.3533  -3.3435  -3.2737  -2.9766  -2.9688  -2.8746  -2.8375
    -2.8134  -2.7958  -2.5592  -2.5545  -2.4572  -2.4528  -2.3144  -2.2683
    -2.2650  -2.2231  -2.1934  -2.1494  -1.9559  -1.9404  -1.9107  -1.7010
    -1.6756  -1.6494  -1.6476  -1.6407  -1.5703  -1.5317  -1.5280  -1.4791
    -1.4125  -1.4101  -1.3813  -1.3764  -1.3756  -1.3672  -1.2512  -1.2274
    -1.2257  -1.2021  -1.1736  -1.1732  -1.1623  -1.1525  -1.1388  -1.1270
    -1.0329  -1.0198  -1.0176  -1.0114  -0.8747  -0.8679  -0.8094  -0.5056
    -0.4972  -0.4450  -0.4429  -0.4254  -0.4116  -0.3914  -0.3553  -0.2990
    -0.1363  -0.1177  -0.1023  -0.0714  -0.0519  -0.0384  -0.0224  -0.0029
     0.1733   0.2167   0.2605   0.2652   0.5386   0.5430   0.5633   0.6453
     0.6966   0.7223   0.7299   0.7526   0.8424   0.8478   0.8494   0.9053
     0.9064   0.9501   1.0088   1.0220   1.0270   1.0411   1.0421   1.0496
     1.0617   1.0943   1.1156   1.1266   1.2766   1.2938   1.3256   1.3311
     1.3734   1.4008   1.4058   1.4230   1.4559   1.4991   1.5511   1.5652
     1.5664   1.5921   1.5930   1.5973   1.6262   1.6319   1.6503   1.6518
     1.6940   1.7657   1.8147   1.8335   1.8372   1.8593   1.8768   1.8891
     1.8984   1.9017   2.0098   2.0929   2.1217   2.1308   2.1534   2.2631
     2.3059   2.3142   2.3153   2.3787   2.4056   2.4162   2.4506   2.5751
     2.5799   2.6382   4.2827   4.3191   4.3797   4.3941   5.4794   5.5197
     5.5271   6.2218   6.3380   7.3274   7.4964   7.5063   7.6260   7.7339
     7.8184   7.9455   8.0043   8.0099   8.0740   8.1714   8.4414   8.4640
     8.4951   8.5133   8.5545   8.6102   8.6299   8.7929   8.7930   8.7966
     8.8003   8.8880   8.9134   8.9819   9.0046   9.0185   9.0666   9.1718
     9.2802   9.3544

          k = 0.1250 0.0000 0.0000 ( 73173 PWs)   bands (ev):

   -38.4713 -38.4079 -36.1065 -36.0345 -23.2319 -23.2105 -23.1996 -23.0914
   -23.0805 -23.0632 -22.9043 -22.6739 -18.9437 -18.8896 -18.8410 -18.7793
   -18.4753 -18.4106 -17.4555 -17.3864 -17.3309 -17.2635 -17.1378 -17.0624
   -15.8210 -15.7796 -15.3736 -15.3554 -15.1737 -15.0533 -15.0143 -14.9917
   -14.9647 -14.9635 -14.9119 -14.8619 -14.8492 -14.8448 -14.6895 -14.6679
   -14.5269 -14.4851 -14.4243 -14.3918 -14.3844 -14.3821 -14.3759 -14.3666
   -14.3439 -14.2687 -14.2073 -14.1469 -13.2314 -12.7961  -8.5685  -8.4561
    -8.4422  -8.3506  -8.3372  -8.3073  -8.2502  -8.2399  -8.1832  -8.1177
    -8.1071  -8.0807  -8.0586  -8.0360  -8.0258  -7.9688  -7.9515  -7.9441
    -7.9021  -7.8974  -7.8867  -7.7275  -7.5168  -7.4131  -3.3595  -3.3355
    -3.2490  -3.1511  -2.5646  -2.5578  -2.4986  -2.4931  -2.4775  -2.4410
    -2.3658  -2.2978  -2.2825  -2.2607  -2.2469  -2.2328  -2.1994  -2.1877
    -2.1253  -2.0939  -2.0873  -2.0597  -1.9490  -1.8913  -1.8154  -1.7847
    -1.5622  -1.5218  -1.4796  -1.4451  -1.4358  -1.3667  -1.3570  -1.3122
    -1.3107  -1.3036  -1.3022  -1.3012  -1.2956  -1.2551  -1.1777  -1.0957
    -1.0683  -1.0612  -0.8184  -0.7946  -0.7351  -0.7180  -0.6919  -0.6620
    -0.6305  -0.6234  -0.6050  -0.6035  -0.5813  -0.5788  -0.5763  -0.5529
    -0.5442  -0.5422  -0.5368  -0.5091  -0.5034  -0.3810  -0.3526  -0.3447
    -0.3360  -0.3353  -0.3161  -0.3066  -0.2900  -0.2420  -0.2070  -0.1872
    -0.1803  -0.1768  -0.1700  -0.1660  -0.1166  -0.1089  -0.1078  -0.0804
    -0.0723  -0.0382  -0.0132   0.0182   0.0374   0.0396   0.0848   0.1391
     0.1587   0.1692   0.1852   0.1874   0.2001   0.2245   0.2276   0.2303
     0.3646   0.3859   0.4779   0.5380   0.5492   0.5686   0.5963   0.5999
     0.6690   0.6921   0.7221   0.7341   0.7654   0.7991   0.8005   0.8340
     0.8366   0.8651   0.8902   0.9023   0.9238   0.9318   1.0197   1.0453
     1.0480   1.0903   1.1017   1.1199   1.1426   1.1694   1.1998   1.2515
     1.3100   1.3596   1.3892   1.3917   1.3937   1.4445   1.4563   1.4777
     1.4830   1.4882   1.5206   1.5826   1.6028   1.7018   1.7162   1.7661
     1.8756   1.8859   2.0226   2.0631   2.0652   2.1051   2.1617   2.2219
     2.2484   2.2760   2.2795   2.3263   2.5132   2.5678   4.6267   4.9428
     4.9526   5.5984   5.6815   6.1905   6.2907   6.3410   6.3905   6.5722
     6.5788   6.5819   6.8386   7.1577   7.1930   7.3211   7.4012   7.4140
     7.6342   7.7249   7.7518   7.8121   7.8126   7.8371   8.0065   8.1042
     8.1638   8.2463   8.2943   8.3436   8.4774   8.5736   8.6915   8.7456
     8.7974   8.8701

          k = 0.1250 0.2618 0.0000 ( 73095 PWs)   bands (ev):

   -38.4686 -38.4053 -36.1048 -36.0328 -23.2131 -23.1861 -23.1752 -23.0721
   -23.0612 -23.0396 -22.8851 -22.6534 -18.9052 -18.8508 -18.8338 -18.7720
   -18.5861 -18.5218 -17.4260 -17.3569 -17.3260 -17.2585 -17.2036 -17.1284
   -15.7156 -15.6746 -15.3196 -15.3014 -15.1198 -15.0159 -14.9992 -14.9576
   -14.9551 -14.8825 -14.8527 -14.8389 -14.8363 -14.8150 -14.6514 -14.6268
   -14.5225 -14.4842 -14.4821 -14.4401 -14.4068 -14.3721 -14.3695 -14.3655
   -14.3587 -14.3042 -14.2078 -14.1759 -13.1873 -12.8558  -8.5591  -8.4490
    -8.4363  -8.3646  -8.3523  -8.3193  -8.2764  -8.2659  -8.2038  -8.1933
    -8.1755  -8.1075  -8.1058  -8.0954  -8.0954  -8.0818  -8.0511  -8.0484
    -8.0382  -7.9652  -7.9171  -7.8989  -7.5848  -7.5182  -3.4691  -3.4315
    -3.3000  -3.2042  -2.7046  -2.6896  -2.6654  -2.5930  -2.5740  -2.5664
    -2.4685  -2.4586  -2.4443  -2.3993  -2.3476  -2.2903  -2.2352  -2.1971
    -2.1446  -2.1388  -2.1352  -2.0887  -2.0450  -1.9898  -1.8820  -1.8410
    -1.8300  -1.8272  -1.7556  -1.7452  -1.7331  -1.7234  -1.7196  -1.6983
    -1.6646  -1.5861  -1.4013  -1.2522  -1.2379  -1.1911  -1.1009  -1.0815
    -1.0352  -1.0113  -0.9739  -0.9670  -0.9230  -0.9176  -0.7897  -0.7691
    -0.7189  -0.7057  -0.7024  -0.6839  -0.6789  -0.6531  -0.6359  -0.5814
    -0.5133  -0.5108  -0.4686  -0.4665  -0.4038  -0.3749  -0.3458  -0.3337
    -0.3261  -0.2860  -0.2627  -0.2411  -0.2373  -0.2225  -0.1899  -0.1775
    -0.1716  -0.1646  -0.1391  -0.1344  -0.1043  -0.0721  -0.0537  -0.0420
    -0.0346   0.0035   0.0175   0.0483   0.0508   0.0624   0.0740   0.0818
     0.1211   0.1253   0.1509   0.1579   0.2963   0.3051   0.3120   0.3799
     0.4118   0.4266   0.5048   0.5267   0.5855   0.6078   0.6383   0.6959
     0.7312   0.7518   0.7790   0.8309   0.8576   0.8606   0.8705   0.8834
     0.8915   0.9370   0.9382   0.9561   0.9604   1.0197   1.0502   1.0649
     1.0668   1.0741   1.1511   1.1680   1.1875   1.2444   1.2666   1.3188
     1.3235   1.3671   1.3765   1.3777   1.3842   1.4191   1.4404   1.4533
     1.4606   1.4966   1.5236   1.6173   1.6582   1.7607   1.8177   1.8595
     1.8645   2.1494   2.2806   2.3004   2.3700   2.4426   2.4715   2.4896
     2.5437   2.5531   2.5890   2.6179   2.7931   2.8224   4.8966   5.3086
     5.3177   5.8663   5.9411   6.3140   6.5853   6.6051   6.6137   6.6611
     6.6863   6.9030   7.0061   7.2318   7.2749   7.3298   7.4060   7.4743
     7.5538   7.5823   7.8691   7.8699   7.9747   8.0335   8.1598   8.2869
     8.3185   8.4279   8.4763   8.5409   8.5709   8.6685   8.8181   8.8446
     8.8703   8.9492

          k = 0.1250 0.5236 0.0000 ( 73044 PWs)   bands (ev):

   -38.4621 -38.3987 -36.1007 -36.0287 -23.1671 -23.1261 -23.1152 -23.0246
   -23.0138 -22.9815 -22.8380 -22.6029 -18.8269 -18.8164 -18.8049 -18.7636
   -18.7545 -18.7500 -17.3586 -17.3406 -17.3142 -17.2847 -17.2705 -17.2466
   -15.4759 -15.4375 -15.1782 -15.1598 -15.0413 -15.0026 -14.9869 -14.9249
   -14.8639 -14.8419 -14.8261 -14.7600 -14.6910 -14.6679 -14.6367 -14.5879
   -14.5560 -14.5164 -14.5008 -14.4806 -14.4767 -14.3760 -14.3542 -14.3405
   -14.3187 -14.3070 -14.2598 -14.1888 -13.0749 -12.9971  -8.6673  -8.6568
    -8.5387  -8.4962  -8.4291  -8.4181  -8.4073  -8.3975  -8.3859  -8.3456
    -8.3343  -8.3044  -8.3001  -8.2903  -8.2433  -8.2314  -8.1536  -8.1168
    -8.0515  -8.0411  -7.9899  -7.8714  -7.7395  -7.6223  -3.8756  -3.8207
    -3.5358  -3.4456  -3.2028  -3.1774  -3.0521  -2.9879  -2.8043  -2.7913
    -2.7221  -2.6740  -2.6161  -2.6091  -2.6071  -2.5740  -2.5667  -2.4945
    -2.4308  -2.4229  -2.4188  -2.4110  -2.3118  -2.2715  -2.2294  -2.1994
    -2.1632  -2.1455  -2.0613  -2.0348  -2.0173  -1.9870  -1.9763  -1.9263
    -1.6092  -1.5590  -1.4864  -1.3599  -1.3493  -1.3143  -1.2692  -1.2428
    -1.1972  -1.1747  -1.1409  -1.1113  -1.0636  -1.0496  -1.0449  -0.9876
    -0.9797  -0.9394  -0.9080  -0.8739  -0.8541  -0.8380  -0.8356  -0.7899
    -0.7766  -0.7296  -0.7053  -0.6724  -0.6695  -0.6200  -0.5985  -0.5918
    -0.5347  -0.4326  -0.4155  -0.3678  -0.2781  -0.2428  -0.2291  -0.2056
    -0.1707  -0.1659  -0.1000  -0.0905  -0.0556  -0.0208  -0.0139   0.0064
     0.0761   0.1005   0.1042   0.1546   0.2903   0.3048   0.3130   0.3424
     0.4122   0.4781   0.4961   0.5163   0.5200   0.6432   0.6947   0.7075
     0.7215   0.7424   0.7487   0.7718   0.8104   0.8276   0.8624   0.8751
     0.8924   0.9324   0.9363   0.9848   0.9910   1.0055   1.0217   1.0285
     1.0633   1.0815   1.0862   1.1139   1.1320   1.1490   1.1806   1.2141
     1.2340   1.2742   1.2993   1.3069   1.3461   1.3652   1.3928   1.4070
     1.4181   1.4474   1.4699   1.4893   1.4953   1.4996   1.5078   1.5794
     1.5868   1.6414   1.7033   1.7281   1.7386   1.8181   1.9039   1.9753
     2.0196   2.0350   2.2406   2.4214   2.6753   2.6958   2.7618   2.7884
     2.7983   2.8075   3.4260   3.4491   3.5184   3.5503   5.4141   6.1868
     6.1949   6.2936   6.3054   6.4719   6.5891   6.6426   6.7312   6.8028
     7.2631   7.3690   7.5159   7.5302   7.7203   7.7792   7.8635   7.9884
     8.0647   8.0744   8.1580   8.1913   8.2065   8.3654   8.3746   8.4056
     8.4320   8.5519   8.6198   8.7301   8.7458   8.9153   8.9390   8.9893
     9.0401   9.0652

          k = 0.1250 0.7854 0.0000 ( 73046 PWs)   bands (ev):

   -38.4556 -38.3922 -36.0966 -36.0246 -23.1202 -23.0644 -23.0534 -22.9760
   -22.9652 -22.9218 -22.7896 -22.5510 -19.0349 -18.9720 -18.7990 -18.7370
   -18.7000 -18.6448 -17.4787 -17.4034 -17.3032 -17.2689 -17.2355 -17.2002
   -15.2492 -15.2283 -15.1467 -15.0916 -15.0107 -14.9897 -14.9446 -14.8883
   -14.8675 -14.8437 -14.7949 -14.6773 -14.6662 -14.6570 -14.5526 -14.5405
   -14.5281 -14.5185 -14.4650 -14.4435 -14.4309 -14.3605 -14.3046 -14.2987
   -14.2884 -14.2720 -14.2597 -14.2252 -13.1323 -12.9529  -9.0189  -9.0082
    -8.8423  -8.7269  -8.7244  -8.7165  -8.5362  -8.5169  -8.4657  -8.4132
    -8.4009  -8.3495  -8.3460  -8.3381  -8.3339  -8.3252  -8.2186  -8.0902
    -8.0117  -7.9974  -7.9869  -7.8167  -7.8135  -7.6477  -4.3601  -4.3063
    -3.9417  -3.8584  -3.6100  -3.5891  -3.4232  -3.3532  -3.1870  -3.1774
    -3.1562  -3.1258  -3.1160  -3.0596  -2.9344  -2.9264  -2.8416  -2.7824
    -2.6828  -2.6412  -2.5388  -2.5336  -2.4690  -2.4644  -2.2465  -2.1935
    -2.1928  -2.1750  -2.1483  -2.1085  -2.0595  -2.0135  -1.9460  -1.9006
    -1.7931  -1.5994  -1.5658  -1.5576  -1.4938  -1.4447  -1.4094  -1.3835
    -1.3813  -1.3773  -1.3567  -1.3224  -1.3215  -1.3047  -1.2013  -1.1516
    -1.1440  -1.1237  -1.1133  -1.0816  -1.0640  -1.0506  -1.0503  -1.0426
    -0.9373  -0.9275  -0.9265  -0.9081  -0.8889  -0.8405  -0.7590  -0.5523
    -0.5451  -0.4814  -0.4190  -0.3844  -0.3400  -0.2776  -0.2705  -0.1628
    -0.1578  -0.1532  -0.1204  -0.0733  -0.0604  -0.0326   0.0059   0.0068
     0.1359   0.2063   0.2369   0.2468   0.4447   0.4769   0.5495   0.5580
     0.6306   0.6700   0.6964   0.7247   0.7560   0.7666   0.8483   0.8794
     0.8944   0.9080   0.9280   0.9288   0.9635   0.9667   0.9971   1.0248
     1.0447   1.0630   1.0794   1.1325   1.1955   1.2140   1.2383   1.2476
     1.2881   1.3313   1.3504   1.3538   1.3692   1.3800   1.4108   1.4276
     1.4626   1.4693   1.4717   1.4876   1.4956   1.5245   1.5372   1.5487
     1.5903   1.6219   1.6554   1.6570   1.6789   1.7657   1.7847   1.8374
     1.8556   1.9173   1.9276   1.9357   1.9398   2.0326   2.0661   2.1096
     2.1344   2.1436   2.3270   2.3812   2.5537   2.6203   2.6209   2.7194
     2.7279   2.7719   4.0231   4.0559   4.1005   4.1187   5.5867   5.8139
     5.8215   6.3723   6.4722   6.8358   7.0605   7.0730   7.3864   7.4529
     7.6938   7.8470   7.9094   7.9651   8.0386   8.2324   8.2501   8.2961
     8.3634   8.4238   8.4835   8.5298   8.5611   8.6426   8.7068   8.7589
     8.8113   8.8518   8.8901   8.9524   8.9818   9.0489   9.0942   9.1200
     9.1901   9.2186

          k = 0.1250-1.0472 0.0000 ( 73102 PWs)   bands (ev):

   -38.4529 -38.3895 -36.0949 -36.0229 -23.1005 -23.0382 -23.0272 -22.9556
   -22.9447 -22.8967 -22.7692 -22.5291 -19.1154 -19.0527 -18.7918 -18.7298
   -18.6529 -18.5974 -17.5291 -17.4539 -17.2986 -17.2331 -17.2309 -17.1644
   -15.2577 -15.2326 -15.0679 -15.0352 -15.0237 -14.9514 -14.9115 -14.8817
   -14.8732 -14.8379 -14.8209 -14.6666 -14.6537 -14.5720 -14.5369 -14.5328
   -14.5251 -14.4824 -14.4585 -14.4401 -14.3694 -14.3169 -14.3093 -14.2749
   -14.2716 -14.2591 -14.2545 -14.2419 -13.1860 -12.8989  -9.1516  -9.1409
    -8.9790  -8.8572  -8.8469  -8.8416  -8.6501  -8.5903  -8.5096  -8.4164
    -8.4024  -8.3643  -8.3538  -8.3442  -8.3322  -8.3294  -8.2421  -8.0793
    -8.0218  -7.9737  -7.9631  -7.8199  -7.7867  -7.6582  -4.5607  -4.5082
    -4.1284  -4.0468  -3.7658  -3.7473  -3.5756  -3.5008  -3.4218  -3.4115
    -3.3656  -3.3560  -3.3462  -3.2759  -2.9600  -2.9519  -2.8590  -2.8107
    -2.7961  -2.7696  -2.5616  -2.5569  -2.4582  -2.4537  -2.3071  -2.2573
    -2.2287  -2.2033  -2.1878  -2.1508  -2.0114  -1.9344  -1.8626  -1.8024
    -1.7568  -1.7378  -1.7047  -1.6393  -1.6254  -1.5571  -1.5152  -1.4878
    -1.4730  -1.4645  -1.3968  -1.3935  -1.3928  -1.3559  -1.2534  -1.2447
    -1.2174  -1.2037  -1.1861  -1.1680  -1.1580  -1.1481  -1.1395  -1.1035
    -1.0261  -1.0174  -1.0084  -1.0016  -0.8743  -0.8468  -0.7847  -0.5187
    -0.5117  -0.4501  -0.4121  -0.3730  -0.3518  -0.3165  -0.3035  -0.3008
    -0.1544  -0.1502  -0.1231  -0.0876  -0.0678  -0.0264  -0.0175   0.0016
     0.1656   0.2509   0.2672   0.3152   0.5043   0.5706   0.5910   0.6505
     0.6514   0.7201   0.7359   0.7483   0.8039   0.8565   0.8572   0.9016
     0.9052   0.9398   0.9743   1.0130   1.0376   1.0392   1.0523   1.0612
     1.0666   1.0929   1.1191   1.1589   1.2012   1.2744   1.2983   1.3133
     1.3586   1.3875   1.4624   1.4909   1.5058   1.5074   1.5330   1.5771
     1.5887   1.5920   1.5930   1.6214   1.6337   1.6376   1.6604   1.6695
     1.8018   1.8260   1.8382   1.8387   1.8673   1.8820   1.8845   1.8871
     1.8964   1.9013   2.0074   2.0931   2.1283   2.1375   2.1517   2.2626
     2.2986   2.3080   2.3185   2.3340   2.3706   2.4094   2.4514   2.5729
     2.5892   2.6525   4.2049   4.2411   4.3039   4.3194   5.5309   5.5876
     5.5953   6.2544   6.3664   7.3180   7.4034   7.4141   7.6423   7.6918
     7.8263   7.8264   7.8963   7.9342   8.0570   8.1404   8.4827   8.5163
     8.5754   8.5928   8.5973   8.6585   8.7109   8.7470   8.8328   8.8580
     8.8824   8.8983   8.9470   8.9881   9.0446   9.0676   9.0750   9.2029
     9.3160   9.3380

          k = 0.2500 0.0000 0.0000 ( 73081 PWs)   bands (ev):

   -38.4713 -38.4079 -36.1065 -36.0345 -23.2304 -23.1979 -23.1869 -23.1048
   -23.0939 -23.0549 -22.9132 -22.6758 -18.9420 -18.8878 -18.8331 -18.7713
   -18.4753 -18.4106 -17.4625 -17.3937 -17.3592 -17.2925 -17.1379 -17.0625
   -15.7468 -15.7051 -15.3341 -15.3187 -15.1673 -15.0471 -15.0456 -15.0215
   -15.0157 -14.9753 -14.9632 -14.8863 -14.8694 -14.8666 -14.6566 -14.6257
   -14.5069 -14.4695 -14.4278 -14.3982 -14.3878 -14.3878 -14.3805 -14.3704
   -14.3569 -14.2775 -14.2199 -14.1455 -13.1841 -12.8505  -8.5689  -8.4609
    -8.4471  -8.3579  -8.3448  -8.3178  -8.2173  -8.2068  -8.2044  -8.0941
    -8.0835  -8.0813  -8.0551  -8.0448  -8.0220  -7.9550  -7.9466  -7.9236
    -7.9230  -7.9130  -7.9052  -7.7509  -7.5260  -7.4194  -3.2588  -3.2345
    -3.1545  -3.0558  -2.5862  -2.5750  -2.5362  -2.5294  -2.4675  -2.4656
    -2.4318  -2.3645  -2.3326  -2.2945  -2.2766  -2.2411  -2.2370  -2.1811
    -2.1453  -2.1180  -2.1051  -2.0905  -1.9073  -1.8831  -1.8511  -1.8454
    -1.5049  -1.4894  -1.4399  -1.3998  -1.3797  -1.3636  -1.3355  -1.3092
    -1.3055  -1.2993  -1.2958  -1.2750  -1.2292  -1.1856  -1.1353  -1.0379
    -1.0094  -1.0025  -0.8630  -0.8017  -0.7807  -0.7604  -0.7005  -0.6901
    -0.6826  -0.6730  -0.6648  -0.6311  -0.6305  -0.6286  -0.6119  -0.6033
    -0.5971  -0.5953  -0.5704  -0.5238  -0.4977  -0.3978  -0.3790  -0.3586
    -0.3573  -0.3443  -0.3392  -0.3213  -0.3115  -0.2399  -0.2385  -0.1911
    -0.1657  -0.1143  -0.1067  -0.0974  -0.0974  -0.0940  -0.0882  -0.0741
    -0.0627   0.0211   0.0285   0.0296   0.0490   0.0762   0.1059   0.1518
     0.1608   0.1681   0.1730   0.1853   0.2080   0.2352   0.2361   0.2441
     0.3329   0.3478   0.4758   0.5011   0.5304   0.5458   0.5496   0.6114
     0.6416   0.6535   0.6724   0.6821   0.6849   0.7443   0.7487   0.7604
     0.8396   0.8831   0.8926   0.9205   0.9527   0.9570   1.0219   1.0363
     1.0628   1.1001   1.1019   1.1818   1.1828   1.2039   1.2290   1.2299
     1.2720   1.3313   1.3785   1.3913   1.4281   1.4398   1.4655   1.4807
     1.4818   1.4832   1.6652   1.6687   1.6880   1.6902   1.6942   1.7298
     1.8494   1.8643   1.9913   2.0384   2.0822   2.0863   2.1450   2.1954
     2.2620   2.2822   2.3027   2.3302   2.4922   2.5468   4.7432   5.0779
     5.0864   5.7417   5.8033   5.8677   6.1869   6.1944   6.4402   6.5128
     6.5398   6.7478   6.9800   7.0416   7.1400   7.5047   7.6092   7.6502
     7.6693   7.7024   7.7547   7.7804   7.8155   7.9105   8.0165   8.0907
     8.1548   8.2526   8.3940   8.4307   8.4492   8.5835   8.6037   8.7586
     8.8206   8.9074

          k = 0.2500 0.2618 0.0000 ( 73072 PWs)   bands (ev):

   -38.4686 -38.4053 -36.1048 -36.0328 -23.2117 -23.1741 -23.1631 -23.0848
   -23.0739 -23.0318 -22.8935 -22.6551 -18.9035 -18.8491 -18.8260 -18.7641
   -18.5861 -18.5218 -17.4327 -17.3638 -17.3529 -17.2862 -17.2034 -17.1282
   -15.6430 -15.6017 -15.2847 -15.2695 -15.1125 -15.0196 -15.0010 -14.9826
   -14.9615 -14.9327 -14.9256 -14.8721 -14.8524 -14.8336 -14.6183 -14.5845
   -14.5077 -14.4836 -14.4706 -14.4464 -14.4201 -14.3775 -14.3706 -14.3672
   -14.3638 -14.3093 -14.2245 -14.1661 -13.1499 -12.8956  -8.5591  -8.4553
    -8.4428  -8.3842  -8.3727  -8.3304  -8.3297  -8.3193  -8.2493  -8.2386
    -8.2139  -8.1358  -8.1229  -8.1022  -8.0872  -8.0322  -8.0219  -7.9894
    -7.9791  -7.9651  -7.8559  -7.8428  -7.5582  -7.4925  -3.3654  -3.3271
    -3.1984  -3.1028  -2.7432  -2.7235  -2.6792  -2.6015  -2.5542  -2.5453
    -2.4973  -2.4822  -2.4509  -2.4089  -2.4008  -2.3396  -2.2937  -2.2565
    -2.2346  -2.1956  -2.1783  -2.1557  -2.0430  -1.9789  -1.8584  -1.8371
    -1.8179  -1.7911  -1.7504  -1.7390  -1.7326  -1.7222  -1.6452  -1.6155
    -1.5900  -1.5142  -1.3783  -1.2632  -1.2566  -1.2056  -1.1348  -1.0852
    -1.0632  -1.0235  -1.0180  -0.9877  -0.9460  -0.9298  -0.9103  -0.8963
    -0.8352  -0.8017  -0.7070  -0.6846  -0.6636  -0.6412  -0.6336  -0.5791
    -0.4942  -0.4899  -0.4386  -0.4310  -0.3911  -0.3748  -0.3551  -0.3387
    -0.3345  -0.3251  -0.3004  -0.2899  -0.2483  -0.2410  -0.1916  -0.1848
    -0.1748  -0.1676  -0.1498  -0.1305  -0.0864  -0.0572  -0.0318  -0.0088
    -0.0005   0.0276   0.0286   0.0514   0.0546   0.0644   0.0801   0.0908
     0.1400   0.1637   0.1805   0.2150   0.2582   0.2702   0.3285   0.3739
     0.4104   0.4197   0.5212   0.5505   0.5766   0.5927   0.6792   0.7367
     0.7475   0.7593   0.7783   0.7979   0.8005   0.8244   0.8458   0.8678
     0.8756   0.8766   0.9137   0.9189   0.9755   0.9825   0.9931   1.0218
     1.0975   1.1075   1.1180   1.1627   1.1762   1.2850   1.3082   1.3156
     1.3237   1.3322   1.3324   1.3404   1.3817   1.3932   1.3995   1.4243
     1.4498   1.4519   1.4943   1.6867   1.7660   1.8326   1.9483   2.0163
     2.0771   2.2257   2.2822   2.3358   2.3733   2.4332   2.4628   2.4858
     2.5480   2.5589   2.5819   2.6116   2.7623   2.7918   4.9844   5.4154
     5.4240   5.9790   6.0028   6.0713   6.3230   6.3312   6.7091   6.8230
     6.8351   7.0614   7.0899   7.1400   7.1974   7.4673   7.5052   7.6554
     7.7379   7.7491   7.8371   7.8637   7.9680   8.0732   8.1756   8.2336
     8.3026   8.4309   8.5067   8.5617   8.5947   8.6161   8.7123   8.7434
     8.8392   8.8701

          k = 0.2500 0.5236 0.0000 ( 73026 PWs)   bands (ev):

   -38.4621 -38.3987 -36.1007 -36.0287 -23.1660 -23.1156 -23.1046 -23.0356
   -23.0248 -22.9749 -22.8450 -22.6043 -18.8267 -18.8088 -18.8035 -18.7634
   -18.7487 -18.7468 -17.3624 -17.3436 -17.3376 -17.2900 -17.2742 -17.2685
   -15.4083 -15.3703 -15.1584 -15.1432 -15.0369 -14.9982 -14.9846 -14.9097
   -14.8654 -14.8448 -14.8273 -14.7713 -14.7634 -14.7578 -14.6440 -14.5982
   -14.5321 -14.5182 -14.4937 -14.4875 -14.4626 -14.3655 -14.3504 -14.3359
   -14.3229 -14.3111 -14.2593 -14.1907 -13.0646 -13.0047  -8.7028  -8.6922
    -8.5382  -8.5261  -8.4497  -8.4392  -8.4316  -8.4134  -8.4014  -8.3506
    -8.3391  -8.3049  -8.2691  -8.2662  -8.2586  -8.2507  -8.1352  -8.1166
    -8.0044  -7.9954  -7.9919  -7.8359  -7.7365  -7.5816  -3.7748  -3.7207
    -3.4330  -3.3443  -3.2408  -3.2095  -3.0617  -2.9967  -2.7854  -2.7734
    -2.7139  -2.6624  -2.6214  -2.6141  -2.5985  -2.5717  -2.5642  -2.5021
    -2.4388  -2.4299  -2.4156  -2.4080  -2.3308  -2.2585  -2.2446  -2.2168
    -2.1936  -2.1909  -2.1706  -2.1158  -1.9786  -1.9501  -1.9307  -1.9039
    -1.6414  -1.5937  -1.5107  -1.3946  -1.3930  -1.3403  -1.3096  -1.2802
    -1.2730  -1.2453  -1.2249  -1.1970  -1.1773  -1.1584  -1.0799  -1.0432
    -0.9763  -0.9341  -0.8922  -0.8626  -0.8478  -0.8224  -0.8210  -0.7996
    -0.7615  -0.7384  -0.7156  -0.6520  -0.6495  -0.6301  -0.5930  -0.5663
    -0.5323  -0.4392  -0.4115  -0.3817  -0.3441  -0.3243  -0.2313  -0.2068
    -0.1613  -0.1446  -0.0963  -0.0754  -0.0128   0.0057   0.0362   0.0532
     0.1049   0.1600   0.1748   0.1906   0.2560   0.2908   0.3831   0.3977
     0.4298   0.4787   0.5229   0.5453   0.5520   0.6066   0.6689   0.6979
     0.7115   0.7390   0.7430   0.7620   0.7837   0.7916   0.8085   0.8206
     0.8664   0.8883   0.9073   0.9110   0.9224   1.0283   1.0295   1.0600
     1.0875   1.1066   1.1397   1.1454   1.1504   1.1541   1.1775   1.2158
     1.2223   1.2591   1.2695   1.3005   1.3166   1.3449   1.3745   1.3855
     1.3862   1.3903   1.4017   1.4504   1.4869   1.5158   1.5309   1.5521
     1.5687   1.5838   1.7035   1.7117   1.8610   2.1249   2.1531   2.1709
     2.2270   2.2626   2.3197   2.5070   2.6735   2.6994   2.7639   2.7841
     2.8059   2.8162   3.3237   3.3478   3.4288   3.4619   5.4657   6.2271
     6.2354   6.3087   6.3226   6.4101   6.6348   6.6971   6.7853   6.8454
     7.3103   7.3869   7.6519   7.6634   7.7557   7.8008   7.9237   7.9838
     8.0282   8.0482   8.0781   8.1094   8.1895   8.3665   8.4123   8.4425
     8.4531   8.5601   8.6634   8.7280   8.7433   8.8834   8.9331   8.9618
     8.9882   9.0289

          k = 0.2500 0.7854 0.0000 ( 73086 PWs)   bands (ev):

   -38.4556 -38.3922 -36.0966 -36.0246 -23.1194 -23.0555 -23.0445 -22.9852
   -22.9744 -22.9165 -22.7953 -22.5521 -19.0348 -18.9719 -18.7916 -18.7296
   -18.6988 -18.6435 -17.4787 -17.4034 -17.3255 -17.2740 -17.2584 -17.2054
   -15.2041 -15.1864 -15.1041 -15.0422 -15.0153 -14.9984 -14.9228 -14.8757
   -14.8707 -14.8378 -14.7980 -14.6897 -14.6719 -14.6587 -14.5993 -14.5984
   -14.5745 -14.5496 -14.4583 -14.4309 -14.4235 -14.3560 -14.3008 -14.2945
   -14.2851 -14.2748 -14.2621 -14.2294 -13.1123 -12.9749  -8.9789  -8.9683
    -8.8012  -8.6937  -8.6177  -8.6074  -8.5164  -8.4760  -8.4654  -8.4384
    -8.4078  -8.3973  -8.3850  -8.3524  -8.3405  -8.3283  -8.3148  -8.0941
    -8.0535  -8.0431  -8.0113  -7.8952  -7.8730  -7.6765  -4.2566  -4.2048
    -3.8470  -3.7658  -3.6608  -3.6350  -3.4497  -3.3782  -3.1798  -3.1701
    -3.1480  -3.1329  -3.1232  -3.0661  -2.8907  -2.8819  -2.8012  -2.7365
    -2.5961  -2.5598  -2.5489  -2.5396  -2.4648  -2.4597  -2.2784  -2.2201
    -2.1928  -2.1731  -2.1469  -2.1218  -2.0911  -2.0871  -2.0501  -2.0008
    -1.7420  -1.7368  -1.7090  -1.5892  -1.5858  -1.5832  -1.5341  -1.4617
    -1.4341  -1.4079  -1.4078  -1.3812  -1.3180  -1.2978  -1.1938  -1.1230
    -1.1078  -1.0989  -1.0968  -1.0893  -1.0708  -1.0420  -1.0265  -1.0100
    -0.9476  -0.9351  -0.9001  -0.8708  -0.8440  -0.8130  -0.7665  -0.5875
    -0.5811  -0.5096  -0.4217  -0.4034  -0.3923  -0.3644  -0.1970  -0.1500
    -0.1339  -0.1175  -0.0545  -0.0233   0.0177   0.0447   0.0595   0.1076
     0.1269   0.2069   0.3301   0.3683   0.3758   0.4692   0.5242   0.5945
     0.6294   0.6387   0.6672   0.7203   0.7964   0.8285   0.8370   0.8455
     0.8644   0.8794   0.9136   0.9269   0.9650   0.9782   0.9918   1.0093
     1.0339   1.0426   1.0606   1.0920   1.1576   1.1850   1.1995   1.2399
     1.2495   1.2794   1.3164   1.3292   1.3706   1.3822   1.4030   1.4222
     1.4237   1.4541   1.4782   1.4905   1.5279   1.5381   1.5515   1.5634
     1.5692   1.6185   1.6318   1.6564   1.6766   1.8265   1.8608   1.9014
     1.9076   1.9524   1.9611   2.0810   2.1095   2.1198   2.1432   2.1489
     2.2133   2.3217   2.3266   2.4610   2.5578   2.6234   2.6250   2.7127
     2.7671   2.8033   3.8335   3.8655   3.9270   3.9482   5.6835   5.9694
     5.9776   6.4542   6.5433   6.8788   6.9511   6.9670   7.3254   7.4000
     7.5632   7.7637   7.8447   7.8686   8.0183   8.2578   8.2706   8.2875
     8.3682   8.4280   8.4775   8.5599   8.6089   8.6890   8.8104   8.8151
     8.8646   8.9036   8.9323   8.9860   9.0621   9.0984   9.1055   9.1520
     9.2043   9.2322

          k = 0.2500-1.0472 0.0000 ( 73056 PWs)   bands (ev):

   -38.4529 -38.3895 -36.0949 -36.0229 -23.0998 -23.0301 -23.0191 -22.9640
   -22.9532 -22.8919 -22.7743 -22.5301 -19.1153 -19.0526 -18.7845 -18.7224
   -18.6517 -18.5962 -17.5291 -17.4539 -17.3202 -17.2530 -17.2379 -17.1693
   -15.2259 -15.2003 -15.0124 -15.0024 -14.9696 -14.9643 -14.9155 -14.8754
   -14.8706 -14.8461 -14.8223 -14.6594 -14.6468 -14.6032 -14.5754 -14.5644
   -14.5641 -14.5327 -14.4414 -14.4280 -14.3702 -14.3273 -14.3177 -14.2751
   -14.2701 -14.2575 -14.2569 -14.2443 -13.1557 -12.9364  -9.0648  -9.0541
    -8.8972  -8.7701  -8.7685  -8.7581  -8.5674  -8.5206  -8.5060  -8.4625
    -8.4520  -8.4058  -8.3925  -8.3508  -8.3381  -8.3319  -8.3313  -8.0940
    -8.0834  -8.0809  -8.0204  -7.8985  -7.8937  -7.7551  -4.4544  -4.4042
    -4.0346  -3.9548  -3.8207  -3.7973  -3.6084  -3.5318  -3.4144  -3.4043
    -3.3638  -3.3590  -3.3540  -3.2820  -2.9077  -2.8986  -2.8077  -2.7389
    -2.7322  -2.6923  -2.5692  -2.5641  -2.4588  -2.4539  -2.2869  -2.2436
    -2.2365  -2.1546  -2.1323  -2.1075  -2.0534  -2.0164  -2.0042  -1.9805
    -1.9406  -1.8720  -1.7965  -1.7634  -1.7500  -1.6666  -1.6243  -1.5413
    -1.4818  -1.4598  -1.4371  -1.4331  -1.3394  -1.3026  -1.2551  -1.2026
    -1.1947  -1.1772  -1.1734  -1.1705  -1.1405  -1.1279  -1.1144  -1.0433
    -1.0365  -1.0257  -0.9864  -0.9254  -0.8866  -0.8255  -0.7807  -0.5623
    -0.5564  -0.4853  -0.4329  -0.4222  -0.4036  -0.3548  -0.1903  -0.1484
    -0.1179  -0.1047  -0.0950  -0.0130   0.0136   0.0177   0.0343   0.0489
     0.1444   0.2233   0.4052   0.4183   0.4517   0.5372   0.6467   0.6687
     0.6698   0.7000   0.7248   0.7595   0.8122   0.8706   0.8739   0.8877
     0.8990   0.9185   0.9219   0.9687   1.0269   1.0438   1.0454   1.0522
     1.0638   1.0783   1.0952   1.0954   1.2111   1.2530   1.2909   1.3026
     1.3282   1.3714   1.4313   1.4408   1.4573   1.4777   1.5199   1.5309
     1.5428   1.5628   1.5732   1.5882   1.6180   1.6231   1.7447   1.7783
     1.8265   1.8610   1.8742   1.8758   1.8894   1.9388   1.9988   2.0599
     2.0923   2.0935   2.1257   2.1475   2.1488   2.1568   2.2047   2.2113
     2.2313   2.2780   2.2875   2.3189   2.3347   2.4193   2.4669   2.5693
     2.6632   2.7022   3.9774   4.0130   4.0868   4.1053   5.6681   5.7796
     5.7879   6.3441   6.4447   7.1536   7.1647   7.2699   7.5376   7.5703
     7.6590   7.6843   7.8444   7.9188   8.0787   8.1604   8.4435   8.5358
     8.6649   8.6821   8.7349   8.7575   8.8472   8.8956   8.8971   8.9386
     8.9387   9.0088   9.0391   9.0948   9.1034   9.1977   9.2096   9.2280
     9.2800   9.4034

          k = 0.3750 0.0000 0.0000 ( 73116 PWs)   bands (ev):

   -38.4713 -38.4079 -36.1065 -36.0345 -23.2289 -23.1797 -23.1687 -23.1236
   -23.1129 -23.0455 -22.9234 -22.6778 -18.9402 -18.8860 -18.8250 -18.7631
   -18.4753 -18.4106 -17.4695 -17.4009 -17.3867 -17.3207 -17.1379 -17.0625
   -15.6509 -15.6096 -15.3153 -15.2953 -15.1880 -15.1078 -15.0721 -15.0369
   -15.0237 -14.9733 -14.9559 -14.9214 -14.8940 -14.8936 -14.6369 -14.6011
   -14.4868 -14.4545 -14.4299 -14.4084 -14.3921 -14.3911 -14.3864 -14.3749
   -14.3677 -14.2849 -14.2320 -14.1446 -13.1120 -12.9298  -8.5692  -8.4650
    -8.4514  -8.3634  -8.3506  -8.3277  -8.2197  -8.1770  -8.1667  -8.0839
    -8.0822  -8.0735  -8.0592  -8.0485  -7.9882  -7.9611  -7.9506  -7.9416
    -7.9404  -7.9121  -7.8936  -7.7826  -7.5359  -7.4259  -3.1026  -3.0791
    -3.0148  -2.9152  -2.7192  -2.7048  -2.6387  -2.5243  -2.5086  -2.4881
    -2.4565  -2.4218  -2.3992  -2.3887  -2.2689  -2.2338  -2.2300  -2.1687
    -2.1669  -2.1361  -2.1238  -2.0831  -1.9336  -1.9015  -1.8639  -1.7966
    -1.4839  -1.4478  -1.4429  -1.3944  -1.3468  -1.3068  -1.3032  -1.2972
    -1.2938  -1.2371  -1.2269  -1.2171  -1.1536  -1.1340  -1.0829  -1.0520
    -0.9995  -0.9239  -0.9168  -0.8507  -0.8439  -0.8122  -0.7921  -0.7647
    -0.7512  -0.7294  -0.6909  -0.6836  -0.6827  -0.6576  -0.6340  -0.6183
    -0.5979  -0.5917  -0.5247  -0.5155  -0.4885  -0.4414  -0.4182  -0.3922
    -0.3894  -0.3633  -0.3546  -0.3363  -0.3273  -0.2474  -0.2361  -0.2098
    -0.1825  -0.1072  -0.0998  -0.0935  -0.0861  -0.0498  -0.0420   0.0017
     0.0093   0.0323   0.0376   0.0751   0.0881   0.0915   0.1321   0.1420
     0.1591   0.1635   0.1844   0.2004   0.2224   0.2321   0.2422   0.2439
     0.3610   0.3798   0.4389   0.4735   0.4767   0.5066   0.5288   0.5378
     0.5435   0.5545   0.6201   0.6755   0.6762   0.6826   0.8004   0.8242
     0.8488   0.9188   0.9346   0.9675   0.9959   1.0051   1.0135   1.0149
     1.0814   1.1052   1.1141   1.1455   1.1594   1.1656   1.1682   1.2098
     1.2098   1.2643   1.3025   1.3761   1.4581   1.4737   1.5095   1.5120
     1.5525   1.5604   1.6160   1.6350   1.6868   1.7400   1.7682   1.8049
     1.8353   1.8582   1.9262   2.0400   2.0431   2.0940   2.1300   2.2406
     2.2502   2.3184   2.3255   2.3462   2.4493   2.5034   4.9028   5.2808
     5.2892   5.5319   5.8407   5.8482   5.9712   6.0498   6.6481   6.7526
     6.7700   6.8113   6.8650   7.0051   7.1629   7.3325   7.4794   7.4937
     7.7082   7.7576   7.7613   7.8184   7.9062   7.9935   8.0760   8.0885
     8.1679   8.2648   8.3197   8.5319   8.6394   8.7083   8.7197   8.7591
     8.7940   8.9251

          k = 0.3750 0.2618 0.0000 ( 73114 PWs)   bands (ev):

   -38.4686 -38.4053 -36.1048 -36.0328 -23.2104 -23.1569 -23.1459 -23.1026
   -23.0918 -23.0229 -22.9030 -22.6569 -18.9018 -18.8474 -18.8180 -18.7561
   -18.5861 -18.5218 -17.4394 -17.3792 -17.3707 -17.3131 -17.2033 -17.1281
   -15.5474 -15.5068 -15.2625 -15.2461 -15.1333 -15.0514 -15.0452 -15.0136
   -14.9752 -14.9420 -14.9190 -14.8951 -14.8705 -14.8584 -14.6003 -14.5617
   -14.5017 -14.4776 -14.4623 -14.4528 -14.4322 -14.3808 -14.3712 -14.3699
   -14.3687 -14.3122 -14.2372 -14.1605 -13.0934 -12.9545  -8.5592  -8.4650
    -8.4529  -8.4093  -8.3982  -8.3569  -8.3459  -8.3412  -8.2730  -8.2621
    -8.2516  -8.1600  -8.1393  -8.1222  -8.1018  -7.9801  -7.9702  -7.9658
    -7.9489  -7.9383  -7.8152  -7.7989  -7.5331  -7.4690  -3.2066  -3.1680
    -3.0491  -2.9545  -2.8439  -2.8154  -2.7369  -2.6407  -2.5404  -2.5276
    -2.5267  -2.5081  -2.4790  -2.4434  -2.4258  -2.3983  -2.3879  -2.3683
    -2.2859  -2.2377  -2.1820  -2.1617  -2.0435  -1.9694  -1.8475  -1.8351
    -1.7970  -1.7543  -1.7460  -1.7370  -1.7316  -1.7268  -1.5350  -1.4967
    -1.4604  -1.3962  -1.3423  -1.2802  -1.2790  -1.2627  -1.2049  -1.1949
    -1.1049  -1.0792  -1.0684  -1.0364  -1.0273  -1.0257  -0.9476  -0.9392
    -0.8679  -0.8635  -0.7467  -0.7034  -0.6676  -0.6205  -0.5988  -0.5529
    -0.4964  -0.4842  -0.4608  -0.4463  -0.4042  -0.3980  -0.3656  -0.3621
    -0.3254  -0.3223  -0.2927  -0.2899  -0.2494  -0.2387  -0.2032  -0.1989
    -0.1673  -0.1636  -0.1269  -0.1240  -0.0972  -0.0294  -0.0177   0.0302
     0.0339   0.0370   0.0478   0.0506   0.0661   0.0843   0.0989   0.1124
     0.1446   0.1775   0.1892   0.2147   0.2281   0.3249   0.3483   0.3620
     0.3825   0.4369   0.5344   0.5629   0.5752   0.6101   0.6441   0.6834
     0.6884   0.7234   0.7647   0.7845   0.7939   0.8431   0.8722   0.8775
     0.9006   0.9155   0.9163   0.9174   0.9497   0.9727   0.9914   1.0129
     1.0852   1.1354   1.1394   1.1645   1.1782   1.1929   1.2314   1.2361
     1.2879   1.2906   1.2996   1.3250   1.3565   1.4072   1.4152   1.4165
     1.4496   1.4857   1.4928   1.5386   1.8860   1.9704   2.1299   2.1872
     2.2676   2.2820   2.2947   2.3610   2.4146   2.4279   2.4398   2.4760
     2.5533   2.5670   2.5696   2.5955   2.6977   2.7273   5.1054   5.5814
     5.5895   5.7513   6.0446   6.0525   6.1641   6.2385   6.8613   6.8872
     6.9417   7.0786   7.0874   7.2573   7.3371   7.5032   7.5457   7.6448
     7.7083   7.7270   7.8796   7.9310   8.0391   8.1098   8.2108   8.2364
     8.3146   8.3473   8.3827   8.5223   8.6164   8.6465   8.7087   8.8084
     8.8438   8.8787

          k = 0.3750 0.5236 0.0000 ( 73039 PWs)   bands (ev):

   -38.4621 -38.3987 -36.1007 -36.0287 -23.1649 -23.1008 -23.0898 -23.0509
   -23.0402 -22.9675 -22.8529 -22.6057 -18.8266 -18.8021 -18.8011 -18.7632
   -18.7474 -18.7390 -17.3672 -17.3622 -17.3439 -17.2974 -17.2943 -17.2713
   -15.3179 -15.2821 -15.1473 -15.1348 -15.0331 -15.0007 -14.9933 -14.8985
   -14.8710 -14.8632 -14.8465 -14.8304 -14.7902 -14.7723 -14.6502 -14.6086
   -14.5502 -14.5182 -14.5131 -14.4742 -14.4452 -14.3523 -14.3457 -14.3314
   -14.3282 -14.3163 -14.2594 -14.1923 -13.0496 -13.0169  -8.7009  -8.6904
    -8.5633  -8.5529  -8.5371  -8.5206  -8.4354  -8.4128  -8.4008  -8.3827
    -8.3452  -8.3337  -8.3037  -8.2959  -8.1580  -8.1474  -8.1286  -8.0162
    -8.0072  -7.9976  -7.9942  -7.8417  -7.6836  -7.5809  -3.6292  -3.5773
    -3.3259  -3.2897  -3.2869  -3.1981  -3.0902  -3.0208  -2.7499  -2.7398
    -2.6876  -2.6385  -2.6345  -2.6230  -2.5911  -2.5649  -2.5567  -2.5113
    -2.4791  -2.4711  -2.4665  -2.4100  -2.4033  -2.3803  -2.3570  -2.3474
    -2.1787  -2.1304  -2.0535  -2.0188  -1.9188  -1.8816  -1.8791  -1.8307
    -1.7099  -1.6623  -1.5944  -1.5596  -1.5494  -1.4685  -1.4147  -1.3551
    -1.3364  -1.3065  -1.2489  -1.2392  -1.2057  -1.1892  -1.0268  -1.0052
    -0.9981  -0.9465  -0.9114  -0.8695  -0.8263  -0.7994  -0.7965  -0.7802
    -0.7583  -0.7265  -0.7196  -0.6619  -0.6533  -0.6307  -0.5923  -0.5392
    -0.5253  -0.5049  -0.4636  -0.4506  -0.4033  -0.3751  -0.2318  -0.2255
    -0.1005  -0.0771  -0.0342  -0.0265   0.0003   0.0583   0.0852   0.1071
     0.1450   0.1979   0.2334   0.2432   0.2551   0.3130   0.3613   0.4448
     0.4471   0.5334   0.5470   0.5843   0.6003   0.6055   0.6442   0.6474
     0.6826   0.6885   0.7262   0.7434   0.7481   0.7537   0.7674   0.7857
     0.8062   0.8383   0.8449   0.9427   0.9644   0.9800   1.0334   1.0485
     1.0823   1.0949   1.1385   1.1599   1.1734   1.1856   1.2059   1.2096
     1.2192   1.2458   1.2557   1.2848   1.2961   1.3168   1.3241   1.3365
     1.3755   1.3888   1.4237   1.4352   1.4632   1.4738   1.5303   1.5681
     1.5758   1.5814   1.6657   1.6732   2.0472   2.1820   2.2685   2.2784
     2.5133   2.5573   2.6209   2.6727   2.7051   2.7113   2.7653   2.7784
     2.8503   2.8568   3.1433   3.1696   3.2682   3.3040   5.5243   6.2741
     6.2834   6.3132   6.3334   6.3444   6.7126   6.7724   6.8192   6.8775
     7.3757   7.4399   7.6949   7.7550   7.8247   7.8417   7.8618   7.9194
     8.0123   8.0206   8.0920   8.1913   8.2576   8.3825   8.4342   8.5097
     8.5450   8.6415   8.7247   8.7362   8.7627   8.7687   8.8524   8.8684
     8.9114   9.0020

          k = 0.3750 0.7854 0.0000 ( 73096 PWs)   bands (ev):

   -38.4556 -38.3922 -36.0966 -36.0246 -23.1185 -23.0433 -23.0322 -22.9978
   -22.9870 -22.9107 -22.8015 -22.5533 -19.0347 -18.9718 -18.7841 -18.7220
   -18.6975 -18.6422 -17.4786 -17.4033 -17.3476 -17.2810 -17.2791 -17.2107
   -15.1508 -15.1348 -15.0476 -15.0335 -15.0298 -14.9685 -14.8900 -14.8776
   -14.8588 -14.8173 -14.7997 -14.7154 -14.6894 -14.6758 -14.6569 -14.6515
   -14.6034 -14.5888 -14.4494 -14.4244 -14.4142 -14.3612 -14.2955 -14.2894
   -14.2801 -14.2794 -14.2661 -14.2342 -13.0818 -13.0073  -8.8975  -8.8870
    -8.7229  -8.6393  -8.6251  -8.6146  -8.5159  -8.4727  -8.4620  -8.4589
    -8.3884  -8.3852  -8.3762  -8.3587  -8.3471  -8.3275  -8.2960  -8.1585
    -8.1480  -8.0957  -8.0142  -7.9716  -7.9147  -7.7497  -4.1133  -4.0658
    -3.7495  -3.7217  -3.7180  -3.6434  -3.5005  -3.4243  -3.1690  -3.1593
    -3.1436  -3.1382  -3.1339  -3.0742  -2.8126  -2.8021  -2.7211  -2.6451
    -2.5883  -2.5806  -2.4619  -2.4503  -2.4479  -2.4252  -2.4189  -2.3200
    -2.3163  -2.2795  -2.1668  -2.1354  -2.1166  -2.0780  -1.9874  -1.9555
    -1.9438  -1.9190  -1.8797  -1.7958  -1.6647  -1.6189  -1.5867  -1.4600
    -1.4552  -1.4246  -1.4159  -1.3995  -1.2679  -1.2356  -1.2057  -1.1516
    -1.1206  -1.1072  -1.0714  -1.0511  -1.0164  -1.0056  -0.9997  -0.9678
    -0.9627  -0.9217  -0.8869  -0.8485  -0.8086  -0.8024  -0.7505  -0.6433
    -0.6344  -0.5617  -0.5531  -0.5414  -0.4207  -0.3892  -0.2040  -0.1495
    -0.0470   0.0194   0.0441   0.0570   0.0817   0.1458   0.1641   0.1785
     0.1796   0.2818   0.2995   0.3483   0.4628   0.5352   0.5598   0.5828
     0.6436   0.6607   0.6868   0.6909   0.7464   0.7492   0.7595   0.7968
     0.8240   0.8652   0.9252   0.9424   0.9757   0.9832   1.0036   1.0107
     1.0441   1.0636   1.0850   1.0931   1.1197   1.1342   1.1504   1.1634
     1.2413   1.2679   1.2940   1.3223   1.3508   1.3595   1.3747   1.3917
     1.4140   1.4436   1.4548   1.4707   1.4913   1.4951   1.5177   1.5759
     1.5806   1.6119   1.6227   1.6912   1.6947   1.8134   1.8393   1.8672
     1.8930   1.9895   1.9980   2.0753   2.0843   2.1599   2.2072   2.2439
     2.5195   2.5465   2.5618   2.6234   2.6284   2.6759   2.7110   2.7249
     2.9456   2.9618   3.5249   3.5570   3.6496   3.6747   5.7914   6.1987
     6.2084   6.5521   6.6243   6.7603   6.7747   6.9459   7.2199   7.2979
     7.4366   7.6706   7.7873   7.8081   8.0546   8.2854   8.3000   8.3106
     8.3409   8.4163   8.5096   8.5431   8.5648   8.6747   8.8592   8.8801
     8.9549   8.9892   9.0300   9.0851   9.1099   9.1461   9.1993   9.2825
     9.3108   9.3732

          k = 0.3750-1.0472 0.0000 ( 73070 PWs)   bands (ev):

   -38.4529 -38.3895 -36.0949 -36.0229 -23.0990 -23.0190 -23.0079 -22.9753
   -22.9646 -22.8866 -22.7798 -22.5311 -19.1152 -19.0525 -18.7771 -18.7149
   -18.6506 -18.5951 -17.5292 -17.4540 -17.3416 -17.2748 -17.2427 -17.1742
   -15.1794 -15.1521 -15.0308 -15.0075 -14.9317 -14.9149 -14.8848 -14.8826
   -14.8326 -14.8277 -14.8005 -14.6564 -14.6483 -14.6462 -14.6417 -14.6076
   -14.6035 -14.5896 -14.4157 -14.4109 -14.3780 -14.3539 -14.3184 -14.2752
   -14.2674 -14.2603 -14.2548 -14.2477 -13.1089 -12.9903  -8.9333  -8.9227
    -8.7747  -8.6846  -8.6304  -8.6200  -8.6052  -8.5947  -8.5088  -8.4624
    -8.4440  -8.4213  -8.3906  -8.3779  -8.3657  -8.3537  -8.3291  -8.2606
    -8.2501  -8.0837  -8.0498  -8.0180  -7.9815  -7.8762  -4.3093  -4.2637
    -3.9119  -3.9110  -3.8823  -3.8342  -3.6662  -3.5853  -3.4030  -3.3931
    -3.3755  -3.3657  -3.3508  -3.2896  -2.8177  -2.8068  -2.7101  -2.6305
    -2.6096  -2.5881  -2.5792  -2.5719  -2.4498  -2.4417  -2.3745  -2.2660
    -2.2605  -2.2188  -2.2000  -2.1637  -2.1524  -2.1269  -2.1190  -2.0951
    -2.0592  -2.0561  -1.9695  -1.9060  -1.7083  -1.6619  -1.6302  -1.5099
    -1.5023  -1.4759  -1.4668  -1.4586  -1.2953  -1.2606  -1.2418  -1.2246
    -1.2162  -1.1847  -1.1011  -1.0996  -1.0879  -1.0850  -1.0510  -1.0463
    -1.0369  -0.9582  -0.9565  -0.9029  -0.9002  -0.8126  -0.7738  -0.6349
    -0.6288  -0.5908  -0.5750  -0.5371  -0.4212  -0.3885  -0.1907  -0.1157
    -0.0146   0.0658   0.0699   0.0873   0.0913   0.1043   0.1084   0.1765
     0.1868   0.2798   0.3064   0.3891   0.5689   0.5924   0.6345   0.7066
[...]
    -2.9824  -2.9811  -2.9022  -2.8473  -2.8243  -2.7255  -2.5577  -2.5399
    -2.5154  -2.4972  -2.4886  -2.4573  -2.4486  -2.4235  -2.4161  -2.4068
    -2.2959  -2.2521  -2.1796  -2.1657  -2.0438  -1.9654  -1.8420  -1.8380
    -1.7850  -1.7426  -1.7410  -1.7403  -1.7307  -1.7243  -1.4146  -1.4140
    -1.3862  -1.3456  -1.3138  -1.3001  -1.2821  -1.2647  -1.2562  -1.2198
    -1.1970  -1.1786  -1.1758  -1.1106  -1.0666  -1.0333  -0.9346  -0.9207
    -0.8354  -0.8099  -0.8091  -0.7644  -0.6654  -0.6115  -0.5685  -0.5407
    -0.5198  -0.4948  -0.4753  -0.4620  -0.4119  -0.4104  -0.3545  -0.3498
    -0.3361  -0.3204  -0.2822  -0.2706  -0.2496  -0.2313  -0.2098  -0.2038
    -0.1673  -0.1562  -0.1178  -0.1123  -0.1061  -0.0208  -0.0136   0.0255
     0.0396   0.0416   0.0672   0.0814   0.0876   0.0925   0.1194   0.1216
     0.1397   0.1412   0.1590   0.2239   0.2377   0.3296   0.3402   0.3752
     0.4317   0.4524   0.5332   0.5637   0.5733   0.5907   0.6008   0.6204
     0.6998   0.7133   0.7302   0.7434   0.7837   0.8587   0.9103   0.9223
     0.9265   0.9329   0.9360   0.9373   0.9676   1.0077   1.0300   1.0562
     1.0668   1.0745   1.0825   1.1379   1.1390   1.1807   1.2243   1.2298
     1.2353   1.2440   1.2893   1.2942   1.3976   1.4250   1.4319   1.4389
     1.4411   1.4480   1.4895   1.4940   1.9677   1.9793   2.2336   2.2686
     2.2697   2.2886   2.3214   2.4101   2.4124   2.4326   2.4725   2.4966
     2.5358   2.5788   2.5803   2.5871   2.6341   2.6616   5.1809   5.6323
     5.7861   5.7935   5.8034   5.8112   6.2886   6.3589   6.7267   6.8039
     7.0480   7.1540   7.3656   7.3658   7.4130   7.4270   7.4938   7.5948
     7.6549   7.6777   7.7790   7.8904   8.0516   8.1009   8.2147   8.2639
     8.3726   8.4081   8.4237   8.5595   8.6007   8.6075   8.6857   8.7780
     8.8005   8.8431

          k =-0.5000 0.5236 0.0000 ( 73038 PWs)   bands (ev):

   -38.4621 -38.3987 -36.1007 -36.0287 -23.1645 -23.0908 -23.0796 -23.0612
   -23.0505 -22.9642 -22.8564 -22.6063 -18.8265 -18.8015 -18.7978 -18.7631
   -18.7468 -18.7357 -17.3726 -17.3684 -17.3444 -17.3064 -17.2975 -17.2716
   -15.2580 -15.2255 -15.1602 -15.1450 -15.0309 -15.0200 -14.9899 -14.9173
   -14.8720 -14.8717 -14.8595 -14.8342 -14.7863 -14.7805 -14.6520 -14.6131
   -14.5642 -14.5230 -14.5148 -14.4698 -14.4388 -14.3455 -14.3431 -14.3313
   -14.3312 -14.3182 -14.2597 -14.1928 -13.0352 -13.0301  -8.6669  -8.6564
    -8.6378  -8.6273  -8.5366  -8.4869  -8.4532  -8.4269  -8.4122  -8.4003
    -8.3446  -8.3373  -8.3331  -8.2963  -8.1285  -8.0679  -8.0575  -8.0571
    -8.0465  -7.9954  -7.9525  -7.8685  -7.6300  -7.6112  -3.5054  -3.4563
    -3.4172  -3.3763  -3.1743  -3.1521  -3.0844  -3.0811  -2.7111  -2.7019
    -2.6724  -2.6628  -2.6242  -2.6232  -2.5628  -2.5538  -2.5507  -2.5376
    -2.5258  -2.5234  -2.5157  -2.5000  -2.4054  -2.3979  -2.3838  -2.3762
    -2.1671  -2.1377  -1.8929  -1.8792  -1.8606  -1.8415  -1.8343  -1.8027
    -1.7541  -1.7480  -1.7214  -1.6941  -1.6588  -1.5824  -1.4147  -1.3986
    -1.3393  -1.3125  -1.2715  -1.2228  -1.1996  -1.1809  -1.0411  -1.0237
    -0.9558  -0.9467  -0.9205  -0.8865  -0.7971  -0.7966  -0.7819  -0.7699
    -0.7513  -0.7178  -0.6873  -0.6843  -0.6719  -0.6487  -0.5993  -0.5787
    -0.5196  -0.5163  -0.5142  -0.4626  -0.4002  -0.3844  -0.2311  -0.2294
    -0.0552  -0.0495  -0.0350   0.0034   0.0524   0.0558   0.0998   0.1544
     0.1579   0.1874   0.2231   0.2247   0.2966   0.3688   0.3808   0.4402
     0.4585   0.5206   0.5625   0.6092   0.6155   0.6294   0.6377   0.6480
     0.6562   0.6641   0.7112   0.7304   0.7306   0.7332   0.7410   0.7415
     0.7996   0.8163   0.8289   0.9487   0.9847   0.9980   1.0278   1.0873
     1.1040   1.1042   1.1076   1.1124   1.1591   1.1625   1.1690   1.1935
     1.2227   1.2314   1.2478   1.2618   1.3133   1.3280   1.3532   1.3574
     1.3750   1.3949   1.4102   1.4185   1.4479   1.4743   1.5182   1.5657
     1.6184   1.6210   1.6221   1.6305   2.1508   2.1648   2.2848   2.2858
     2.6695   2.6708   2.7280   2.7408   2.7628   2.7706   2.8606   2.8883
     2.9080   2.9412   3.0019   3.0387   3.0740   3.1123   5.5516   6.2862
     6.3035   6.3119   6.3272   6.3370   6.7652   6.8179   6.8231   6.8735
     7.4233   7.4663   7.6380   7.7374   7.7831   7.8579   7.9555   7.9649
     7.9787   7.9881   8.1055   8.3008   8.3954   8.4191   8.4408   8.5465
     8.5867   8.6571   8.6898   8.7355   8.7401   8.7550   8.7556   8.8557
     8.8984   8.9247

          k =-0.5000 0.7854 0.0000 ( 73054 PWs)   bands (ev):

   -38.4556 -38.3922 -36.0966 -36.0246 -23.1182 -23.0355 -23.0243 -23.0057
   -22.9951 -22.9080 -22.8043 -22.5537 -19.0347 -18.9718 -18.7809 -18.7188
   -18.6969 -18.6417 -17.4786 -17.4033 -17.3567 -17.2902 -17.2812 -17.2129
   -15.1110 -15.0929 -15.0780 -15.0661 -14.9898 -14.9217 -14.8970 -14.8672
   -14.8454 -14.8064 -14.8030 -14.7462 -14.7130 -14.6960 -14.6698 -14.6558
   -14.6144 -14.6112 -14.4438 -14.4276 -14.4043 -14.3673 -14.2920 -14.2862
   -14.2833 -14.2763 -14.2696 -14.2365 -13.0483 -13.0417  -8.7935  -8.7830
    -8.7550  -8.7444  -8.6377  -8.6027  -8.5654  -8.5156  -8.3999  -8.3918
    -8.3797  -8.3769  -8.3655  -8.3221  -8.2973  -8.2965  -8.2865  -8.2861
    -8.2088  -8.0922  -8.0560  -8.0157  -7.8587  -7.8338  -4.0137  -3.9710
    -3.8255  -3.7869  -3.6305  -3.5639  -3.5591  -3.4720  -3.1568  -3.1557
    -3.1472  -3.1460  -3.1333  -3.0784  -2.7321  -2.7213  -2.6551  -2.6426
    -2.6019  -2.5829  -2.5090  -2.4897  -2.4290  -2.4178  -2.3990  -2.3862
    -2.3080  -2.2701  -2.1782  -2.1506  -2.1347  -2.1304  -2.0460  -2.0322
    -1.9895  -1.9851  -1.8620  -1.8157  -1.7310  -1.6800  -1.5097  -1.4788
    -1.4679  -1.4545  -1.4165  -1.4038  -1.2216  -1.2063  -1.1891  -1.1704
    -1.1284  -1.1039  -1.1014  -1.0747  -0.9927  -0.9905  -0.9785  -0.9754
    -0.9339  -0.8812  -0.8658  -0.8345  -0.8110  -0.7855  -0.7070  -0.6954
    -0.6716  -0.6464  -0.6090  -0.5877  -0.4231  -0.3940  -0.1922  -0.1624
     0.0269   0.0388   0.1035   0.1108   0.1177   0.1276   0.1965   0.2142
     0.2372   0.2648   0.3124   0.3952   0.4255   0.6176   0.6179   0.6195
     0.6453   0.6490   0.6726   0.6984   0.7058   0.7325   0.7400   0.7683
     0.7878   0.8272   0.9167   0.9537   0.9611   0.9764   0.9989   1.0004
     1.0038   1.0389   1.0656   1.0917   1.1054   1.1593   1.2114   1.2206
     1.2390   1.2508   1.2612   1.2713   1.3208   1.3721   1.3939   1.4165
     1.4215   1.4405   1.4545   1.4565   1.4763   1.4905   1.4919   1.5148
     1.5784   1.5809   1.6093   1.6128   1.6997   1.8069   1.8700   1.8878
     2.0277   2.0356   2.0380   2.0466   2.0549   2.0603   2.1960   2.2161
     2.5644   2.5647   2.6002   2.6308   2.6850   2.7037   3.1004   3.1345
     3.1361   3.1690   3.2736   3.3070   3.3158   3.3397   5.8406   6.4456
     6.4548   6.4677   6.4917   6.6677   6.7271   6.9662   7.1571   7.2400
     7.3805   7.6242   7.7761   7.7949   8.0682   8.2727   8.3139   8.3549
     8.3707   8.4552   8.4628   8.4959   8.4980   8.6713   8.8382   8.8909
     9.0001   9.1054   9.1636   9.1757   9.2125   9.2443   9.2578   9.2616
     9.3585   9.3744

          k =-0.5000-1.0472 0.0000 ( 73020 PWs)   bands (ev):

   -38.4528 -38.3895 -36.0949 -36.0229 -23.0987 -23.0121 -23.0010 -22.9823
   -22.9717 -22.8843 -22.7823 -22.5315 -19.1151 -19.0524 -18.7739 -18.7117
   -18.6501 -18.5946 -17.5292 -17.4540 -17.3504 -17.2838 -17.2447 -17.1763
   -15.1450 -15.1131 -15.0632 -15.0481 -14.9238 -14.8860 -14.8577 -14.8418
   -14.8262 -14.8003 -14.7772 -14.6973 -14.6741 -14.6561 -14.6490 -14.6392
   -14.6341 -14.6004 -14.3944 -14.3911 -14.3869 -14.3831 -14.3187 -14.2752
   -14.2643 -14.2636 -14.2518 -14.2510 -13.0560 -13.0461  -8.7969  -8.7864
    -8.7462  -8.7357  -8.6588  -8.6424  -8.5816  -8.5084  -8.4720  -8.4613
    -8.4485  -8.4378  -8.3707  -8.3684  -8.3671  -8.3582  -8.3564  -8.3433
    -8.3310  -8.1600  -8.0830  -8.0246  -8.0141  -7.9436  -4.2134  -4.1728
    -3.9848  -3.9480  -3.8252  -3.7582  -3.7231  -3.6335  -3.3897  -3.3888
    -3.3799  -3.3789  -3.3466  -3.2935  -2.7368  -2.7269  -2.6335  -2.6189
    -2.5840  -2.5250  -2.5067  -2.4713  -2.4683  -2.4573  -2.3839  -2.3702
    -2.3664  -2.3327  -2.3070  -2.2852  -2.2366  -2.1547  -2.1539  -2.1418
    -2.1237  -2.0947  -1.8790  -1.8346  -1.7589  -1.7100  -1.5459  -1.5203
    -1.5100  -1.5018  -1.4745  -1.4676  -1.3070  -1.2685  -1.2210  -1.1963
    -1.1903  -1.1629  -1.1162  -1.0899  -1.0727  -1.0723  -1.0613  -1.0530
    -0.9747  -0.9372  -0.9188  -0.8955  -0.8942  -0.7919  -0.7118  -0.7094
    -0.6915  -0.6685  -0.6266  -0.6044  -0.4259  -0.3947  -0.1706  -0.1337
     0.0574   0.0632   0.1235   0.1306   0.1680   0.1750   0.1900   0.2094
     0.2099   0.2584   0.3303   0.4435   0.4439   0.6572   0.6655   0.7097
     0.7186   0.7384   0.7581   0.7939   0.7976   0.8244   0.8272   0.8777
     0.8784   0.8821   0.9440   0.9747   0.9868   1.0073   1.0222   1.0465
     1.0569   1.0979   1.1026   1.1200   1.1305   1.1429   1.1677   1.1730
     1.2105   1.2533   1.2674   1.3683   1.4442   1.4597   1.5111   1.5266
     1.5293   1.5604   1.6279   1.6584   1.6738   1.6874   1.7552   1.7561
     1.7834   1.8205   1.8326   1.8589   1.8597   1.8719   1.8734   1.9828
     2.0892   2.0956   2.1357   2.1466   2.2074   2.2163   2.2166   2.2259
     2.3499   2.3606   2.4130   2.4353   2.5348   2.6018   3.1217   3.1556
     3.1854   3.2211   3.2822   3.3163   3.3945   3.4168   5.9191   6.3891
     6.3981   6.4079   6.4385   6.5947   6.6525   7.0583   7.1965   7.2629
     7.5389   7.7532   7.8810   7.8854   8.0824   8.3347   8.3411   8.4725
     8.7507   8.7951   8.8093   8.8342   8.9203   9.0170   9.0529   9.0710
     9.1152   9.1419   9.1621   9.1970   9.4016   9.4302   9.4410   9.4447
     9.4520   9.4627

     the Fermi energy is     2.3877 ev

!    total energy              =   -3711.52186304 Ry
     Harris-Foulkes estimate   =   -3711.52186305 Ry
     estimated scf accuracy    <          9.6E-09 Ry

     The total energy is the sum of the following terms:

     one-electron contribution =  -53550.39874622 Ry
     hartree contribution      =   27076.11361485 Ry
     xc contribution           =   -1263.80582180 Ry
     ewald contribution        =   24026.58933333 Ry
     smearing contrib. (-TS)   =      -0.02024320 Ry

     convergence has been achieved in  34 iterations

     negative rho (up, down):  9.195E-02 0.000E+00

     Forces acting on atoms (cartesian axes, Ry/au):

     atom    1 type  4   force =    -0.00000595    0.00000000   -0.00050164
     atom    2 type  4   force =     0.00000595    0.00000000   -0.00050164
     atom    3 type  3   force =    -0.00000595    0.00000000    0.00018582
     atom    4 type  3   force =     0.00000595    0.00000000    0.00018582
     atom    5 type  4   force =    -0.00000001    0.00000000    0.00013638
     atom    6 type  4   force =     0.00000001    0.00000000    0.00013638
     atom    7 type  1   force =     0.00000000    0.00000000   -0.00037123
     atom    8 type  1   force =     0.00000000    0.00000000   -0.00033798
     atom    9 type  3   force =     0.00012063    0.00000000   -0.00035153
     atom   10 type  3   force =    -0.00012063    0.00000000   -0.00035153
     atom   11 type  4   force =     0.00000000    0.00000000    0.00108999
     atom   12 type  4   force =     0.00005799    0.00000000    0.00137439
     atom   13 type  4   force =    -0.00005799    0.00000000    0.00137439
     atom   14 type  4   force =     0.00000000    0.00000000    0.00143181
     atom   15 type  2   force =     0.00000000    0.00000000   -0.00325415
     atom   16 type  5   force =     0.00000000    0.00000000   -0.00481124
     atom   17 type  4   force =     0.00094429    0.00000000    0.00628655
     atom   18 type  4   force =    -0.00094429    0.00000000    0.00628655
     atom   19 type  4   force =     0.00000000    0.00000000    0.00398914
     atom   20 type  4   force =     0.00000000    0.00000000    0.00519754
     atom   21 type  3   force =     0.00053593    0.00000000   -0.00186885
     atom   22 type  3   force =    -0.00053593    0.00000000   -0.00186885
     atom   23 type  1   force =     0.00000000    0.00000000    0.00738146
     atom   24 type  1   force =     0.00000000    0.00000000    0.01384880
     atom   25 type  4   force =     0.00249888    0.00000000   -0.01850609
     atom   26 type  4   force =    -0.00249888    0.00000000   -0.01850609
     atom   27 type  4   force =    -0.01330209    0.00000000    0.02831656
     atom   28 type  4   force =     0.01330209    0.00000000    0.02831656
     atom   29 type  3   force =     0.01277886    0.00000000   -0.02598662
     atom   30 type  3   force =    -0.01277886    0.00000000   -0.02598662
     atom   31 type  4   force =     0.01522013    0.00000000    0.02636373
     atom   32 type  4   force =    -0.01522013    0.00000000    0.02636373
     atom   33 type  1   force =     0.00000000    0.00000000   -0.00323450
     atom   34 type  1   force =     0.00000000    0.00000000   -0.01485101
     atom   35 type  3   force =    -0.00346111    0.00000000   -0.02088414
     atom   36 type  3   force =     0.00346111    0.00000000   -0.02088414
     atom   37 type  4   force =     0.00000000    0.00000000    0.00302458
     atom   38 type  4   force =     0.00000000    0.00000000    0.00065316
     atom   39 type  4   force =     0.00284365    0.00000000    0.00034381
     atom   40 type  4   force =    -0.00284365    0.00000000    0.00034381
     atom   41 type  5   force =     0.00000000    0.00000000    0.00210361
     atom   42 type  2   force =     0.00000000    0.00000000    0.00040944
     atom   43 type  4   force =     0.00000000    0.00000000    0.00023863
     atom   44 type  4   force =     0.00002413    0.00000000   -0.00139465
     atom   45 type  4   force =    -0.00002413    0.00000000   -0.00139465
     atom   46 type  4   force =     0.00000000    0.00000000   -0.00007958
     atom   47 type  3   force =    -0.00005685    0.00000000    0.00041043
     atom   48 type  3   force =     0.00005685    0.00000000    0.00041043
     atom   49 type  1   force =     0.00000000    0.00000000    0.00017943
     atom   50 type  1   force =     0.00000000    0.00000000    0.00023599
     atom   51 type  4   force =    -0.00004981    0.00000000   -0.00080912
     atom   52 type  4   force =     0.00004981    0.00000000   -0.00080912
     atom   53 type  3   force =    -0.00003745    0.00000000    0.00084121
     atom   54 type  3   force =     0.00003745    0.00000000    0.00084121
     atom   55 type  4   force =     0.00001744    0.00000000   -0.00037818
     atom   56 type  4   force =    -0.00001744    0.00000000   -0.00037818

     Total force =     0.088149     Total SCF correction =     0.000481


     Computing stress (Cartesian axis) and pressure


     negative rho (up, down):  9.195E-02 0.000E+00
          total   stress  (Ry/bohr**3)                   (kbar)     P=       -5.86
  -0.00000184   0.00000000   0.00000000           -0.27        0.00        0.00
   0.00000000  -0.00008926   0.00000000            0.00      -13.13        0.00
   0.00000000   0.00000000  -0.00002834            0.00        0.00       -4.17

 
     init_run     :     25.38s CPU     26.44s WALL (       1 calls)
     electrons    :   1752.32s CPU   1824.65s WALL (       1 calls)
     forces       :     11.20s CPU     11.86s WALL (       1 calls)
     stress       :    107.25s CPU    109.05s WALL (       1 calls)

     Called by init_run:
     wfcinit      :     20.79s CPU     21.19s WALL (       1 calls)
     potinit      :      1.03s CPU      1.07s WALL (       1 calls)
     hinit0       :      1.65s CPU      1.69s WALL (       1 calls)

     Called by electrons:
     c_bands      :   1455.17s CPU   1488.68s WALL (      34 calls)
     sum_band     :    223.75s CPU    245.69s WALL (      34 calls)
     v_of_rho     :      4.48s CPU      4.55s WALL (      35 calls)
     newd         :     35.47s CPU     52.50s WALL (      35 calls)
     mix_rho      :     34.00s CPU     34.31s WALL (      34 calls)

     Called by c_bands:
     init_us_2    :      9.03s CPU      9.11s WALL (    1775 calls)
     cegterg      :   1381.07s CPU   1413.48s WALL (     850 calls)

     Called by sum_band:
     sum_band:bec :      1.01s CPU      1.02s WALL (     850 calls)
     addusdens    :     32.48s CPU     52.14s WALL (      34 calls)

     Called by *egterg:
     h_psi        :    677.59s CPU    690.17s WALL (    4222 calls)
     s_psi        :    100.63s CPU    101.11s WALL (    4222 calls)
     g_psi        :      1.46s CPU      1.48s WALL (    3347 calls)
     cdiaghg      :    299.80s CPU    300.93s WALL (    4197 calls)

     Called by h_psi:
     h_psi:calbec :    110.80s CPU    111.26s WALL (    4222 calls)
     vloc_psi     :    463.18s CPU    469.63s WALL (    4222 calls)
     add_vuspsi   :    100.84s CPU    101.31s WALL (    4222 calls)

     General routines
     calbec       :    179.72s CPU    180.44s WALL (    5197 calls)
     fft          :      4.15s CPU      4.19s WALL (     478 calls)
     ffts         :     18.90s CPU     19.10s WALL (   19168 calls)
     fftw         :    530.19s CPU    537.44s WALL ( 1205722 calls)
     interpolate  :      0.35s CPU      0.36s WALL (      35 calls)
 
     Parallel routines
     fft_scatt_xy :     63.07s CPU     64.07s WALL ( 1225368 calls)
     fft_scatt_yz :    335.30s CPU    339.90s WALL ( 1225368 calls)
 
     PWSCF        :  31m37.09s CPU  32m53.03s WALL

 
   This run was terminated on:  10:33:48  28May2021            

=------------------------------------------------------------------------------=
   JOB DONE.
=------------------------------------------------------------------------------=
[1622212428.901429] [holy7c04310:5602 :0]          mpool.c:43   UCX  WARN  object 0x3ae7d00 was not returned to mpool ucp_requests
[1622212428.897152] [holy7c04309:31607:0]          mpool.c:43   UCX  WARN  object 0x3f6f940 was not returned to mpool ucp_requests
[1622212428.902971] [holy7c04401:11388:0]          mpool.c:43   UCX  WARN  object 0x3c04b40 was not returned to mpool ucp_requests
[1622212428.902505] [holy7c04309:31606:0]          mpool.c:43   UCX  WARN  object 0x3b5f4c0 was not returned to mpool ucp_requests
[1622212428.902395] [holy7c04309:31608:0]          mpool.c:43   UCX  WARN  object 0x2d34b40 was not returned to mpool ucp_requests
[1622212428.902421] [holy7c04309:31608:0]          mpool.c:43   UCX  WARN  object 0x2d34ec0 was not returned to mpool ucp_requests
[1622212428.911851] [holy7c04312:200297:0]          mpool.c:43   UCX  WARN  object 0x3b37840 was not returned to mpool ucp_requests
[1622212428.898893] [holy7c04310:5608 :0]          mpool.c:43   UCX  WARN  object 0x4293280 was not returned to mpool ucp_requests
[1622212428.898925] [holy7c04310:5608 :0]          mpool.c:43   UCX  WARN  object 0x4293440 was not returned to mpool ucp_requests
[1622212428.907606] [holy7c04310:5601 :0]          mpool.c:43   UCX  WARN  object 0x46a3c40 was not returned to mpool ucp_requests
[1622212428.902795] [holy7c04310:5606 :0]          mpool.c:43   UCX  WARN  object 0x3dfc240 was not returned to mpool ucp_requests
[1622212428.912864] [holy7c04310:5603 :0]          mpool.c:43   UCX  WARN  object 0x449c900 was not returned to mpool ucp_requests
[1622212428.912888] [holy7c04310:5603 :0]          mpool.c:43   UCX  WARN  object 0x449cac0 was not returned to mpool ucp_requests
[1622212428.911470] [holy7c04401:11389:0]          mpool.c:43   UCX  WARN  object 0x469aec0 was not returned to mpool ucp_requests
[1622212428.909373] [holy7c04312:200298:0]          mpool.c:43   UCX  WARN  object 0x300b100 was not returned to mpool ucp_requests
[1622212428.909549] [holy7c04312:200300:0]          mpool.c:43   UCX  WARN  object 0x3b35bc0 was not returned to mpool ucp_requests
[1622212428.909572] [holy7c04312:200300:0]          mpool.c:43   UCX  WARN  object 0x3b35f40 was not returned to mpool ucp_requests
