
     Program PWSCF v.6.5 starts on 25May2021 at 16:37:41 

     This program is part of the open-source Quantum ESPRESSO suite
     for quantum simulation of materials; please cite
         "P. Giannozzi et al., J. Phys.:Condens. Matter 21 395502 (2009);
         "P. Giannozzi et al., J. Phys.:Condens. Matter 29 465901 (2017);
          URL http://www.quantum-espresso.org", 
     in publications or presentations arising from this work. More details at
     http://www.quantum-espresso.org/quote

     Parallel version (MPI), running on    32 processors

     MPI processes distributed on    17 nodes
     R & G space division:  proc/nbgrp/npool/nimage =      32
     Reading input from YCBCO50_212_BaO_cleave_2.5_sep.pwi
Warning: card &IONS ignored
Warning: card     ION_DYNAMICS = 'BFGS' ignored
Warning: card / ignored
Warning: card &CELL ignored
Warning: card     CELL_DYNAMICS = 'BFGS' ignored
Warning: card     PRESS_CONV_THR = 5 ignored
Warning: card / ignored

     Current dimensions of program PWSCF are:
     Max number of different atomic species (ntypx) = 10
     Max number of k-points (npk) =  40000
     Max angular momentum in pseudopotentials (lmaxx) =  3

     Subspace diagonalization in iterative solution of the eigenvalue problem:
     one sub-group per band group will be used
     scalapack distributed-memory algorithm (size of sub-group:  5*  5 procs)

     Message from routine setup:
     using ibrav=0 with symmetry is DISCOURAGED, use correct ibrav instead
 
     Parallelization info
     --------------------
     sticks:   dense  smooth     PW     G-vecs:    dense   smooth      PW
     Min         188      62     17                93902    18064    2693
     Max         189      63     18                93932    18111    2736
     Sum        6019    2003    565              3005429   578779   87023
 


     bravais-lattice index     =            0
     lattice parameter (alat)  =      14.8133  a.u.
     unit-cell volume          =    9212.2223 (a.u.)^3
     number of atoms/cell      =           56
     number of atomic types    =            5
     number of electrons       =       456.00
     number of Kohn-Sham states=          274
     kinetic-energy cutoff     =      60.0000  Ry
     charge density cutoff     =     720.0000  Ry
     convergence threshold     =      1.0E-08
     mixing beta               =       0.5000
     number of iterations used =           10  local-TF  mixing
     Exchange-correlation= SLA PW PBE PBE
                           (   1   4   3   4   0   0   0)

     celldm(1)=  14.813271  celldm(2)=   0.000000  celldm(3)=   0.000000
     celldm(4)=   0.000000  celldm(5)=   0.000000  celldm(6)=   0.000000

     crystal axes: (cart. coord. in units of alat)
               a(1) = (   1.000000   0.000000   0.000000 )  
               a(2) = (   0.000000   0.477453   0.000000 )  
               a(3) = (   0.000000   0.000000   5.935826 )  

     reciprocal axes: (cart. coord. in units 2 pi/alat)
               b(1) = (  1.000000  0.000000  0.000000 )  
               b(2) = (  0.000000  2.094448  0.000000 )  
               b(3) = (  0.000000  0.000000  0.168469 )  


     PseudoPot. # 1 for Ba read from file:
     ./pseudo/Ba.pbe-nsp-van.UPF
     MD5 check sum: 2b9c31dd849566dd297d80989662b7a0
     Pseudo is Ultrasoft + core correction, Zval = 10.0
     Generated by new atomic code, or converted to UPF format
     Using radial grid of  907 points,  6 beta functions with: 
                l(1) =   0
                l(2) =   0
                l(3) =   1
                l(4) =   1
                l(5) =   2
                l(6) =   2
     Q(r) pseudized with  6 coefficients,  rinner =    1.200   1.200   1.200
                                                       1.200   1.200

     PseudoPot. # 2 for Ca read from file:
     ./pseudo/Ca.pbe-nsp-van.UPF
     MD5 check sum: 6471098428ff4fa451746d08035ff179
     Pseudo is Ultrasoft + core correction, Zval = 10.0
     Generated by new atomic code, or converted to UPF format
     Using radial grid of  845 points,  6 beta functions with: 
                l(1) =   0
                l(2) =   0
                l(3) =   1
                l(4) =   1
                l(5) =   2
                l(6) =   2
     Q(r) pseudized with  6 coefficients,  rinner =    1.200   1.200   1.200
                                                       1.200   1.200

     PseudoPot. # 3 for Cu read from file:
     ./pseudo/Cu.pbe-n-van_ak.UPF
     MD5 check sum: 34e3282627ffb533726feb647e090d62
     Pseudo is Ultrasoft + core correction, Zval = 11.0
     Generated by new atomic code, or converted to UPF format
     Using radial grid of  867 points,  6 beta functions with: 
                l(1) =   0
                l(2) =   0
                l(3) =   1
                l(4) =   1
                l(5) =   2
                l(6) =   2
     Q(r) pseudized with  8 coefficients,  rinner =    1.400   1.400   1.400
                                                       1.400   1.400

     PseudoPot. # 4 for O  read from file:
     ./pseudo/O.pbe-van_ak.UPF
     MD5 check sum: 783ce7fe4c79b6a4916957118fed0856
     Pseudo is Ultrasoft, Zval =  6.0
     Generated by new atomic code, or converted to UPF format
     Using radial grid of  737 points,  4 beta functions with: 
                l(1) =   0
                l(2) =   0
                l(3) =   1
                l(4) =   1
     Q(r) pseudized with  8 coefficients,  rinner =    0.800   0.800   0.800


     PseudoPot. # 5 for Y  read from file:
     ./pseudo/Y.pbe-nsp-van.UPF
     MD5 check sum: 4412fed3ab108fed87a1b7d6a69a4a38
     Pseudo is Ultrasoft + core correction, Zval = 11.0
     Generated by new atomic code, or converted to UPF format
     Using radial grid of  885 points,  6 beta functions with: 
                l(1) =   0
                l(2) =   0
                l(3) =   1
                l(4) =   1
                l(5) =   2
                l(6) =   2
     Q(r) pseudized with  6 coefficients,  rinner =    1.200   1.200   1.200
                                                       1.200   1.200

     atomic species   valence    mass     pseudopotential
        Ba            10.00   137.32700     Ba( 1.00)
        Ca            10.00    40.07800     Ca( 1.00)
        Cu            11.00    63.54600     Cu( 1.00)
        O              6.00    15.99900     O ( 1.00)
        Y             11.00    88.90584     Y ( 1.00)

      4 Sym. Ops. (no inversion) found ( 2 have fractional translation)



   Cartesian axes

     site n.     atom                  positions (alat units)
         1           O   tau(   1) = (  -0.0008343   0.2387265  -0.0222443  )
         2           O   tau(   2) = (   0.5008340   0.2387265  -0.0222443  )
         3           Cu  tau(   3) = (   0.5017257   0.0000000   0.0109608  )
         4           Cu  tau(   4) = (  -0.0017260   0.0000000   0.0109608  )
         5           O   tau(   5) = (  -0.0028933   0.0000000   0.2506504  )
         6           O   tau(   6) = (   0.5028929   0.0000000   0.2506504  )
         7           Ba  tau(   7) = (   0.7499995   0.2387265   0.2749435  )
         8           Ba  tau(   8) = (   0.2499998   0.2387265   0.2755214  )
         9           Cu  tau(   9) = (   0.4980963   0.0000000   0.5208446  )
        10           Cu  tau(  10) = (   0.0019033   0.0000000   0.5208446  )
        11           O   tau(  11) = (   0.2499998   0.0000000   0.5341884  )
        12           O   tau(  12) = (   0.5083351   0.2387265   0.5569851  )
        13           O   tau(  13) = (  -0.0083354   0.2387265   0.5569851  )
        14           O   tau(  14) = (   0.7499995   0.0000000   0.5573831  )
        15           Ca  tau(  15) = (   0.2499998   0.2387265   0.7436937  )
        16           Y   tau(  16) = (   0.7499995   0.2387265   0.7469544  )
        17           O   tau(  17) = (  -0.0063798   0.2387265   0.9248530  )
        18           O   tau(  18) = (   0.5063794   0.2387265   0.9248530  )
        19           O   tau(  19) = (   0.7499995   0.0000000   0.9338544  )
        20           O   tau(  20) = (   0.2499998   0.0000000   0.9461329  )
        21           Cu  tau(  21) = (   0.0015717   0.0000000   0.9686860  )
        22           Cu  tau(  22) = (   0.4984280   0.0000000   0.9686860  )
        23           Ba  tau(  23) = (   0.2499998   0.2387265   1.2085224  )
        24           Ba  tau(  24) = (   0.7499995   0.2387265   1.2233294  )
        25           O   tau(  25) = (   0.0063772   0.0000000   1.2547537  )
        26           O   tau(  26) = (   0.4936224   0.0000000   1.2547537  )
        27           O   tau(  27) = (   0.5384045   0.2387265   1.4952521  )
        28           O   tau(  28) = (  -0.0384049   0.2387265   1.4952521  )
        29           Cu  tau(  29) = (   0.5006120   0.0000000   1.4952546  )
        30           Cu  tau(  30) = (  -0.0006123   0.0000000   1.4952546  )
        31           O   tau(  31) = (   0.4936212   0.0000000   1.7357531  )
        32           O   tau(  32) = (   0.0063785   0.0000000   1.7357531  )
        33           Ba  tau(  33) = (   0.7499995   0.2387265   1.7671824  )
        34           Ba  tau(  34) = (   0.2499998   0.2387265   1.7819920  )
        35           Cu  tau(  35) = (   0.4984280   0.0000000   2.3407478  )
        36           Cu  tau(  36) = (   0.0015717   0.0000000   2.3407478  )
        37           O   tau(  37) = (   0.2499998   0.0000000   2.3633059  )
        38           O   tau(  38) = (   0.7499995   0.0000000   2.3755756  )
        39           O   tau(  39) = (   0.5063781   0.2387265   2.3845807  )
        40           O   tau(  40) = (  -0.0063785   0.2387265   2.3845807  )
        41           Y   tau(  41) = (   0.7499995   0.2387265   2.5624743  )
        42           Ca  tau(  42) = (   0.2499998   0.2387265   2.5657439  )
        43           O   tau(  43) = (   0.7499995   0.0000000   2.7520417  )
        44           O   tau(  44) = (  -0.0083354   0.2387265   2.7524436  )
        45           O   tau(  45) = (   0.5083351   0.2387265   2.7524436  )
        46           O   tau(  46) = (   0.2499998   0.0000000   2.7752416  )
        47           Cu  tau(  47) = (   0.0019059   0.0000000   2.7885752  )
        48           Cu  tau(  48) = (   0.4980938   0.0000000   2.7885752  )
        49           Ba  tau(  49) = (   0.2499998   0.2387265   3.0339149  )
        50           Ba  tau(  50) = (   0.7499995   0.2387265   3.0344571  )
        51           O   tau(  51) = (  -0.0028895   0.0000000   3.0587642  )
        52           O   tau(  52) = (   0.5028891   0.0000000   3.0587642  )
        53           Cu  tau(  53) = (   0.5017844   0.0000000   3.2984487  )
        54           Cu  tau(  54) = (  -0.0017847   0.0000000   3.2984487  )
        55           O   tau(  55) = (   0.5008990   0.2387265   3.3316552  )
        56           O   tau(  56) = (  -0.0008994   0.2387265   3.3316552  )

     number of k points=    25  Gaussian smearing, width (Ry)=  0.0100
                       cart. coord. in units 2pi/alat
        k(    1) = (   0.0000000   0.0000000   0.0000000), wk =   0.0312500
        k(    2) = (   0.0000000   0.2618060   0.0000000), wk =   0.0625000
        k(    3) = (   0.0000000   0.5236121   0.0000000), wk =   0.0625000
        k(    4) = (   0.0000000   0.7854181   0.0000000), wk =   0.0625000
        k(    5) = (   0.0000000  -1.0472241   0.0000000), wk =   0.0312500
        k(    6) = (   0.1250000   0.0000000   0.0000000), wk =   0.0625000
        k(    7) = (   0.1250000   0.2618060   0.0000000), wk =   0.1250000
        k(    8) = (   0.1250000   0.5236121   0.0000000), wk =   0.1250000
        k(    9) = (   0.1250000   0.7854181   0.0000000), wk =   0.1250000
        k(   10) = (   0.1250000  -1.0472241   0.0000000), wk =   0.0625000
        k(   11) = (   0.2500000   0.0000000   0.0000000), wk =   0.0625000
        k(   12) = (   0.2500000   0.2618060   0.0000000), wk =   0.1250000
        k(   13) = (   0.2500000   0.5236121   0.0000000), wk =   0.1250000
        k(   14) = (   0.2500000   0.7854181   0.0000000), wk =   0.1250000
        k(   15) = (   0.2500000  -1.0472241   0.0000000), wk =   0.0625000
        k(   16) = (   0.3750000   0.0000000   0.0000000), wk =   0.0625000
        k(   17) = (   0.3750000   0.2618060   0.0000000), wk =   0.1250000
        k(   18) = (   0.3750000   0.5236121   0.0000000), wk =   0.1250000
        k(   19) = (   0.3750000   0.7854181   0.0000000), wk =   0.1250000
        k(   20) = (   0.3750000  -1.0472241   0.0000000), wk =   0.0625000
        k(   21) = (  -0.5000000   0.0000000   0.0000000), wk =   0.0312500
        k(   22) = (  -0.5000000   0.2618060   0.0000000), wk =   0.0625000
        k(   23) = (  -0.5000000   0.5236121   0.0000000), wk =   0.0625000
        k(   24) = (  -0.5000000   0.7854181   0.0000000), wk =   0.0625000
        k(   25) = (  -0.5000000  -1.0472241   0.0000000), wk =   0.0312500

     Dense  grid:  3005429 G-vectors     FFT dimensions: ( 128,  64, 768)

     Smooth grid:   578779 G-vectors     FFT dimensions: (  80,  36, 450)

     Estimated max dynamical RAM per process >     869.90 MB

     Estimated total dynamical RAM >      27.18 GB

     Initial potential from superposition of free atoms

     starting charge  455.69457, renormalised to  456.00000

     negative rho (up, down):  9.322E-02 0.000E+00
     Starting wfcs are  396 randomized atomic wfcs

     total cpu time spent up to now is       30.5 secs

     Self-consistent Calculation

     iteration #  1     ecut=    60.00 Ry     beta= 0.50
     Davidson diagonalization with overlap
     ethr =  1.00E-02,  avg # of iterations =  2.0

     negative rho (up, down):  8.633E-02 0.000E+00

     total cpu time spent up to now is       82.1 secs

     total energy              =   -3708.27557938 Ry
     Harris-Foulkes estimate   =   -3716.58448016 Ry
     estimated scf accuracy    <      33.40907534 Ry

     iteration #  2     ecut=    60.00 Ry     beta= 0.50
     Davidson diagonalization with overlap
     ethr =  7.33E-03,  avg # of iterations =  2.0

     negative rho (up, down):  8.615E-02 0.000E+00

     total cpu time spent up to now is      135.0 secs

     total energy              =   -3711.05880363 Ry
     Harris-Foulkes estimate   =   -3712.45864115 Ry
     estimated scf accuracy    <       8.40816489 Ry

     iteration #  3     ecut=    60.00 Ry     beta= 0.50
     Davidson diagonalization with overlap
     ethr =  1.84E-03,  avg # of iterations =  1.7

     negative rho (up, down):  8.660E-02 0.000E+00

     total cpu time spent up to now is      184.2 secs

     total energy              =   -3711.68354195 Ry
     Harris-Foulkes estimate   =   -3711.99952740 Ry
     estimated scf accuracy    <       8.18263108 Ry

     iteration #  4     ecut=    60.00 Ry     beta= 0.50
     Davidson diagonalization with overlap
     ethr =  1.79E-03,  avg # of iterations =  1.0

     negative rho (up, down):  8.720E-02 0.000E+00

     total cpu time spent up to now is      231.7 secs

     total energy              =   -3711.73933824 Ry
     Harris-Foulkes estimate   =   -3711.83124065 Ry
     estimated scf accuracy    <       3.89601885 Ry

     iteration #  5     ecut=    60.00 Ry     beta= 0.50
     Davidson diagonalization with overlap
     ethr =  8.54E-04,  avg # of iterations =  1.0

     negative rho (up, down):  8.870E-02 0.000E+00

     total cpu time spent up to now is      278.2 secs

     total energy              =   -3711.63263585 Ry
     Harris-Foulkes estimate   =   -3711.80589853 Ry
     estimated scf accuracy    <       3.89811562 Ry

     iteration #  6     ecut=    60.00 Ry     beta= 0.50
     Davidson diagonalization with overlap
     ethr =  8.54E-04,  avg # of iterations =  1.0

     negative rho (up, down):  8.966E-02 0.000E+00

     total cpu time spent up to now is      326.1 secs

     total energy              =   -3711.64798842 Ry
     Harris-Foulkes estimate   =   -3711.69408202 Ry
     estimated scf accuracy    <       1.31587832 Ry

     iteration #  7     ecut=    60.00 Ry     beta= 0.50
     Davidson diagonalization with overlap
     ethr =  2.89E-04,  avg # of iterations =  7.9

     negative rho (up, down):  9.041E-02 0.000E+00

     total cpu time spent up to now is      394.8 secs

     total energy              =   -3711.64689252 Ry
     Harris-Foulkes estimate   =   -3711.67022337 Ry
     estimated scf accuracy    <       0.62556669 Ry

     iteration #  8     ecut=    60.00 Ry     beta= 0.50
     Davidson diagonalization with overlap
     ethr =  1.37E-04,  avg # of iterations =  4.9

     negative rho (up, down):  9.090E-02 0.000E+00

     total cpu time spent up to now is      455.2 secs

     total energy              =   -3711.64510275 Ry
     Harris-Foulkes estimate   =   -3711.65869440 Ry
     estimated scf accuracy    <       0.59209502 Ry

     iteration #  9     ecut=    60.00 Ry     beta= 0.50
     Davidson diagonalization with overlap
     ethr =  1.30E-04,  avg # of iterations =  2.7

     negative rho (up, down):  9.093E-02 0.000E+00

     total cpu time spent up to now is      507.6 secs

     total energy              =   -3711.63131502 Ry
     Harris-Foulkes estimate   =   -3711.65057312 Ry
     estimated scf accuracy    <       0.34390924 Ry

     iteration # 10     ecut=    60.00 Ry     beta= 0.50
     Davidson diagonalization with overlap
     ethr =  7.54E-05,  avg # of iterations =  8.2

     negative rho (up, down):  9.063E-02 0.000E+00

     total cpu time spent up to now is      577.7 secs

     total energy              =   -3711.62778104 Ry
     Harris-Foulkes estimate   =   -3711.63675567 Ry
     estimated scf accuracy    <       0.15064946 Ry

     iteration # 11     ecut=    60.00 Ry     beta= 0.50
     Davidson diagonalization with overlap
     c_bands:  2 eigenvalues not converged
     ethr =  3.30E-05,  avg # of iterations =  9.4

     negative rho (up, down):  9.014E-02 0.000E+00

     total cpu time spent up to now is      652.4 secs

     total energy              =   -3711.62488887 Ry
     Harris-Foulkes estimate   =   -3711.63022638 Ry
     estimated scf accuracy    <       0.04563007 Ry

     iteration # 12     ecut=    60.00 Ry     beta= 0.50
     Davidson diagonalization with overlap
     ethr =  1.00E-05,  avg # of iterations = 10.1

     negative rho (up, down):  8.983E-02 0.000E+00

     total cpu time spent up to now is      732.1 secs

     total energy              =   -3711.62500856 Ry
     Harris-Foulkes estimate   =   -3711.62648776 Ry
     estimated scf accuracy    <       0.03900628 Ry

     iteration # 13     ecut=    60.00 Ry     beta= 0.50
     Davidson diagonalization with overlap
     ethr =  8.55E-06,  avg # of iterations =  1.2

     negative rho (up, down):  8.954E-02 0.000E+00

     total cpu time spent up to now is      780.0 secs

     total energy              =   -3711.62323512 Ry
     Harris-Foulkes estimate   =   -3711.62534292 Ry
     estimated scf accuracy    <       0.04660640 Ry

     iteration # 14     ecut=    60.00 Ry     beta= 0.50
     Davidson diagonalization with overlap
     ethr =  8.55E-06,  avg # of iterations =  3.4

     negative rho (up, down):  9.023E-02 0.000E+00

     total cpu time spent up to now is      834.5 secs

     total energy              =   -3711.62191245 Ry
     Harris-Foulkes estimate   =   -3711.62355738 Ry
     estimated scf accuracy    <       0.04753168 Ry

     iteration # 15     ecut=    60.00 Ry     beta= 0.50
     Davidson diagonalization with overlap
     ethr =  8.55E-06,  avg # of iterations =  3.4

     negative rho (up, down):  8.984E-02 0.000E+00

     total cpu time spent up to now is      888.9 secs

     total energy              =   -3711.62130644 Ry
     Harris-Foulkes estimate   =   -3711.62213016 Ry
     estimated scf accuracy    <       0.05047534 Ry

     iteration # 16     ecut=    60.00 Ry     beta= 0.50
     Davidson diagonalization with overlap
     c_bands:  1 eigenvalues not converged
     ethr =  8.55E-06,  avg # of iterations =  3.9

     negative rho (up, down):  9.188E-02 0.000E+00

     total cpu time spent up to now is      944.9 secs

     total energy              =   -3711.61930300 Ry
     Harris-Foulkes estimate   =   -3711.62156679 Ry
     estimated scf accuracy    <       0.03336581 Ry

     iteration # 17     ecut=    60.00 Ry     beta= 0.50
     Davidson diagonalization with overlap
     ethr =  7.32E-06,  avg # of iterations =  7.8

     negative rho (up, down):  9.323E-02 0.000E+00

     total cpu time spent up to now is     1012.2 secs

     total energy              =   -3711.61827979 Ry
     Harris-Foulkes estimate   =   -3711.61956184 Ry
     estimated scf accuracy    <       0.04619486 Ry

     iteration # 18     ecut=    60.00 Ry     beta= 0.50
     Davidson diagonalization with overlap
     ethr =  7.32E-06,  avg # of iterations =  7.6

     negative rho (up, down):  9.271E-02 0.000E+00

     total cpu time spent up to now is     1079.9 secs

     total energy              =   -3711.61732882 Ry
     Harris-Foulkes estimate   =   -3711.61844102 Ry
     estimated scf accuracy    <       0.02550587 Ry

     iteration # 19     ecut=    60.00 Ry     beta= 0.50
     Davidson diagonalization with overlap
     c_bands:  1 eigenvalues not converged
     c_bands:  3 eigenvalues not converged
     ethr =  5.59E-06,  avg # of iterations =  8.4

     negative rho (up, down):  9.064E-02 0.000E+00

     total cpu time spent up to now is     1150.2 secs

     total energy              =   -3711.61671677 Ry
     Harris-Foulkes estimate   =   -3711.61747240 Ry
     estimated scf accuracy    <       0.00839459 Ry

     iteration # 20     ecut=    60.00 Ry     beta= 0.50
     Davidson diagonalization with overlap
     c_bands:  1 eigenvalues not converged
     ethr =  1.84E-06,  avg # of iterations = 10.4

     negative rho (up, down):  8.993E-02 0.000E+00

     total cpu time spent up to now is     1228.0 secs

     total energy              =   -3711.61661433 Ry
     Harris-Foulkes estimate   =   -3711.61685069 Ry
     estimated scf accuracy    <       0.00390131 Ry

     iteration # 21     ecut=    60.00 Ry     beta= 0.50
     Davidson diagonalization with overlap
     ethr =  8.56E-07,  avg # of iterations =  4.8

     negative rho (up, down):  9.267E-02 0.000E+00

     total cpu time spent up to now is     1287.3 secs

     total energy              =   -3711.61653618 Ry
     Harris-Foulkes estimate   =   -3711.61672607 Ry
     estimated scf accuracy    <       0.00387245 Ry

     iteration # 22     ecut=    60.00 Ry     beta= 0.50
     Davidson diagonalization with overlap
     ethr =  8.49E-07,  avg # of iterations =  6.3

     negative rho (up, down):  9.413E-02 0.000E+00

     total cpu time spent up to now is     1351.5 secs

     total energy              =   -3711.61665667 Ry
     Harris-Foulkes estimate   =   -3711.61663359 Ry
     estimated scf accuracy    <       0.00129608 Ry

     iteration # 23     ecut=    60.00 Ry     beta= 0.50
     Davidson diagonalization with overlap
     c_bands:  1 eigenvalues not converged
     ethr =  2.84E-07,  avg # of iterations =  4.2

     negative rho (up, down):  9.158E-02 0.000E+00

     total cpu time spent up to now is     1408.7 secs

     total energy              =   -3711.61661591 Ry
     Harris-Foulkes estimate   =   -3711.61666880 Ry
     estimated scf accuracy    <       0.00067325 Ry

     iteration # 24     ecut=    60.00 Ry     beta= 0.50
     Davidson diagonalization with overlap
     c_bands:  1 eigenvalues not converged
     ethr =  1.48E-07,  avg # of iterations =  4.7

     negative rho (up, down):  9.207E-02 0.000E+00

     total cpu time spent up to now is     1468.8 secs

     total energy              =   -3711.61661844 Ry
     Harris-Foulkes estimate   =   -3711.61663629 Ry
     estimated scf accuracy    <       0.00047949 Ry

     iteration # 25     ecut=    60.00 Ry     beta= 0.50
     Davidson diagonalization with overlap
     ethr =  1.05E-07,  avg # of iterations =  1.8

     negative rho (up, down):  9.225E-02 0.000E+00

     total cpu time spent up to now is     1519.5 secs

     total energy              =   -3711.61661769 Ry
     Harris-Foulkes estimate   =   -3711.61662858 Ry
     estimated scf accuracy    <       0.00020276 Ry

     iteration # 26     ecut=    60.00 Ry     beta= 0.50
     Davidson diagonalization with overlap
     ethr =  4.45E-08,  avg # of iterations =  1.0

     negative rho (up, down):  9.217E-02 0.000E+00

     total cpu time spent up to now is     1567.8 secs

     total energy              =   -3711.61662063 Ry
     Harris-Foulkes estimate   =   -3711.61662138 Ry
     estimated scf accuracy    <       0.00006617 Ry

     iteration # 27     ecut=    60.00 Ry     beta= 0.50
     Davidson diagonalization with overlap
     ethr =  1.45E-08,  avg # of iterations =  1.0

     negative rho (up, down):  9.202E-02 0.000E+00

     total cpu time spent up to now is     1617.2 secs

     total energy              =   -3711.61662196 Ry
     Harris-Foulkes estimate   =   -3711.61662188 Ry
     estimated scf accuracy    <       0.00001656 Ry

     iteration # 28     ecut=    60.00 Ry     beta= 0.50
     Davidson diagonalization with overlap
     ethr =  3.63E-09,  avg # of iterations =  1.2

     negative rho (up, down):  9.210E-02 0.000E+00

     total cpu time spent up to now is     1667.2 secs

     total energy              =   -3711.61662221 Ry
     Harris-Foulkes estimate   =   -3711.61662238 Ry
     estimated scf accuracy    <       0.00000520 Ry

     iteration # 29     ecut=    60.00 Ry     beta= 0.50
     Davidson diagonalization with overlap
     ethr =  1.14E-09,  avg # of iterations =  2.6

     negative rho (up, down):  9.206E-02 0.000E+00

     total cpu time spent up to now is     1721.4 secs

     total energy              =   -3711.61662261 Ry
     Harris-Foulkes estimate   =   -3711.61662258 Ry
     estimated scf accuracy    <       0.00000200 Ry

     iteration # 30     ecut=    60.00 Ry     beta= 0.50
     Davidson diagonalization with overlap
     ethr =  4.38E-10,  avg # of iterations =  2.1

     negative rho (up, down):  9.222E-02 0.000E+00

     total cpu time spent up to now is     1773.5 secs

     total energy              =   -3711.61662239 Ry
     Harris-Foulkes estimate   =   -3711.61662272 Ry
     estimated scf accuracy    <       0.00000161 Ry

     iteration # 31     ecut=    60.00 Ry     beta= 0.50
     Davidson diagonalization with overlap
     ethr =  3.52E-10,  avg # of iterations =  1.0

     negative rho (up, down):  9.225E-02 0.000E+00

     total cpu time spent up to now is     1822.9 secs

     total energy              =   -3711.61662238 Ry
     Harris-Foulkes estimate   =   -3711.61662244 Ry
     estimated scf accuracy    <       0.00000046 Ry

     iteration # 32     ecut=    60.00 Ry     beta= 0.50
     Davidson diagonalization with overlap
     ethr =  1.00E-10,  avg # of iterations =  2.1

     negative rho (up, down):  9.224E-02 0.000E+00

     total cpu time spent up to now is     1875.4 secs

     total energy              =   -3711.61662240 Ry
     Harris-Foulkes estimate   =   -3711.61662240 Ry
     estimated scf accuracy    <       0.00000005 Ry

     iteration # 33     ecut=    60.00 Ry     beta= 0.50
     Davidson diagonalization with overlap
     ethr =  1.11E-11,  avg # of iterations =  3.4

     negative rho (up, down):  9.222E-02 0.000E+00

     total cpu time spent up to now is     1948.2 secs

     total energy              =   -3711.61662244 Ry
     Harris-Foulkes estimate   =   -3711.61662242 Ry
     estimated scf accuracy    <       0.00000030 Ry

     iteration # 34     ecut=    60.00 Ry     beta= 0.50
     Davidson diagonalization with overlap
     ethr =  1.11E-11,  avg # of iterations =  1.0

     negative rho (up, down):  9.221E-02 0.000E+00

     total cpu time spent up to now is     1995.8 secs

     total energy              =   -3711.61662245 Ry
     Harris-Foulkes estimate   =   -3711.61662244 Ry
     estimated scf accuracy    <       0.00000009 Ry

     iteration # 35     ecut=    60.00 Ry     beta= 0.50
     Davidson diagonalization with overlap
     ethr =  1.11E-11,  avg # of iterations =  1.0

     negative rho (up, down):  9.221E-02 0.000E+00

     total cpu time spent up to now is     2043.4 secs

     End of self-consistent calculation

          k = 0.0000 0.0000 0.0000 ( 72345 PWs)   bands (ev):

   -38.2390 -37.9269 -35.8677 -35.5179 -24.4936 -24.0880 -23.0170 -22.9928
   -22.8887 -22.8751 -22.8650 -22.7273 -18.7141 -18.6097 -18.3733 -18.3192
   -18.2422 -17.9384 -17.2156 -17.0800 -16.8976 -16.8377 -16.7539 -16.5587
   -15.6237 -15.3813 -15.3673 -15.2014 -15.1787 -15.1359 -14.8745 -14.7690
   -14.7197 -14.6929 -14.6667 -14.6548 -14.5521 -14.4956 -14.4000 -14.3348
   -14.3105 -14.2117 -14.2045 -14.1981 -14.1944 -14.1822 -14.1576 -14.1041
   -14.0952 -14.0673 -14.0550 -13.8832 -13.7421 -13.5103  -9.8580  -9.3744
    -9.2475  -9.2161  -8.8888  -8.8553  -8.2555  -8.2261  -8.1603  -8.1403
    -8.1214  -8.0664  -8.0624  -8.0444  -7.9283  -7.9046  -7.8713  -7.8318
    -7.8098  -7.7499  -7.6903  -7.6885  -7.6667  -7.5284  -3.1872  -3.1429
    -3.0308  -2.6196  -2.3728  -2.3604  -2.2871  -2.2788  -2.2761  -2.2501
    -2.2457  -2.1259  -2.0919  -2.0481  -2.0153  -1.9498  -1.8813  -1.8715
    -1.8422  -1.8316  -1.8228  -1.7507  -1.7414  -1.7185  -1.6210  -1.5369
    -1.4583  -1.4145  -1.3383  -1.3321  -1.3116  -1.2668  -1.2637  -1.2119
    -1.1205  -1.1200  -1.1199  -1.1184  -1.1025  -1.0717  -1.0715  -0.9739
    -0.9478  -0.9389  -0.9130  -0.8934  -0.8874  -0.8671  -0.8486  -0.7273
    -0.6890  -0.6744  -0.5534  -0.4540  -0.4487  -0.4456  -0.3956  -0.3870
    -0.3350  -0.3308  -0.3283  -0.3252  -0.2991  -0.2475  -0.2371  -0.2090
    -0.1931  -0.1571  -0.1416  -0.1349  -0.1271  -0.1149  -0.0581  -0.0251
    -0.0225  -0.0179  -0.0122  -0.0121   0.0198   0.0359   0.0735   0.0748
     0.1123   0.1141   0.1545   0.1637   0.1740   0.1988   0.2157   0.2470
     0.2764   0.3256   0.3847   0.3925   0.4062   0.4073   0.4177   0.4447
     0.5011   0.5732   0.5742   0.6194   0.6427   0.8411   0.8551   0.8593
     0.8844   0.8858   0.9052   0.9162   0.9526   0.9651   1.0041   1.0218
     1.0250   1.0477   1.0762   1.0798   1.0982   1.1055   1.1469   1.1675
     1.1984   1.2336   1.2548   1.2600   1.2775   1.3002   1.3974   1.4247
     1.4930   1.4965   1.5601   1.5702   1.5749   1.6040   1.6434   1.6464
     1.6581   1.6744   1.7576   1.7674   1.8275   1.8421   1.9136   1.9277
     1.9695   2.0486   2.1027   2.1067   2.1308   2.1748   2.2443   2.3164
     2.4227   2.4338   2.4368   2.5103   2.7169   2.7314   4.3627   5.0433
     5.0838   5.1594   5.5850   5.8151   6.0999   6.1808   6.3607   6.4882
     6.5358   6.7704   7.1284   7.1467   7.2165   7.2251   7.2268   7.4580
     7.4774   7.6533   7.8104   7.9194   7.9723   7.9886   8.1437   8.2558
     8.2950   8.3272   8.3586   8.3821   8.4621   8.5127   8.5386   8.7339
     8.8332   8.8622

          k = 0.0000 0.2618 0.0000 ( 72343 PWs)   bands (ev):

   -38.2363 -37.9241 -35.8660 -35.5162 -24.4749 -24.0702 -22.9924 -22.9682
   -22.8696 -22.8515 -22.8459 -22.7085 -18.6755 -18.6025 -18.3531 -18.3345
   -18.3118 -18.0494 -17.1861 -17.0757 -16.9636 -16.8080 -16.7494 -16.6248
   -15.5175 -15.2969 -15.2869 -15.1549 -15.1227 -15.0791 -14.8351 -14.7666
   -14.6845 -14.6709 -14.6476 -14.6051 -14.5114 -14.4318 -14.3660 -14.3179
   -14.3060 -14.2614 -14.2195 -14.1865 -14.1792 -14.1723 -14.1594 -14.1428
   -14.1336 -14.0637 -14.0551 -13.9416 -13.7758 -13.5241  -9.8439  -9.3714
    -9.2895  -9.2671  -9.0102  -8.9524  -8.2486  -8.2199  -8.1692  -8.1554
    -8.1349  -8.0521  -8.0227  -8.0011  -7.9707  -7.9637  -7.9463  -7.9413
    -7.8975  -7.8744  -7.8531  -7.7913  -7.7840  -7.7424  -3.2893  -3.2238
    -3.0922  -2.6662  -2.4938  -2.4513  -2.4307  -2.3854  -2.3698  -2.2818
    -2.2799  -2.2584  -2.2440  -2.2099  -2.1999  -2.1744  -2.0953  -2.0780
    -2.0212  -1.9293  -1.9059  -1.8482  -1.8218  -1.7101  -1.6657  -1.6627
    -1.5955  -1.5663  -1.5653  -1.5613  -1.5345  -1.5332  -1.5317  -1.4740
    -1.4467  -1.3917  -1.3571  -1.2581  -1.1109  -1.0387  -0.9961  -0.9817
    -0.9330  -0.9182  -0.9083  -0.8404  -0.8181  -0.7974  -0.7789  -0.7302
    -0.7056  -0.6690  -0.6012  -0.5458  -0.5379  -0.5103  -0.5002  -0.4710
    -0.4603  -0.4458  -0.4313  -0.3513  -0.3393  -0.2927  -0.2871  -0.2629
    -0.2273  -0.1833  -0.1653  -0.1376  -0.1365  -0.0643  -0.0550  -0.0497
    -0.0054   0.0102   0.0237   0.0391   0.0396   0.1366   0.1376   0.1394
     0.1494   0.1683   0.2234   0.2427   0.2436   0.2693   0.2803   0.2815
     0.2999   0.3504   0.3764   0.3803   0.4417   0.4957   0.5147   0.5184
     0.5242   0.6263   0.6912   0.7095   0.7460   0.7672   0.7717   0.8229
     0.8250   0.8569   0.9494   0.9931   1.0093   1.0116   1.0148   1.0435
     1.0441   1.0948   1.1360   1.1417   1.1452   1.1754   1.2105   1.2200
     1.2292   1.2610   1.3057   1.3306   1.3316   1.3583   1.3585   1.3790
     1.4261   1.4876   1.4933   1.5711   1.5950   1.6448   1.6512   1.6566
     1.6806   1.7030   1.7149   1.7427   1.8518   1.8579   1.8669   1.8866
     2.0974   2.1295   2.1535   2.3422   2.6066   2.6557   2.6787   2.7191
     2.7348   2.7371   2.8230   2.8891   3.0285   3.1632   4.5895   5.3890
     5.4648   5.4838   5.7154   6.0589   6.1662   6.3763   6.5705   6.6340
     6.8058   6.8451   6.9663   6.9792   7.2585   7.4370   7.5014   7.6144
     7.6416   7.6629   7.7287   7.7457   8.0019   8.0826   8.1538   8.2081
     8.3326   8.3741   8.4932   8.5497   8.5657   8.6054   8.7889   8.8291
     8.8318   8.8738

          k = 0.0000 0.5236 0.0000 ( 72275 PWs)   bands (ev):

   -38.2298 -37.9176 -35.8619 -35.5120 -24.4289 -24.0264 -22.9319 -22.9075
   -22.8227 -22.7991 -22.7934 -22.6626 -18.5935 -18.5850 -18.5756 -18.2942
   -18.2924 -18.2318 -17.1167 -17.1027 -17.0652 -16.7755 -16.7385 -16.7259
   -15.2765 -15.1039 -15.0875 -15.0316 -14.9746 -14.9278 -14.8241 -14.7396
   -14.7231 -14.6487 -14.6025 -14.4266 -14.4107 -14.3853 -14.3573 -14.3286
   -14.3047 -14.2978 -14.2883 -14.2447 -14.1631 -14.1590 -14.1510 -14.1227
   -14.1215 -14.0679 -14.0577 -13.9831 -13.8002 -13.5491  -9.8050  -9.6609
    -9.4424  -9.3070  -9.1941  -8.9728  -8.4359  -8.4118  -8.2824  -8.2762
    -8.2545  -8.2118  -8.1831  -8.1417  -8.1209  -8.1162  -8.0966  -8.0350
    -8.0174  -8.0117  -7.9058  -7.8834  -7.8772  -7.7121  -3.6843  -3.5631
    -3.3363  -2.9938  -2.9488  -2.9273  -2.8990  -2.8510  -2.7795  -2.6057
    -2.5700  -2.4619  -2.4414  -2.4204  -2.4144  -2.3789  -2.3764  -2.2596
    -2.2528  -2.2361  -2.2332  -2.2278  -2.2255  -2.1991  -2.1284  -1.9912
    -1.9393  -1.8849  -1.8355  -1.8226  -1.7837  -1.7538  -1.6720  -1.6193
    -1.4838  -1.3905  -1.3381  -1.2664  -1.1494  -1.1286  -1.1214  -1.1065
    -1.0597  -1.0451  -1.0210  -0.9863  -0.9801  -0.9139  -0.9094  -0.8042
    -0.7839  -0.7747  -0.7128  -0.7059  -0.7009  -0.6908  -0.6806  -0.6710
    -0.6588  -0.6582  -0.5924  -0.5509  -0.5370  -0.4878  -0.4878  -0.4556
    -0.4405  -0.4219  -0.4126  -0.3474  -0.2551  -0.0970  -0.0818   0.0085
     0.0097   0.0566   0.0572   0.0623   0.0824   0.0954   0.1628   0.1758
     0.2281   0.2536   0.2796   0.4099   0.4435   0.4546   0.4617   0.4730
     0.5764   0.6325   0.6337   0.6442   0.6889   0.7012   0.7446   0.7714
     0.8480   0.8817   0.8941   0.8967   0.9185   0.9728   1.0378   1.0726
     1.0808   1.1017   1.1098   1.1128   1.1276   1.1374   1.1421   1.1520
     1.1578   1.2222   1.2266   1.2422   1.2757   1.2967   1.3197   1.3275
     1.3591   1.3998   1.4068   1.4469   1.4579   1.4625   1.5332   1.5381
     1.6050   1.6346   1.6454   1.6617   1.6677   1.7005   1.7043   1.7177
     1.7315   1.7812   1.8684   1.9022   1.9272   1.9333   1.9338   1.9759
     2.0809   2.2094   2.2721   2.3989   2.9329   2.9373   2.9693   2.9820
     3.3106   3.3631   3.6804   3.7189   3.7953   4.0077   4.9798   5.5362
     6.1774   6.3120   6.3653   6.3695   6.4847   6.4942   6.5377   6.7264
     6.8026   6.9437   7.0930   7.1127   7.6632   7.6825   7.7230   7.8666
     7.9941   8.1677   8.2351   8.2810   8.3226   8.3841   8.4931   8.5027
     8.5611   8.6005   8.6404   8.7451   8.8144   8.8189   8.8249   8.9263
     8.9505   9.1309

          k = 0.0000 0.7854 0.0000 ( 72250 PWs)   bands (ev):

   -38.2233 -37.9111 -35.8578 -35.5079 -24.3821 -23.9816 -22.8695 -22.8450
   -22.7748 -22.7513 -22.7338 -22.6155 -18.8021 -18.5676 -18.5005 -18.4699
   -18.2766 -18.1262 -17.2382 -17.0549 -17.0297 -16.9017 -16.7277 -16.6470
   -15.0560 -14.9799 -14.9304 -14.8724 -14.8496 -14.7948 -14.7448 -14.7393
   -14.7219 -14.6508 -14.5390 -14.5152 -14.4950 -14.4672 -14.3504 -14.3253
   -14.3179 -14.3105 -14.2628 -14.2166 -14.1269 -14.1074 -14.1022 -14.0804
   -14.0751 -14.0745 -14.0328 -13.8963 -13.7780 -13.5507 -10.0464  -9.7553
    -9.6944  -9.3169  -9.2369  -8.9123  -8.8309  -8.8068  -8.6548  -8.5713
    -8.5494  -8.3576  -8.2162  -8.1877  -8.1747  -8.1451  -8.1204  -8.1042
    -8.0807  -7.9961  -7.9505  -7.7847  -7.7621  -7.6008  -4.1688  -4.0332
    -3.7398  -3.5178  -3.3856  -3.3811  -3.3394  -3.3075  -3.1405  -2.9949
    -2.9945  -2.9290  -2.9289  -2.8163  -2.7508  -2.7281  -2.5891  -2.4973
    -2.3471  -2.3432  -2.3241  -2.3208  -2.2805  -2.2767  -2.2694  -2.2645
    -2.1734  -2.0361  -1.9077  -1.8724  -1.8711  -1.8044  -1.7261  -1.6993
    -1.6248  -1.3980  -1.3550  -1.3374  -1.2833  -1.2707  -1.2631  -1.2371
    -1.2302  -1.2221  -1.1504  -1.1500  -1.1281  -1.1053  -1.0490  -1.0145
    -0.9869  -0.9364  -0.9322  -0.9264  -0.8794  -0.8771  -0.8596  -0.8531
    -0.7369  -0.7367  -0.7113  -0.6963  -0.6866  -0.6688  -0.6609  -0.5944
    -0.5607  -0.5074  -0.4469  -0.3470  -0.3424  -0.2314  -0.1435  -0.0874
     0.0392   0.0701   0.0757   0.0810   0.0935   0.1115   0.1535   0.2172
     0.2239   0.3059   0.3811   0.4182   0.4841   0.6377   0.6417   0.6936
     0.7222   0.7265   0.8513   0.8595   0.8760   0.9034   0.9258   0.9755
     0.9948   1.0103   1.0297   1.0773   1.1138   1.1140   1.1790   1.1865
     1.1954   1.2250   1.2473   1.2653   1.2759   1.3129   1.3465   1.3562
     1.4148   1.4244   1.4841   1.4919   1.5340   1.5370   1.5896   1.5989
     1.6087   1.6100   1.6366   1.6416   1.6568   1.6608   1.6792   1.7212
     1.7331   1.7662   1.8022   1.8486   1.8881   1.9044   1.9310   1.9327
     1.9402   1.9645   2.0032   2.0496   2.0904   2.1130   2.1174   2.2329
     2.3200   2.3375   2.3377   2.3984   2.7814   2.7827   2.8825   2.8954
     3.6184   3.6915   4.3258   4.3650   4.3870   4.5998   4.9288   5.6916
     5.9534   5.9652   6.3330   6.3703   6.5896   6.8052   6.8642   7.2489
     7.2967   7.3085   7.5711   7.6651   7.9947   8.0308   8.0966   8.2607
     8.3079   8.4387   8.5054   8.5716   8.6312   8.6780   8.7758   8.7862
     8.8694   8.8914   8.9406   9.0114   9.0778   9.0849   9.1071   9.1580
     9.2730   9.3918

          k = 0.0000-1.0472 0.0000 ( 72382 PWs)   bands (ev):

   -38.2206 -37.9083 -35.8561 -35.5062 -24.3624 -23.9628 -22.8432 -22.8186
   -22.7546 -22.7311 -22.7086 -22.5956 -18.8826 -18.5811 -18.5604 -18.4226
   -18.2693 -18.0786 -17.2886 -17.0506 -16.9940 -16.9519 -16.7233 -16.6107
   -15.0619 -15.0044 -14.8677 -14.7937 -14.7287 -14.7062 -14.6831 -14.6787
   -14.6603 -14.6304 -14.6225 -14.5481 -14.5449 -14.5367 -14.3882 -14.3460
   -14.3253 -14.3244 -14.2712 -14.1626 -14.1258 -14.0776 -14.0759 -14.0636
   -14.0576 -14.0573 -13.9484 -13.8584 -13.7965 -13.5344 -10.2011  -9.8047
    -9.7295  -9.3473  -9.2238  -8.9842  -8.9600  -8.8822  -8.8075  -8.6900
    -8.6681  -8.4602  -8.2238  -8.1929  -8.1829  -8.1393  -8.1317  -8.1136
    -8.1083  -7.9938  -7.9706  -7.7321  -7.7095  -7.5523  -4.3708  -4.2352
    -3.9265  -3.7258  -3.5919  -3.5383  -3.5004  -3.4967  -3.2859  -3.2296
    -3.2281  -3.1592  -3.1591  -2.9640  -2.7795  -2.7573  -2.6235  -2.6118
    -2.4579  -2.3654  -2.3592  -2.3363  -2.2911  -2.2893  -2.2677  -2.2612
    -2.2566  -2.1025  -2.0176  -1.9875  -1.8976  -1.8098  -1.7186  -1.6001
    -1.4812  -1.4702  -1.4426  -1.4204  -1.3820  -1.3781  -1.3402  -1.3246
    -1.2935  -1.2932  -1.1942  -1.1929  -1.1796  -1.1791  -1.1247  -1.0949
    -1.0394  -1.0269  -1.0076  -0.9719  -0.9672  -0.9634  -0.9627  -0.8978
    -0.8261  -0.8258  -0.7932  -0.7489  -0.6885  -0.6810  -0.6676  -0.6360
    -0.5899  -0.4870  -0.4441  -0.3447  -0.3109  -0.3082  -0.2178  -0.1605
     0.0435   0.0702   0.0838   0.0846   0.1130   0.1336   0.1470   0.1643
     0.1748   0.2569   0.4026   0.4373   0.5018   0.6608   0.7242   0.7545
     0.7735   0.8650   0.8838   0.8972   0.9112   0.9917   0.9964   1.0067
     1.0839   1.1021   1.1064   1.1744   1.1837   1.1924   1.2221   1.2474
     1.2637   1.2719   1.2734   1.2800   1.3257   1.3355   1.3515   1.3635
     1.4761   1.5013   1.5550   1.5695   1.6116   1.6510   1.6665   1.6871
     1.6946   1.7077   1.7797   1.7935   1.8150   1.8197   1.8421   1.8481
     1.8735   1.9499   1.9548   1.9938   1.9990   2.0464   2.0537   2.0824
     2.0844   2.0916   2.0962   2.1315   2.1338   2.1557   2.1596   2.3164
     2.3175   2.5008   2.5009   2.5416   2.5480   2.5502   2.7132   2.7258
     3.6356   3.7572   4.5304   4.5799   4.5991   4.7967   4.8642   5.7142
     5.7258   5.8806   6.3313   6.3899   6.4786   6.7803   6.8369   7.4354
     7.5213   7.6929   7.7056   7.9147   8.0545   8.1734   8.2473   8.3854
     8.4626   8.5148   8.6698   8.7049   8.7561   8.8047   8.8339   8.8605
     8.8995   8.9711   8.9977   9.1066   9.1386   9.1595   9.2098   9.2159
     9.2700   9.2963

          k = 0.1250 0.0000 0.0000 ( 72381 PWs)   bands (ev):

   -38.2390 -37.9269 -35.8677 -35.5179 -24.4929 -24.0890 -23.0125 -22.9882
   -22.8935 -22.8717 -22.8698 -22.7310 -18.7134 -18.6065 -18.3726 -18.3160
   -18.2422 -17.9384 -17.2186 -17.0920 -16.8976 -16.8410 -16.7665 -16.5587
   -15.5963 -15.3584 -15.3555 -15.2053 -15.1644 -15.1218 -14.8669 -14.7811
   -14.7402 -14.7248 -14.6776 -14.6631 -14.5172 -14.5000 -14.3906 -14.3399
   -14.3033 -14.2171 -14.2021 -14.1999 -14.1931 -14.1843 -14.1606 -14.1096
   -14.0973 -14.0849 -14.0491 -13.8915 -13.7409 -13.5096  -9.8607  -9.3889
    -9.2278  -9.2133  -8.8902  -8.8586  -8.2578  -8.2284  -8.1639  -8.1447
    -8.1258  -8.0705  -8.0525  -8.0306  -7.9200  -7.8963  -7.8566  -7.8384
    -7.8164  -7.7423  -7.6996  -7.6907  -7.6761  -7.5370  -3.1525  -3.1077
    -2.9981  -2.5839  -2.3691  -2.3553  -2.3049  -2.2952  -2.2867  -2.2487
    -2.2464  -2.1231  -2.1107  -2.0458  -2.0283  -1.9924  -1.8829  -1.8793
    -1.8776  -1.8237  -1.8176  -1.7603  -1.7218  -1.7158  -1.6042  -1.5798
    -1.4729  -1.4405  -1.3673  -1.3221  -1.2674  -1.2542  -1.2351  -1.1689
    -1.1192  -1.1180  -1.1174  -1.1169  -1.1053  -1.1033  -1.0519  -0.9736
    -0.9473  -0.9370  -0.9238  -0.8734  -0.8675  -0.8490  -0.8459  -0.7032
    -0.6748  -0.6511  -0.5346  -0.5097  -0.4861  -0.4273  -0.4094  -0.3847
    -0.3747  -0.3612  -0.3536  -0.3470  -0.2786  -0.2699  -0.2418  -0.2282
    -0.2041  -0.1615  -0.1471  -0.1406  -0.1293  -0.1231  -0.0959  -0.0661
    -0.0334  -0.0232   0.0282   0.0435   0.0590   0.0615   0.0764   0.0765
     0.1122   0.1132   0.1452   0.1665   0.1970   0.2222   0.2372   0.2588
     0.2623   0.3287   0.3670   0.3794   0.3866   0.3911   0.4162   0.4490
     0.5005   0.5819   0.5992   0.6165   0.6945   0.7764   0.7853   0.8731
     0.8834   0.8889   0.8938   0.9065   0.9260   0.9823   0.9858   1.0157
     1.0334   1.0386   1.0398   1.0627   1.0736   1.1150   1.1156   1.1346
     1.1991   1.2431   1.2638   1.2749   1.3298   1.3318   1.4127   1.4714
     1.4747   1.4845   1.5530   1.5868   1.5931   1.5969   1.6368   1.6458
     1.6817   1.6923   1.6987   1.7376   1.8262   1.8373   1.9003   1.9153
     2.0085   2.0323   2.0883   2.1222   2.1549   2.1720   2.2438   2.3150
     2.4225   2.4447   2.4463   2.5213   2.7113   2.7305   4.4125   5.0985
     5.1335   5.2016   5.5981   5.8130   6.0496   6.2523   6.3974   6.5441
     6.5906   6.7650   6.7716   6.7798   7.2445   7.4346   7.4540   7.5908
     7.5971   7.6799   7.8139   7.9003   7.9808   7.9898   8.1335   8.2465
     8.2569   8.3243   8.3669   8.4339   8.5003   8.5046   8.5341   8.7072
     8.7844   8.8545

          k = 0.1250 0.2618 0.0000 ( 72315 PWs)   bands (ev):

   -38.2363 -37.9241 -35.8660 -35.5162 -24.4742 -24.0710 -22.9882 -22.9639
   -22.8741 -22.8505 -22.8482 -22.7121 -18.6748 -18.5993 -18.3531 -18.3338
   -18.3087 -18.0494 -17.1890 -17.0871 -16.9634 -16.8111 -16.7613 -16.6247
   -15.4908 -15.2892 -15.2626 -15.1582 -15.1103 -15.0673 -14.8283 -14.7723
   -14.6900 -14.6764 -14.6662 -14.6522 -14.4707 -14.4369 -14.3589 -14.3163
   -14.3000 -14.2628 -14.2263 -14.1874 -14.1780 -14.1744 -14.1604 -14.1464
   -14.1435 -14.0719 -14.0539 -13.9472 -13.7733 -13.5229  -9.8452  -9.3830
    -9.3178  -9.2610  -8.9911  -8.9354  -8.2505  -8.2220  -8.1727  -8.1612
    -8.1411  -8.0789  -8.0581  -8.0561  -8.0060  -7.9831  -7.9080  -7.8915
    -7.8847  -7.8511  -7.8463  -7.8281  -7.7225  -7.6990  -3.2534  -3.1872
    -3.0570  -2.6289  -2.5028  -2.4600  -2.4362  -2.3771  -2.3618  -2.2829
    -2.2801  -2.2615  -2.2485  -2.2136  -2.2002  -2.1791  -2.1014  -2.0941
    -2.0206  -1.9667  -1.9335  -1.9078  -1.8195  -1.7284  -1.6556  -1.6505
    -1.5885  -1.5632  -1.5614  -1.5380  -1.5365  -1.5271  -1.5079  -1.4721
    -1.4504  -1.4132  -1.3613  -1.2559  -1.1067  -1.0152  -1.0093  -0.9945
    -0.9244  -0.9129  -0.8977  -0.8323  -0.8275  -0.8123  -0.7599  -0.7473
    -0.7179  -0.7152  -0.6050  -0.5781  -0.5374  -0.5285  -0.5147  -0.4853
    -0.4617  -0.4516  -0.4326  -0.3995  -0.3053  -0.2795  -0.2722  -0.2671
    -0.2651  -0.1705  -0.1644  -0.1397  -0.1311  -0.0755  -0.0569  -0.0504
    -0.0288   0.0120   0.0265   0.0372   0.0518   0.1220   0.1379   0.1495
     0.1521   0.1783   0.2201   0.2395   0.2398   0.2798   0.2894   0.3129
     0.3163   0.3576   0.3720   0.3908   0.4069   0.4521   0.4985   0.5061
     0.5127   0.6272   0.7092   0.7380   0.7477   0.7850   0.8083   0.8135
     0.8415   0.8869   0.9339   0.9633   0.9713   0.9964   1.0107   1.0510
     1.0834   1.0911   1.1153   1.1343   1.1468   1.1613   1.2050   1.2080
     1.2303   1.2606   1.2663   1.2698   1.2979   1.3754   1.3803   1.4426
     1.4482   1.4883   1.5075   1.5648   1.5871   1.6290   1.6445   1.6499
     1.6675   1.6955   1.7065   1.7305   1.7412   1.8631   1.9853   1.9885
     2.0692   2.1767   2.1903   2.4324   2.6106   2.6522   2.6768   2.7174
     2.7377   2.7389   2.8209   2.8857   3.0200   3.1622   4.6270   5.4360
     5.5022   5.5189   5.7048   6.0560   6.1470   6.4080   6.5938   6.6753
     6.7998   6.8099   6.8606   6.8987   7.2951   7.4770   7.6044   7.6173
     7.6520   7.7307   7.7412   7.7820   8.0130   8.0867   8.1608   8.2035
     8.3283   8.3752   8.4713   8.5260   8.6125   8.6308   8.7502   8.7738
     8.8268   8.8909

          k = 0.1250 0.5236 0.0000 ( 72272 PWs)   bands (ev):

   -38.2298 -37.9176 -35.8619 -35.5120 -24.4283 -24.0271 -22.9282 -22.9037
   -22.8267 -22.8031 -22.7906 -22.6656 -18.5934 -18.5819 -18.5750 -18.2925
   -18.2910 -18.2311 -17.1183 -17.1037 -17.0753 -16.7760 -16.7489 -16.7284
   -15.2519 -15.0997 -15.0680 -15.0333 -14.9679 -14.9230 -14.8221 -14.7343
   -14.7211 -14.6487 -14.6008 -14.4929 -14.4123 -14.3561 -14.3464 -14.3265
   -14.3045 -14.2992 -14.2843 -14.2442 -14.1707 -14.1575 -14.1518 -14.1229
   -14.1226 -14.0739 -14.0556 -14.0041 -13.7950 -13.5468  -9.8048  -9.6771
    -9.4366  -9.3071  -9.2085  -8.9496  -8.4696  -8.4461  -8.3046  -8.2311
    -8.2066  -8.1993  -8.1729  -8.1484  -8.1372  -8.1229  -8.1032  -8.0801
    -8.0320  -8.0173  -7.9423  -7.8538  -7.8312  -7.6732  -3.6487  -3.5272
    -3.2994  -3.0011  -2.9487  -2.9352  -2.8609  -2.8530  -2.7829  -2.6006
    -2.5654  -2.4594  -2.4430  -2.4215  -2.4151  -2.3786  -2.3754  -2.2616
    -2.2524  -2.2368  -2.2341  -2.2258  -2.2246  -2.1957  -2.0957  -1.9787
    -1.9626  -1.8796  -1.8719  -1.8327  -1.8167  -1.7750  -1.6660  -1.6189
    -1.4663  -1.4076  -1.3974  -1.2735  -1.1640  -1.1325  -1.1227  -1.1067
    -1.0681  -1.0529  -1.0247  -0.9918  -0.9842  -0.9318  -0.8873  -0.8607
    -0.8149  -0.7757  -0.7679  -0.7368  -0.7242  -0.6946  -0.6824  -0.6794
    -0.6525  -0.6511  -0.5894  -0.5496  -0.5415  -0.5155  -0.4952  -0.4890
    -0.4399  -0.4083  -0.4077  -0.2979  -0.2620  -0.1050  -0.0742  -0.0012
     0.0163   0.0238   0.0508   0.0704   0.0738   0.1019   0.1823   0.2026
     0.2448   0.2478   0.2930   0.4003   0.4084   0.4388   0.4483   0.5159
     0.5175   0.6246   0.6275   0.6329   0.7033   0.7285   0.7810   0.8162
     0.8710   0.8856   0.8885   0.9253   0.9333   0.9795   1.0140   1.0280
     1.0497   1.0640   1.0932   1.1246   1.1364   1.1615   1.1656   1.1681
     1.2102   1.2139   1.2294   1.2361   1.2788   1.3069   1.3114   1.3187
     1.3375   1.3567   1.3981   1.4316   1.4763   1.4854   1.4931   1.5256
     1.5899   1.6126   1.6473   1.6527   1.6797   1.6964   1.7109   1.7501
     1.7565   1.7796   1.8750   1.8859   1.9237   1.9281   2.0436   2.0718
     2.1143   2.2003   2.3630   2.5360   2.9340   2.9385   2.9702   2.9845
     3.3116   3.3618   3.6481   3.6876   3.7668   3.9814   5.0140   5.5680
     6.1556   6.2551   6.3808   6.3852   6.4923   6.5042   6.5825   6.7385
     6.8222   6.9684   7.1146   7.1322   7.6917   7.7133   7.7480   7.8658
     7.9928   8.1223   8.2670   8.2688   8.3234   8.3601   8.4253   8.5036
     8.5604   8.5909   8.6522   8.6698   8.7547   8.8235   8.8348   8.9116
     8.9775   9.1083

          k = 0.1250 0.7854 0.0000 ( 72264 PWs)   bands (ev):

   -38.2233 -37.9111 -35.8578 -35.5079 -24.3816 -23.9822 -22.8664 -22.8418
   -22.7781 -22.7546 -22.7314 -22.6180 -18.8021 -18.5646 -18.5004 -18.4694
   -18.2736 -18.1257 -17.2382 -17.0642 -17.0318 -16.9017 -16.7374 -16.6493
   -15.0397 -14.9692 -14.9144 -14.8711 -14.8491 -14.7960 -14.7464 -14.7269
   -14.7163 -14.6514 -14.5357 -14.5120 -14.4902 -14.4640 -14.3545 -14.3368
   -14.3255 -14.3251 -14.2729 -14.2085 -14.1254 -14.1061 -14.1016 -14.0825
   -14.0757 -14.0755 -14.0387 -13.9141 -13.7751 -13.5516 -10.0316  -9.7554
    -9.6672  -9.3471  -9.2413  -8.9261  -8.8212  -8.7972  -8.6422  -8.5292
    -8.5071  -8.3212  -8.2152  -8.1872  -8.1736  -8.1511  -8.1463  -8.1270
    -8.1220  -8.0136  -7.9752  -7.7996  -7.7771  -7.6179  -4.1319  -3.9975
    -3.7054  -3.5152  -3.3951  -3.3875  -3.3519  -3.2744  -3.1497  -2.9924
    -2.9921  -2.9315  -2.9313  -2.8224  -2.7370  -2.7139  -2.5778  -2.4683
    -2.3448  -2.3427  -2.3058  -2.3015  -2.2843  -2.2756  -2.2670  -2.2630
    -2.1552  -2.0296  -1.9123  -1.8695  -1.8613  -1.8068  -1.7530  -1.7120
    -1.6962  -1.4078  -1.3635  -1.3599  -1.3485  -1.2844  -1.2581  -1.2391
    -1.2298  -1.2151  -1.1884  -1.1740  -1.1355  -1.1132  -1.0955  -1.0858
    -0.9850  -0.9551  -0.9494  -0.9251  -0.8776  -0.8718  -0.8621  -0.8441
    -0.7915  -0.7498  -0.7413  -0.6964  -0.6744  -0.6613  -0.6570  -0.5921
    -0.5547  -0.4694  -0.4305  -0.3579  -0.3534  -0.2352  -0.0755  -0.0255
     0.0263   0.0434   0.0488   0.0905   0.0994   0.1644   0.1781   0.2065
     0.2566   0.3215   0.4105   0.4396   0.4733   0.5007   0.6099   0.6661
     0.7400   0.7533   0.8549   0.8663   0.8842   0.9213   0.9548   0.9750
     0.9916   1.0098   1.0436   1.0852   1.1166   1.1308   1.1610   1.1816
     1.2021   1.2077   1.2294   1.2512   1.2677   1.3085   1.3538   1.3561
     1.4057   1.4376   1.4530   1.4894   1.4992   1.5268   1.5938   1.6025
     1.6159   1.6182   1.6299   1.6506   1.6706   1.6995   1.7028   1.7157
     1.7360   1.7417   1.8182   1.8380   1.8907   1.8923   1.9116   1.9792
     2.0138   2.0160   2.0280   2.0416   2.1212   2.1226   2.1270   2.3234
     2.3294   2.3323   2.3650   2.4517   2.7833   2.7849   2.8874   2.9033
     3.6251   3.6926   4.2614   4.3023   4.3294   4.5436   4.9711   5.7057
     6.0085   6.0202   6.2728   6.3954   6.6190   6.7929   6.8972   7.2372
     7.2695   7.2757   7.5324   7.6552   7.9663   7.9977   8.1335   8.1887
     8.2297   8.4565   8.4819   8.5442   8.6539   8.7201   8.7769   8.8611
     8.8819   8.9186   8.9476   9.0385   9.0677   9.0919   9.1388   9.1834
     9.3044   9.3867

          k = 0.1250-1.0472 0.0000 ( 72362 PWs)   bands (ev):

   -38.2206 -37.9083 -35.8561 -35.5062 -24.3620 -23.9633 -22.8402 -22.8156
   -22.7576 -22.7342 -22.7064 -22.5979 -18.8826 -18.5811 -18.5574 -18.4221
   -18.2663 -18.0781 -17.2886 -17.0597 -16.9960 -16.9519 -16.7327 -16.6129
   -15.0507 -14.9929 -14.8443 -14.7904 -14.7284 -14.6963 -14.6750 -14.6637
   -14.6629 -14.6443 -14.6407 -14.5405 -14.5371 -14.5317 -14.3815 -14.3427
   -14.3384 -14.3366 -14.2888 -14.1654 -14.1345 -14.0767 -14.0754 -14.0615
   -14.0584 -14.0583 -13.9549 -13.8713 -13.7918 -13.5401 -10.1700  -9.7804
    -9.7292  -9.3785  -9.2239  -8.9539  -8.9298  -8.9142  -8.7784  -8.6595
    -8.6376  -8.4328  -8.2199  -8.1894  -8.1819  -8.1667  -8.1433  -8.1423
    -8.1165  -8.0260  -7.9712  -7.7759  -7.7533  -7.5927  -4.3329  -4.1990
    -3.8926  -3.7231  -3.5936  -3.5542  -3.5146  -3.4642  -3.2972  -3.2273
    -3.2260  -3.1618  -3.1618  -2.9717  -2.7627  -2.7400  -2.5974  -2.5972
    -2.4321  -2.3678  -2.3614  -2.3158  -2.2947  -2.2673  -2.2624  -2.2609
    -2.2571  -2.0968  -1.9891  -1.9518  -1.8956  -1.8008  -1.7305  -1.6339
    -1.5759  -1.5151  -1.4743  -1.4486  -1.4305  -1.3786  -1.3444  -1.3408
    -1.3318  -1.2849  -1.2549  -1.2087  -1.1978  -1.1746  -1.1053  -1.0941
    -1.0745  -1.0560  -1.0003  -0.9765  -0.9687  -0.9585  -0.9467  -0.9262
    -0.8915  -0.8375  -0.8314  -0.7381  -0.6936  -0.6909  -0.6466  -0.6103
    -0.5665  -0.4542  -0.4255  -0.3254  -0.3223  -0.3120  -0.1272  -0.1012
     0.0283   0.0469   0.0832   0.1154   0.1193   0.1406   0.1679   0.2066
     0.2200   0.2479   0.3652   0.4879   0.4898   0.5207   0.6888   0.7823
     0.8017   0.8493   0.8921   0.9012   0.9406   0.9599   0.9942   1.0273
     1.0650   1.1145   1.1229   1.1292   1.1588   1.1886   1.2220   1.2345
     1.2563   1.2706   1.2895   1.3041   1.3222   1.3378   1.3580   1.3647
     1.4668   1.5245   1.5347   1.5618   1.6006   1.6648   1.6938   1.6962
     1.6990   1.7061   1.7842   1.8136   1.8228   1.8469   1.8599   1.8763
     1.9269   1.9397   1.9607   1.9782   2.0057   2.0339   2.0541   2.0674
     2.0787   2.0858   2.1156   2.1483   2.1644   2.1838   2.2868   2.3231
     2.3241   2.4934   2.4935   2.5067   2.5528   2.5542   2.7238   2.7411
     3.6438   3.7667   4.4515   4.5012   4.5251   4.7265   4.8987   5.7822
     5.7936   5.8627   6.3552   6.4166   6.5057   6.7861   6.8276   7.3498
     7.4906   7.6003   7.6136   7.9310   8.0427   8.0729   8.1356   8.2167
     8.4722   8.5092   8.7104   8.7938   8.8438   8.8619   8.9099   8.9315
     8.9564   8.9987   9.0695   9.1402   9.1816   9.1983   9.2050   9.2678
     9.2939   9.3059

          k = 0.2500 0.0000 0.0000 ( 72271 PWs)   bands (ev):

   -38.2390 -37.9268 -35.8677 -35.5179 -24.4910 -24.0912 -22.9999 -22.9755
   -22.9069 -22.8833 -22.8625 -22.7409 -18.7117 -18.5986 -18.3707 -18.3082
   -18.2422 -17.9384 -17.2257 -17.1203 -16.8976 -16.8488 -16.7961 -16.5588
   -15.5225 -15.3342 -15.2874 -15.2172 -15.1290 -15.0853 -14.8698 -14.8348
   -14.7812 -14.7505 -14.7069 -14.6839 -14.4996 -14.4642 -14.3669 -14.3584
   -14.2862 -14.2174 -14.2074 -14.1964 -14.1959 -14.1881 -14.1671 -14.1290
   -14.1165 -14.1058 -14.0441 -13.9119 -13.7382 -13.5077  -9.8669  -9.4143
    -9.2064  -9.1895  -8.8941  -8.8667  -8.2626  -8.2334  -8.1717  -8.1533
    -8.1335  -8.0860  -8.0195  -7.9976  -7.8963  -7.8726  -7.8575  -7.8352
    -7.8227  -7.7259  -7.7206  -7.7025  -7.6980  -7.5608  -3.0518  -3.0064
    -2.9049  -2.4820  -2.3881  -2.3625  -2.3435  -2.3304  -2.3201  -2.2578
    -2.2371  -2.1561  -2.1161  -2.1008  -2.0870  -2.0393  -1.9223  -1.8982
    -1.8681  -1.8268  -1.8023  -1.7818  -1.7102  -1.6792  -1.6499  -1.6301
    -1.5346  -1.4119  -1.3912  -1.2927  -1.2315  -1.2069  -1.1468  -1.1349
    -1.1202  -1.1177  -1.1150  -1.1141  -1.1107  -1.0804  -1.0270  -1.0014
    -0.9814  -0.9454  -0.8638  -0.8483  -0.8221  -0.8144  -0.8088  -0.6777
    -0.6505  -0.6369  -0.6069  -0.5022  -0.4977  -0.4815  -0.4799  -0.4253
    -0.4147  -0.4040  -0.3928  -0.3849  -0.3398  -0.2583  -0.2325  -0.2061
    -0.1877  -0.1844  -0.1833  -0.1575  -0.1526  -0.1383  -0.1368  -0.1022
    -0.0668  -0.0399   0.0766   0.0777   0.0790   0.1000   0.1009   0.1018
     0.1284   0.1373   0.1449   0.1818   0.2219   0.2370   0.2556   0.2584
     0.3024   0.3124   0.3289   0.3654   0.3693   0.3925   0.4254   0.4963
     0.5010   0.5374   0.6596   0.6651   0.7019   0.7277   0.7618   0.8192
     0.8240   0.8386   0.8559   0.8769   0.8864   0.9416   0.9472   0.9690
     0.9832   1.0558   1.0697   1.0711   1.0857   1.1347   1.1419   1.1563
     1.1642   1.2335   1.2647   1.2750   1.3763   1.3854   1.3899   1.4172
     1.4645   1.5006   1.5312   1.5646   1.5831   1.6282   1.6298   1.6312
     1.6758   1.7016   1.7259   1.7396   1.8221   1.8643   1.8830   1.9298
     1.9485   1.9899   2.0648   2.1364   2.1478   2.2431   2.3119   2.3125
     2.4220   2.4705   2.4723   2.5409   2.6900   2.7214   4.5494   5.2520
     5.2715   5.3208   5.5112   5.8973   6.0941   6.2868   6.3809   6.3854
     6.4941   6.6955   6.7513   6.7698   7.2574   7.3862   7.4424   7.6819
     7.8072   7.8435   7.8554   7.9189   7.9926   8.0575   8.1596   8.2547
     8.2595   8.3082   8.3461   8.4180   8.4721   8.4880   8.6080   8.6606
     8.8177   8.9201

          k = 0.2500 0.2618 0.0000 ( 72312 PWs)   bands (ev):

   -38.2363 -37.9241 -35.8660 -35.5162 -24.4724 -24.0731 -22.9761 -22.9517
   -22.8868 -22.8634 -22.8395 -22.7214 -18.6731 -18.5915 -18.3531 -18.3320
   -18.3010 -18.0494 -17.1957 -17.1141 -16.9632 -16.8185 -16.7895 -16.6245
   -15.4187 -15.2685 -15.1984 -15.1685 -15.0796 -15.0370 -14.8177 -14.7997
   -14.7472 -14.7168 -14.6891 -14.6678 -14.4408 -14.4197 -14.3417 -14.3199
   -14.2884 -14.2648 -14.2346 -14.1901 -14.1800 -14.1769 -14.1702 -14.1632
   -14.1524 -14.0935 -14.0531 -13.9603 -13.7680 -13.5197  -9.8483  -9.4128
    -9.3566  -9.2625  -8.9512  -8.8993  -8.2569  -8.2288  -8.1872  -8.1747
    -8.1618  -8.1324  -8.1090  -8.0774  -8.0514  -8.0282  -7.9338  -7.8956
    -7.8346  -7.8115  -7.7917  -7.7688  -7.6600  -7.6380  -3.1496  -3.0819
    -2.9571  -2.5393  -2.5226  -2.4933  -2.4569  -2.3561  -2.3414  -2.3013
    -2.2765  -2.2622  -2.2613  -2.2211  -2.2038  -2.1909  -2.1388  -2.1149
    -2.0717  -2.0415  -2.0110  -1.9870  -1.8162  -1.7576  -1.6720  -1.6181
    -1.5939  -1.5668  -1.5565  -1.5555  -1.5388  -1.5386  -1.4647  -1.4577
    -1.3905  -1.3637  -1.3539  -1.2412  -1.0971  -1.0459  -1.0182  -0.9508
    -0.9172  -0.9072  -0.8883  -0.8762  -0.8565  -0.8186  -0.8127  -0.7595
    -0.7247  -0.7227  -0.6944  -0.6632  -0.6118  -0.5855  -0.5318  -0.4971
    -0.4476  -0.4468  -0.3994  -0.3944  -0.3574  -0.2983  -0.2843  -0.2598
    -0.2376  -0.1812  -0.1750  -0.1397  -0.1360  -0.0929  -0.0498  -0.0464
    -0.0255   0.0039   0.0169   0.0335   0.0393   0.1128   0.1547   0.1818
     0.1839   0.1904   0.2254   0.2301   0.2431   0.2577   0.2877   0.3007
     0.3503   0.3724   0.3779   0.3933   0.4210   0.4381   0.4592   0.4955
     0.5341   0.6091   0.7116   0.7425   0.7753   0.7806   0.8415   0.8642
     0.8809   0.9112   0.9227   0.9361   0.9839   0.9910   1.0057   1.0284
     1.0602   1.0640   1.0658   1.1170   1.1386   1.1557   1.1816   1.1872
     1.2249   1.2305   1.2376   1.2950   1.3029   1.3538   1.3823   1.4374
     1.5119   1.5134   1.5253   1.5489   1.5580   1.5921   1.6033   1.6071
     1.6302   1.6390   1.6855   1.7288   1.7954   1.8823   1.9590   2.1149
     2.1677   2.2417   2.3537   2.6179   2.6313   2.6436   2.6690   2.7118
     2.7444   2.7494   2.8107   2.8705   2.9880   3.1503   4.7335   5.5690
     5.5906   5.6104   5.6439   6.0458   6.2294   6.4542   6.5180   6.5233
     6.6439   6.7352   7.0198   7.0550   7.3303   7.4103   7.5438   7.6546
     7.7175   7.7747   7.9107   7.9348   8.0176   8.0949   8.1912   8.2344
     8.3398   8.3677   8.4475   8.4803   8.5699   8.5912   8.7143   8.7358
     8.8014   8.8827

          k = 0.2500 0.5236 0.0000 ( 72250 PWs)   bands (ev):

   -38.2298 -37.9176 -35.8619 -35.5120 -24.4269 -24.0288 -22.9176 -22.8931
   -22.8377 -22.8143 -22.7831 -22.6736 -18.5933 -18.5743 -18.5736 -18.2923
   -18.2836 -18.2297 -17.1228 -17.1060 -17.0986 -16.7791 -16.7718 -16.7341
   -15.1853 -15.0886 -15.0384 -15.0182 -14.9530 -14.9123 -14.8172 -14.7213
   -14.7145 -14.6492 -14.6018 -14.5875 -14.4196 -14.3536 -14.3200 -14.3133
   -14.3105 -14.3022 -14.2822 -14.2296 -14.1952 -14.1536 -14.1495 -14.1269
   -14.1242 -14.0858 -14.0540 -14.0538 -13.7858 -13.5418  -9.8041  -9.6974
    -9.4779  -9.3072  -9.1807  -8.9200  -8.5050  -8.4818  -8.3293  -8.2519
    -8.2288  -8.2149  -8.1868  -8.1538  -8.1451  -8.1278  -8.0712  -8.0600
    -8.0482  -8.0175  -7.9189  -7.8067  -7.7839  -7.6350  -3.5483  -3.4264
    -3.1979  -3.0316  -2.9621  -2.9461  -2.8581  -2.7960  -2.7579  -2.5836
    -2.5500  -2.4495  -2.4492  -2.4262  -2.4180  -2.3766  -2.3717  -2.2704
    -2.2505  -2.2442  -2.2401  -2.2214  -2.2204  -2.1796  -2.0711  -2.0101
    -2.0036  -1.9875  -1.8705  -1.8626  -1.7887  -1.7387  -1.6584  -1.6270
    -1.5567  -1.4298  -1.4234  -1.2952  -1.2128  -1.1524  -1.1298  -1.1173
    -1.1127  -1.0835  -1.0541  -1.0417  -1.0016  -0.9721  -0.9583  -0.9420
    -0.9362  -0.8413  -0.7679  -0.7355  -0.7316  -0.7106  -0.6914  -0.6657
    -0.6353  -0.6349  -0.6169  -0.5731  -0.5562  -0.5384  -0.5139  -0.4770
    -0.4110  -0.3967  -0.3896  -0.2689  -0.2495  -0.1873  -0.1383  -0.0495
    -0.0124   0.0341   0.0658   0.0849   0.1136   0.1528   0.2108   0.2458
     0.2467   0.2552   0.3210   0.3535   0.3594   0.3857   0.4378   0.5491
     0.5990   0.6114   0.6399   0.6466   0.7316   0.7572   0.8246   0.8345
     0.8913   0.8975   0.9303   0.9425   0.9569   0.9636   0.9813   0.9877
     1.0058   1.0158   1.0911   1.1150   1.1254   1.1597   1.1759   1.1895
     1.2123   1.2337   1.2536   1.2578   1.3015   1.3113   1.3286   1.3350
     1.3459   1.3553   1.4035   1.4048   1.4378   1.4618   1.4645   1.5092
     1.5456   1.5773   1.6323   1.6526   1.6964   1.7178   1.7294   1.7407
     1.8025   1.8183   1.8469   1.8983   1.9043   1.9393   1.9641   2.1267
     2.3868   2.4402   2.6104   2.8235   2.9365   2.9416   2.9757   3.0045
     3.3140   3.3581   3.5472   3.5888   3.6761   3.8972   5.1082   5.6548
     5.9968   6.2691   6.4214   6.4266   6.5098   6.5237   6.6179   6.7839
     6.8796   7.0268   7.1678   7.1899   7.6528   7.8481   7.8729   7.8977
     8.0102   8.0192   8.2132   8.2269   8.2644   8.3418   8.3497   8.4443
     8.4924   8.6068   8.6371   8.6693   8.7034   8.8009   8.8492   8.9078
     9.0034   9.0434

          k = 0.2500 0.7854 0.0000 ( 72314 PWs)   bands (ev):

   -38.2233 -37.9111 -35.8578 -35.5079 -24.3805 -23.9836 -22.8575 -22.8328
   -22.7873 -22.7640 -22.7251 -22.6246 -18.8020 -18.5572 -18.5004 -18.4681
   -18.2663 -18.1244 -17.2382 -17.0866 -17.0370 -16.9016 -16.7606 -16.6550
   -14.9988 -14.9398 -14.8703 -14.8644 -14.8480 -14.8083 -14.7682 -14.6998
   -14.6799 -14.6456 -14.5290 -14.5101 -14.4703 -14.4546 -14.4179 -14.3640
   -14.3236 -14.3206 -14.2999 -14.2071 -14.1247 -14.1026 -14.1003 -14.0849
   -14.0784 -14.0761 -14.0539 -13.9591 -13.7685 -13.5546  -9.9842  -9.7550
    -9.6129  -9.4170  -9.2441  -8.9706  -8.7812  -8.7575  -8.5991  -8.4201
    -8.3977  -8.2784  -8.2550  -8.2262  -8.1989  -8.1713  -8.1694  -8.1530
    -8.1283  -8.1106  -7.9859  -7.8558  -7.8331  -7.6748  -4.0293  -3.8992
    -3.6131  -3.5110  -3.4372  -3.3923  -3.3912  -3.1880  -3.1793  -2.9852
    -2.9852  -2.9386  -2.9381  -2.8414  -2.6929  -2.6685  -2.5409  -2.3844
    -2.3535  -2.3487  -2.2952  -2.2715  -2.2658  -2.2584  -2.2470  -2.2210
    -2.1123  -2.0257  -1.9511  -1.9270  -1.8860  -1.8579  -1.7843  -1.7525
    -1.6605  -1.5301  -1.5195  -1.4193  -1.3904  -1.3689  -1.3532  -1.2937
    -1.2829  -1.2279  -1.2210  -1.2091  -1.1921  -1.1824  -1.1134  -1.0505
    -1.0134  -1.0022  -0.9143  -0.9019  -0.8910  -0.8890  -0.8536  -0.8400
    -0.8187  -0.7744  -0.7483  -0.6987  -0.6542  -0.6496  -0.6389  -0.6035
    -0.5026  -0.4472  -0.3944  -0.3884  -0.3840  -0.2580  -0.0925  -0.0363
    -0.0261   0.0860   0.1075   0.1283   0.1726   0.1829   0.2398   0.2570
     0.3135   0.3341   0.3585   0.4497   0.5209   0.5264   0.5831   0.5942
     0.7703   0.7780   0.8482   0.8524   0.8887   0.9126   0.9673   1.0273
     1.0392   1.0660   1.0718   1.0992   1.1093   1.1261   1.1402   1.1644
     1.1831   1.2110   1.2364   1.2500   1.2765   1.2992   1.3458   1.3745
     1.3808   1.3982   1.4264   1.4335   1.4717   1.4838   1.5563   1.5790
     1.6007   1.6078   1.6263   1.6425   1.6669   1.6969   1.7036   1.7142
     1.7423   1.7545   1.7767   1.8019   1.8785   1.8811   1.8991   1.9339
     2.0191   2.0488   2.0578   2.1474   2.1506   2.2763   2.3052   2.3066
     2.3746   2.4322   2.5933   2.7457   2.7890   2.7924   2.9215   2.9726
     3.6406   3.6949   4.0709   4.1160   4.1585   4.3749   5.0943   5.7394
     6.1328   6.1650   6.1774   6.4134   6.6961   6.8051   6.9599   7.1454
     7.1631   7.2282   7.4486   7.6106   7.8498   7.9329   8.0587   8.1803
     8.2125   8.4591   8.4712   8.5505   8.6430   8.7824   8.7991   8.8444
     8.8921   8.9944   9.0560   9.0710   9.1262   9.1277   9.1840   9.2746
     9.3218   9.3307

          k = 0.2500-1.0472 0.0000 ( 72256 PWs)   bands (ev):

   -38.2206 -37.9083 -35.8561 -35.5062 -24.3609 -23.9645 -22.8321 -22.8073
   -22.7661 -22.7428 -22.7007 -22.6039 -18.8825 -18.5810 -18.5501 -18.4209
   -18.2591 -18.0769 -17.2887 -17.0812 -17.0008 -16.9520 -16.7551 -16.6182
   -15.0184 -14.9594 -14.7907 -14.7830 -14.7253 -14.6980 -14.6979 -14.6846
   -14.6500 -14.6204 -14.6135 -14.5304 -14.5223 -14.5183 -14.3773 -14.3680
   -14.3618 -14.3387 -14.3364 -14.1924 -14.1327 -14.0743 -14.0739 -14.0625
   -14.0608 -14.0606 -13.9708 -13.9056 -13.7793 -13.5547 -10.0827  -9.7287
    -9.7132  -9.4660  -9.2240  -9.0008  -8.8671  -8.8431  -8.6954  -8.5708
    -8.5487  -8.3524  -8.2649  -8.2415  -8.2089  -8.1794  -8.1793  -8.1510
    -8.1253  -8.1165  -7.9730  -7.8960  -7.8736  -7.7030  -4.2276  -4.0992
    -3.8027  -3.7166  -3.6032  -3.5966  -3.5576  -3.3797  -3.3326  -3.2202
    -3.2192  -3.1695  -3.1692  -2.9955  -2.7096  -2.6854  -2.5510  -2.5201
    -2.3751  -2.3677  -2.3576  -2.3064  -2.2673  -2.2621  -2.2574  -2.2420
    -2.1928  -2.0834  -1.9230  -1.8900  -1.8814  -1.8147  -1.7764  -1.7757
    -1.7054  -1.6921  -1.6451  -1.5805  -1.4947  -1.4361  -1.3928  -1.3888
    -1.3063  -1.2901  -1.2564  -1.2485  -1.2467  -1.2457  -1.2166  -1.1213
    -1.0499  -1.0040  -0.9904  -0.9815  -0.9729  -0.9686  -0.9387  -0.9239
    -0.8594  -0.8584  -0.8385  -0.7234  -0.6997  -0.6970  -0.6228  -0.6053
    -0.5044  -0.4542  -0.3880  -0.3678  -0.3644  -0.2742  -0.0960  -0.0354
     0.0042   0.0753   0.1107   0.1253   0.2032   0.2042   0.2277   0.2697
     0.2973   0.3304   0.3488   0.3719   0.4647   0.5993   0.6261   0.7650
     0.8596   0.8608   0.8826   0.9044   0.9231   1.0220   1.0471   1.0499
     1.0642   1.0869   1.1049   1.1367   1.1585   1.1677   1.1986   1.2286
     1.2410   1.2610   1.2767   1.2826   1.3110   1.3619   1.3661   1.3765
     1.4470   1.4743   1.5195   1.5336   1.5752   1.5852   1.6349   1.6423
     1.6689   1.7127   1.7560   1.7649   1.7988   1.8362   1.8433   1.8835
     1.8891   1.9198   1.9754   1.9900   2.0540   2.0567   2.0695   2.0702
     2.0821   2.1383   2.1717   2.2868   2.3247   2.3424   2.3428   2.4157
     2.4667   2.4730   2.4737   2.5635   2.5676   2.6027   2.8001   2.8695
     3.6685   3.7854   4.2226   4.2736   4.3125   4.5197   5.0016   5.8003
     5.9747   5.9854   6.3988   6.4882   6.5819   6.7984   6.8194   7.1746
     7.3515   7.3663   7.4182   7.7968   7.8319   7.9449   8.1120   8.1170
     8.4656   8.4973   8.7811   8.9088   8.9385   8.9513   9.0451   9.0918
     9.1084   9.1370   9.1370   9.2380   9.2494   9.2733   9.3420   9.3517
     9.4307   9.4520

          k = 0.3750 0.0000 0.0000 ( 72350 PWs)   bands (ev):

   -38.2390 -37.9268 -35.8677 -35.5179 -24.4892 -24.0935 -22.9818 -22.9570
   -22.9257 -22.9026 -22.8515 -22.7526 -18.7099 -18.5906 -18.3689 -18.3003
   -18.2422 -17.9384 -17.2327 -17.1479 -16.8976 -16.8565 -16.8248 -16.5588
   -15.4275 -15.3013 -15.2377 -15.2034 -15.1095 -15.0464 -14.9304 -14.8521
   -14.7950 -14.7863 -14.7470 -14.7087 -14.4764 -14.4253 -14.3922 -14.3280
   -14.2709 -14.2099 -14.2072 -14.2036 -14.1953 -14.1916 -14.1794 -14.1729
   -14.1292 -14.1202 -14.0409 -13.9328 -13.7359 -13.5055  -9.8730  -9.4333
    -9.1992  -9.1567  -8.8990  -8.8752  -8.2667  -8.2376  -8.1791  -8.1602
    -8.1392  -8.0985  -7.9794  -7.9577  -7.8862  -7.8636  -7.8614  -7.8373
    -7.7866  -7.7634  -7.7403  -7.7110  -7.6890  -7.5946  -2.8966  -2.8516
    -2.7679  -2.5202  -2.4880  -2.4219  -2.3314  -2.3165  -2.2988  -2.2671
    -2.2271  -2.2024  -2.1842  -2.1764  -2.1085  -2.0311  -1.9218  -1.9180
    -1.8896  -1.8561  -1.8325  -1.8022  -1.7046  -1.7032  -1.7022  -1.6342
    -1.4782  -1.4448  -1.3201  -1.2503  -1.2074  -1.1718  -1.1586  -1.1482
    -1.1147  -1.1132  -1.1111  -1.1097  -1.0549  -1.0314  -1.0250  -0.9868
    -0.9817  -0.9176  -0.8751  -0.8639  -0.7972  -0.7279  -0.7213  -0.6946
    -0.6864  -0.6653  -0.6158  -0.5898  -0.5421  -0.5418  -0.4951  -0.4901
    -0.4597  -0.4324  -0.4072  -0.3367  -0.3314  -0.2941  -0.2691  -0.2257
    -0.1899  -0.1800  -0.1707  -0.1706  -0.1674  -0.1552  -0.1393  -0.1149
    -0.0814  -0.0659   0.0415   0.0503   0.0840   0.0856   0.0979   0.0994
     0.1689   0.1885   0.1970   0.2021   0.2148   0.2332   0.2775   0.3122
     0.3275   0.3307   0.3413   0.3752   0.3965   0.4065   0.4326   0.4821
     0.5587   0.5617   0.6511   0.6562   0.6704   0.7236   0.7281   0.7312
     0.7397   0.7830   0.8166   0.8692   0.8759   0.8897   0.9041   0.9509
     0.9989   1.0321   1.0682   1.1239   1.1290   1.1570   1.1904   1.2056
     1.2121   1.2353   1.2471   1.2888   1.3258   1.3423   1.3468   1.3801
     1.4312   1.4495   1.4886   1.5063   1.5545   1.6222   1.6731   1.6781
     1.6892   1.7284   1.7753   1.7772   1.8116   1.8160   1.8425   1.8480
     1.9402   2.0263   2.0994   2.1069   2.1790   2.2561   2.3087   2.4079
     2.4472   2.5111   2.5129   2.5526   2.6466   2.6923   4.7386   5.2861
     5.4716   5.4769   5.5503   6.0315   6.0348   6.0458   6.1324   6.2871
     6.6172   6.7454   6.9595   7.0072   7.0388   7.3530   7.4934   7.5919
     7.6779   7.7088   7.9097   7.9954   7.9959   8.1426   8.2009   8.2622
     8.2978   8.3665   8.4046   8.4126   8.4752   8.5444   8.7542   8.7870
     8.9040   8.9052

          k = 0.3750 0.2618 0.0000 ( 72342 PWs)   bands (ev):

   -38.2363 -37.9241 -35.8660 -35.5162 -24.4707 -24.0753 -22.9589 -22.9341
   -22.9047 -22.8816 -22.8291 -22.7324 -18.6714 -18.5836 -18.3531 -18.3303
   -18.2932 -18.0494 -17.2025 -17.1404 -16.9631 -16.8259 -16.8168 -16.6244
   -15.3244 -15.2403 -15.1861 -15.1198 -15.0591 -15.0048 -14.8675 -14.8308
   -14.7576 -14.7544 -14.7135 -14.6863 -14.4238 -14.3844 -14.3458 -14.3152
   -14.2821 -14.2662 -14.2230 -14.2084 -14.1913 -14.1844 -14.1793 -14.1677
   -14.1561 -14.1191 -14.0552 -13.9726 -13.7637 -13.5163  -9.8516  -9.4427
    -9.3831  -9.2654  -8.9173  -8.8679  -8.2667  -8.2395  -8.2114  -8.1876
    -8.1841  -8.1591  -8.1347  -8.1011  -8.0750  -8.0515  -7.9504  -7.9291
    -7.7825  -7.7593  -7.7513  -7.7285  -7.6171  -7.5938  -2.9911  -2.9228
    -2.8111  -2.6358  -2.5804  -2.5145  -2.3715  -2.3411  -2.3198  -2.3115
    -2.2780  -2.2722  -2.2614  -2.2346  -2.2123  -2.2021  -2.1877  -2.1724
    -2.1561  -2.1230  -2.0276  -2.0209  -1.8244  -1.8130  -1.7800  -1.6141
    -1.5886  -1.5530  -1.5517  -1.5437  -1.5418  -1.5311  -1.4431  -1.4356
    -1.3188  -1.2548  -1.2457  -1.1965  -1.1067  -1.0950  -1.0237  -1.0186
    -0.9541  -0.9292  -0.8913  -0.8875  -0.8760  -0.8418  -0.8230  -0.8163
    -0.7797  -0.7569  -0.7417  -0.6966  -0.6603  -0.6040  -0.5596  -0.5210
    -0.5108  -0.4176  -0.3919  -0.3820  -0.3410  -0.3187  -0.2834  -0.2640
    -0.2296  -0.2158  -0.2004  -0.1610  -0.1096  -0.0991  -0.0526  -0.0401
    -0.0088  -0.0025   0.0303   0.0374   0.0481   0.0883   0.1275   0.1698
     0.1980   0.2270   0.2281   0.2367   0.2490   0.2555   0.3007   0.3210
     0.3447   0.3762   0.3819   0.4117   0.4412   0.4563   0.4858   0.4964
     0.5709   0.5846   0.6601   0.7597   0.7877   0.8076   0.8517   0.8572
     0.8816   0.8839   0.9154   0.9353   0.9690   0.9760   0.9869   1.0366
     1.0696   1.0897   1.0929   1.1051   1.1256   1.1465   1.1602   1.1796
     1.1988   1.2157   1.2432   1.3166   1.3478   1.3583   1.3786   1.3955
     1.4312   1.4696   1.4888   1.4992   1.5639   1.6025   1.6062   1.6145
     1.6357   1.6426   1.6900   1.7420   1.8197   1.8336   1.8974   2.1094
     2.3472   2.4031   2.5485   2.5993   2.6453   2.6537   2.6993   2.7500
     2.7554   2.7885   2.8368   2.8451   2.9202   3.1099   4.8865   5.4251
     5.7685   5.7762   5.7967   6.0786   6.2389   6.2440   6.3443   6.4334
     6.7090   6.8216   7.1163   7.2755   7.2971   7.4143   7.5347   7.6904
     7.7427   7.7709   7.9058   7.9062   8.0199   8.1118   8.1920   8.2273
     8.3358   8.3945   8.4499   8.4943   8.5183   8.5990   8.6689   8.7766
     8.8681   8.9622

          k = 0.3750 0.5236 0.0000 ( 72253 PWs)   bands (ev):

   -38.2298 -37.9176 -35.8619 -35.5120 -24.4255 -24.0306 -22.9028 -22.8779
   -22.8530 -22.8300 -22.7743 -22.6829 -18.5932 -18.5722 -18.5667 -18.2922
   -18.2760 -18.2282 -17.1282 -17.1235 -17.1054 -16.7998 -16.7769 -16.7396
   -15.0981 -15.0736 -15.0469 -14.9611 -14.9463 -14.9051 -14.8113 -14.7200
   -14.7021 -14.6631 -14.6501 -14.6162 -14.4256 -14.3390 -14.3385 -14.3073
   -14.2946 -14.2941 -14.2813 -14.2237 -14.2094 -14.1490 -14.1461 -14.1339
   -14.1322 -14.1042 -14.0977 -14.0533 -13.7793 -13.5373  -9.8024  -9.6923
    -9.5613  -9.3067  -9.1118  -8.9164  -8.5032  -8.4800  -8.3656  -8.3427
    -8.3223  -8.2143  -8.1895  -8.1858  -8.1469  -8.1291  -8.1225  -8.0178
    -7.9602  -7.9374  -7.8106  -7.8089  -7.7866  -7.6388  -3.4033  -3.2834
    -3.1090  -3.0570  -3.0226  -2.9398  -2.8644  -2.8272  -2.6245  -2.5508
    -2.5206  -2.4662  -2.4437  -2.4279  -2.4209  -2.3697  -2.3620  -2.2989
    -2.2807  -2.2696  -2.2453  -2.2161  -2.2124  -2.1601  -2.1481  -2.1473
    -2.1112  -1.8742  -1.8172  -1.7980  -1.7702  -1.7236  -1.6817  -1.6214
    -1.5708  -1.4903  -1.4317  -1.3706  -1.3194  -1.2753  -1.2534  -1.1747
    -1.1436  -1.1183  -1.0792  -1.0607  -1.0233  -0.9954  -0.9942  -0.9504
    -0.9297  -0.8794  -0.8184  -0.7815  -0.7360  -0.7337  -0.6903  -0.6606
    -0.6178  -0.6135  -0.6082  -0.5735  -0.5551  -0.5433  -0.5384  -0.4526
    -0.4004  -0.3608  -0.3409  -0.3157  -0.2620  -0.2418  -0.2059  -0.0638
    -0.0406  -0.0083   0.0498   0.0694   0.1475   0.1651   0.2110   0.2435
     0.2947   0.3033   0.3522   0.3815   0.4030   0.4077   0.4544   0.5205
     0.5976   0.6432   0.6842   0.7282   0.7676   0.7839   0.8138   0.8273
     0.8645   0.9143   0.9191   0.9308   0.9387   0.9392   0.9623   0.9679
     0.9786   1.0178   1.0727   1.1196   1.1514   1.1614   1.1834   1.1901
     1.2101   1.2437   1.2603   1.2669   1.2787   1.2873   1.3484   1.3588
     1.3641   1.4103   1.4164   1.4171   1.4280   1.4458   1.4840   1.4914
     1.5156   1.5334   1.6364   1.6395   1.6980   1.7265   1.7618   1.7698
     1.8129   1.8271   1.8462   1.8569   1.8616   1.8906   1.9858   2.0663
     2.7391   2.7764   2.8888   2.9398   2.9428   2.9738   3.0226   3.2105
     3.3160   3.3425   3.3804   3.4138   3.5145   3.7436   5.2351   5.7396
     5.8427   6.2623   6.4697   6.4774   6.5235   6.5362   6.6602   6.8230
     6.9602   7.0726   7.2208   7.2735   7.6108   7.9076   7.9211   8.0272
     8.0477   8.0540   8.0955   8.1692   8.2119   8.2350   8.2701   8.3402
     8.4866   8.6072   8.6633   8.6929   8.7483   8.8395   8.8503   8.9343
     8.9663   9.0313

          k = 0.3750 0.7854 0.0000 ( 72298 PWs)   bands (ev):

   -38.2233 -37.9111 -35.8578 -35.5079 -24.3793 -23.9849 -22.8453 -22.8202
   -22.7999 -22.7770 -22.7179 -22.6321 -18.8019 -18.5497 -18.5003 -18.4668
   -18.2588 -18.1230 -17.2381 -17.1087 -17.0422 -16.9016 -16.7836 -16.6606
   -14.9482 -14.8981 -14.8639 -14.8524 -14.8415 -14.8048 -14.7917 -14.6780
   -14.6281 -14.6220 -14.5324 -14.5305 -14.4759 -14.4411 -14.4331 -14.4094
   -14.3416 -14.3197 -14.2928 -14.2256 -14.1249 -14.0976 -14.0971 -14.0880
   -14.0829 -14.0744 -14.0681 -14.0116 -13.7617 -13.5586  -9.9043  -9.7535
    -9.6439  -9.4169  -9.2404  -9.0399  -8.6999  -8.6763  -8.5203  -8.4274
    -8.4042  -8.2749  -8.2522  -8.2470  -8.1900  -8.1727  -8.1618  -8.1595
    -8.1355  -8.0893  -7.9870  -7.9607  -7.9381  -7.7716  -3.8876  -3.7659
    -3.5460  -3.5055  -3.4680  -3.4612  -3.3920  -3.2327  -3.0839  -2.9749
    -2.9745  -2.9492  -2.9481  -2.8749  -2.6136  -2.5874  -2.4725  -2.3924
    -2.3769  -2.3182  -2.2615  -2.2542  -2.2493  -2.2393  -2.1326  -2.1245
    -2.1050  -2.0972  -2.0848  -2.0084  -1.9399  -1.8302  -1.7598  -1.7549
    -1.7304  -1.6521  -1.6423  -1.5814  -1.5743  -1.4724  -1.3688  -1.3540
    -1.3309  -1.2573  -1.2423  -1.2172  -1.2138  -1.1774  -1.1597  -1.0522
    -1.0324  -0.9659  -0.9087  -0.9075  -0.8643  -0.8377  -0.8291  -0.8119
    -0.7934  -0.7772  -0.7414  -0.6974  -0.6662  -0.6477  -0.6313  -0.6210
    -0.4913  -0.4485  -0.4424  -0.3828  -0.3697  -0.3083  -0.1242  -0.0872
    -0.0369   0.0630   0.0959   0.1418   0.1777   0.2436   0.2608   0.3526
     0.3806   0.3987   0.4422   0.4716   0.4996   0.5108   0.6822   0.6865
     0.7552   0.8305   0.8363   0.8758   0.8771   0.9017   0.9333   1.0071
     1.0209   1.0235   1.0643   1.1294   1.1467   1.1651   1.1771   1.2084
     1.2358   1.2506   1.2750   1.2810   1.2831   1.3066   1.3106   1.3458
     1.3503   1.3596   1.3718   1.3845   1.4190   1.4857   1.5220   1.5425
     1.5529   1.5715   1.6143   1.6163   1.6554   1.6610   1.6820   1.7173
     1.7279   1.7515   1.7628   1.8128   1.8164   1.8529   1.8693   1.8748
     2.0251   2.0514   2.0654   2.1846   2.1867   2.1871   2.2704   2.2719
     2.7259   2.7356   2.7936   2.7998   2.9039   3.0000   3.1336   3.3080
     3.6475   3.6942   3.7714   3.8148   3.8855   4.0979   5.2794   5.7528
     5.9599   6.3864   6.3956   6.4214   6.7837   6.8509   6.9557   6.9738
     7.0368   7.1750   7.4034   7.5089   7.6612   7.8972   8.0013   8.2127
     8.2770   8.4920   8.5083   8.5784   8.6232   8.7464   8.7529   8.8278
     8.8918   8.9951   9.0439   9.1445   9.1889   9.2812   9.3110   9.3326
     9.3501   9.3871

          k = 0.3750-1.0472 0.0000 ( 72290 PWs)   bands (ev):

   -38.2206 -37.9083 -35.8561 -35.5062 -24.3599 -23.9657 -22.8210 -22.7958
   -22.7774 -22.7546 -22.6942 -22.6107 -18.8824 -18.5809 -18.5427 -18.4198
   -18.2517 -18.0757 -17.2887 -17.1026 -17.0056 -16.9520 -16.7773 -16.6235
   -14.9704 -14.9070 -14.8246 -14.7673 -14.7388 -14.7119 -14.6854 -14.6799
   -14.6071 -14.5897 -14.5549 -14.5191 -14.5142 -14.5030 -14.4283 -14.4109
   -14.4083 -14.3343 -14.3322 -14.2353 -14.1179 -14.0713 -14.0711 -14.0710
   -14.0641 -14.0638 -13.9848 -13.9471 -13.7650 -13.5711  -9.9588  -9.7280
    -9.6250  -9.5902  -9.2232  -9.1095  -8.7357  -8.7117  -8.5722  -8.4327
    -8.4105  -8.4076  -8.3843  -8.2471  -8.2314  -8.1932  -8.1764  -8.1658
    -8.1646  -8.1412  -8.0628  -8.0403  -7.9750  -7.8538  -4.0844  -3.9660
    -3.7318  -3.6937  -3.6650  -3.6303  -3.5905  -3.3927  -3.2773  -3.2091
    -3.2083  -3.1811  -3.1797  -3.0352  -2.6184  -2.5927  -2.4707  -2.4019
    -2.3934  -2.3818  -2.3209  -2.2605  -2.2463  -2.2432  -2.2376  -2.1230
    -2.1144  -2.0703  -2.0611  -1.9788  -1.9711  -1.9409  -1.8956  -1.8646
    -1.8262  -1.6954  -1.6857  -1.6682  -1.5853  -1.5306  -1.4551  -1.4401
    -1.4058  -1.3722  -1.2956  -1.2808  -1.2806  -1.2572  -1.2056  -1.0491
    -1.0298  -1.0019  -0.9827  -0.9684  -0.9164  -0.9001  -0.8960  -0.8777
    -0.8753  -0.8487  -0.7837  -0.7153  -0.7038  -0.6969  -0.6436  -0.6074
[...]
    -2.1832  -2.0919  -2.0910  -2.0419  -1.9150  -1.8116  -1.7884  -1.6115
    -1.5754  -1.5513  -1.5483  -1.5477  -1.5431  -1.5026  -1.4681  -1.4247
    -1.2235  -1.1951  -1.1745  -1.1580  -1.1210  -1.0753  -1.0682  -1.0335
    -1.0203  -0.9852  -0.9836  -0.9246  -0.9120  -0.8592  -0.8287  -0.7602
    -0.7533  -0.7275  -0.7076  -0.7025  -0.6923  -0.6798  -0.6166  -0.5301
    -0.5106  -0.4008  -0.3985  -0.3719  -0.3248  -0.3225  -0.2773  -0.2657
    -0.2547  -0.2180  -0.1855  -0.1601  -0.1530  -0.0951  -0.0423  -0.0376
    -0.0150  -0.0092   0.0446   0.0543   0.0645   0.0674   0.0915   0.1713
     0.2033   0.2382   0.2431   0.2434   0.2682   0.2868   0.3171   0.3217
     0.3302   0.3337   0.3674   0.4306   0.4592   0.4791   0.4963   0.5172
     0.5634   0.6092   0.6324   0.7597   0.7934   0.8005   0.8073   0.8697
     0.8873   0.8949   0.9080   0.9212   0.9325   0.9659   0.9736   1.0419
     1.0620   1.1083   1.1194   1.1437   1.1453   1.1608   1.1630   1.1711
     1.1991   1.2196   1.2653   1.3011   1.3075   1.3300   1.3928   1.4096
     1.4224   1.4282   1.4439   1.4582   1.5775   1.6158   1.6283   1.6302
     1.6514   1.6558   1.7074   1.7198   1.7488   1.8333   1.8990   2.0998
     2.4476   2.4973   2.5535   2.6151   2.6633   2.6765   2.6870   2.7687
     2.7698   2.7746   2.8090   2.8488   2.9528   3.0562   4.9941   5.3045
     5.9695   5.9798   5.9839   5.9973   6.0030   6.0353   6.2725   6.5289
     6.7453   6.9162   6.9743   7.2755   7.5582   7.5908   7.6110   7.6339
     7.6440   7.6453   7.8129   7.8838   7.9455   8.0590   8.1460   8.2502
     8.3411   8.4650   8.5098   8.5258   8.5812   8.6561   8.7442   8.7678
     8.8491   8.9131

          k =-0.5000 0.5236 0.0000 ( 72270 PWs)   bands (ev):

   -38.2298 -37.9176 -35.8619 -35.5120 -24.4249 -24.0313 -22.8927 -22.8670
   -22.8633 -22.8411 -22.7700 -22.6873 -18.5931 -18.5716 -18.5634 -18.2921
   -18.2728 -18.2276 -17.1337 -17.1298 -17.1058 -16.8098 -16.7776 -16.7417
   -15.0608 -15.0600 -15.0384 -14.9580 -14.9290 -14.9091 -14.8069 -14.7455
   -14.6912 -14.6707 -14.6530 -14.6309 -14.4271 -14.3519 -14.3101 -14.3077
   -14.3061 -14.2866 -14.2831 -14.2265 -14.2007 -14.1576 -14.1471 -14.1420
   -14.1346 -14.1171 -14.1032 -14.0532 -13.7771 -13.5355  -9.8015  -9.6680
    -9.6178  -9.3064  -9.0739  -8.9248  -8.4692  -8.4458  -8.4401  -8.4175
    -8.2893  -8.2544  -8.2137  -8.1852  -8.1463  -8.1347  -8.1219  -8.0179
    -7.8703  -7.8593  -7.8476  -7.8361  -7.7463  -7.6648  -3.2786  -3.2002
    -3.1538  -3.1150  -2.9748  -2.9253  -2.8779  -2.8617  -2.5338  -2.5135
    -2.4999  -2.4903  -2.4735  -2.4455  -2.3718  -2.3636  -2.3475  -2.3379
    -2.3313  -2.3247  -2.2396  -2.2110  -2.2049  -2.2011  -2.1858  -2.1813
    -2.0374  -1.9400  -1.8513  -1.7705  -1.6629  -1.6544  -1.6109  -1.5859
    -1.5544  -1.5322  -1.4975  -1.4846  -1.4562  -1.4123  -1.1792  -1.1695
    -1.1561  -1.1161  -1.1042  -1.0778  -1.0416  -1.0105  -0.9862  -0.9698
    -0.9602  -0.8485  -0.8363  -0.7839  -0.7745  -0.7341  -0.6898  -0.6617
    -0.6070  -0.5963  -0.5886  -0.5851  -0.5809  -0.5503  -0.4873  -0.4625
    -0.4165  -0.3749  -0.3210  -0.2855  -0.2839  -0.2541  -0.1822  -0.1561
    -0.0503  -0.0421   0.0411   0.0644   0.1500   0.1850   0.2217   0.3063
     0.3098   0.3433   0.3434   0.3441   0.4477   0.4563   0.4651   0.4783
     0.6071   0.6661   0.6811   0.7814   0.7852   0.7950   0.8344   0.8384
     0.8453   0.8831   0.8915   0.9193   0.9229   0.9279   0.9296   0.9445
     0.9963   1.0097   1.0909   1.1016   1.1558   1.1794   1.1848   1.2138
     1.2165   1.2274   1.2415   1.2904   1.2966   1.2981   1.3205   1.3642
     1.3696   1.3713   1.4145   1.4250   1.4265   1.4316   1.4619   1.5561
     1.5770   1.5878   1.6000   1.6266   1.6383   1.7414   1.7541   1.8077
     1.8088   1.8157   1.8202   1.8287   1.8610   1.8903   2.0036   2.0338
     2.9067   2.9148   2.9369   2.9435   3.0818   3.1313   3.1322   3.1936
     3.2179   3.3127   3.3256   3.3612   3.4706   3.5471   5.3139   5.6843
     5.8647   6.2309   6.4970   6.5084   6.5233   6.5326   6.7058   6.8233
     7.0155   7.0703   7.2418   7.3237   7.5931   7.8798   7.9243   8.0262
     8.0397   8.1507   8.1543   8.1731   8.1736   8.1835   8.2147   8.2527
     8.5546   8.6514   8.6716   8.7141   8.7714   8.7886   8.8794   8.8952
     8.9389   8.9886

          k =-0.5000 0.7854 0.0000 ( 72274 PWs)   bands (ev):

   -38.2233 -37.9111 -35.8578 -35.5079 -24.3788 -23.9855 -22.8374 -22.8116
   -22.8079 -22.7857 -22.7146 -22.6356 -18.8019 -18.5466 -18.5002 -18.4663
   -18.2557 -18.1225 -17.2381 -17.1178 -17.0443 -16.9016 -16.7930 -16.6629
   -14.9072 -14.8794 -14.8616 -14.8536 -14.8515 -14.8477 -14.7471 -14.6598
   -14.6177 -14.5875 -14.5818 -14.5412 -14.4634 -14.4484 -14.4336 -14.3961
   -14.3802 -14.3170 -14.2669 -14.2502 -14.1244 -14.0941 -14.0935 -14.0915
   -14.0863 -14.0733 -14.0698 -14.0401 -13.7588 -13.5605  -9.8350  -9.7421
    -9.7283  -9.3817  -9.2329  -9.0850  -8.5959  -8.5716  -8.5573  -8.5348
    -8.4404  -8.3487  -8.1934  -8.1795  -8.1692  -8.1652  -8.1544  -8.0994
    -8.0988  -8.0767  -8.0757  -8.0101  -7.9699  -7.8573  -3.7893  -3.6742
    -3.6126  -3.5253  -3.4875  -3.4364  -3.3629  -3.2864  -3.0262  -2.9636
    -2.9623  -2.9614  -2.9585  -2.9034  -2.5338  -2.5103  -2.4536  -2.4248
    -2.3990  -2.3595  -2.2415  -2.2235  -2.2146  -2.2145  -2.1911  -2.1827
    -2.0969  -1.9935  -1.9895  -1.9727  -1.9649  -1.9112  -1.8952  -1.8623
    -1.7654  -1.7606  -1.6305  -1.5662  -1.5242  -1.5194  -1.4287  -1.3772
    -1.3518  -1.3395  -1.2521  -1.2188  -1.2124  -1.1836  -1.1401  -1.0530
    -1.0015  -0.9161  -0.9028  -0.8972  -0.8882  -0.8464  -0.8220  -0.8065
    -0.7918  -0.7880  -0.6944  -0.6830  -0.6612  -0.6564  -0.6427  -0.6116
    -0.4889  -0.4835  -0.4793  -0.4463  -0.2599  -0.2406  -0.2143  -0.2030
     0.0407   0.0622   0.0706   0.0831   0.2307   0.2717   0.3306   0.3451
     0.3495   0.3902   0.4321   0.5297   0.5932   0.5995   0.6054   0.6929
     0.8009   0.8240   0.8602   0.9061   0.9174   0.9421   0.9476   0.9665
     0.9679   0.9681   1.0064   1.1371   1.1685   1.1946   1.2047   1.2236
     1.2538   1.2575   1.2589   1.2744   1.2966   1.3070   1.3169   1.3435
     1.3532   1.3574   1.3870   1.4110   1.4352   1.4560   1.4630   1.4918
     1.5060   1.5979   1.6011   1.6149   1.6394   1.6514   1.6954   1.7105
     1.7200   1.7213   1.7494   1.7836   1.8172   1.8250   1.8594   1.8617
     2.0256   2.0448   2.0880   2.1337   2.2228   2.2246   2.2330   2.2347
     2.7742   2.7795   2.7990   2.8048   3.3217   3.3677   3.3922   3.4468
     3.5103   3.5167   3.6798   3.7072   3.7294   3.7302   5.4211   5.6870
     5.8951   6.3834   6.6424   6.6574   6.6748   6.7007   6.8825   6.9284
     7.0843   7.1283   7.4203   7.4399   7.5486   7.8881   7.9905   8.2365
     8.3036   8.5391   8.5702   8.5790   8.6571   8.6600   8.6652   8.8279
     8.9493   8.9624   8.9876   9.1623   9.1853   9.3668   9.3799   9.4011
     9.4391   9.4882

          k =-0.5000-1.0472 0.0000 ( 72268 PWs)   bands (ev):

   -38.2206 -37.9083 -35.8561 -35.5062 -24.3595 -23.9663 -22.8141 -22.7883
   -22.7845 -22.7622 -22.6912 -22.6139 -18.8824 -18.5808 -18.5396 -18.4193
   -18.2486 -18.0752 -17.2887 -17.1114 -17.0076 -16.9520 -16.7864 -16.6256
   -14.9325 -14.8629 -14.8475 -14.8332 -14.7356 -14.7098 -14.6808 -14.6316
   -14.5855 -14.5759 -14.5202 -14.5109 -14.5050 -14.4973 -14.4690 -14.4527
   -14.4365 -14.3309 -14.3115 -14.2645 -14.1072 -14.0792 -14.0682 -14.0679
   -14.0674 -14.0671 -13.9856 -13.9712 -13.7583 -13.5786  -9.8683  -9.7277
    -9.6808  -9.5756  -9.2209  -9.1693  -8.5993  -8.5742  -8.5486  -8.5264
    -8.4637  -8.3587  -8.2742  -8.2507  -8.2505  -8.2292  -8.1812  -8.1723
    -8.1672  -8.1447  -8.1441  -8.1268  -7.9748  -7.9669  -3.9902  -3.8797
    -3.7784  -3.6918  -3.6902  -3.6452  -3.5541  -3.4460  -3.2241  -3.1965
    -3.1952  -3.1944  -3.1874  -3.0662  -2.5394  -2.5183  -2.4300  -2.4050
    -2.4035  -2.3347  -2.3086  -2.2328  -2.2001  -2.1821  -2.1780  -2.1484
    -2.1376  -2.1235  -2.1135  -2.0687  -2.0531  -2.0457  -1.8995  -1.8706
    -1.8615  -1.8275  -1.6622  -1.6230  -1.6064  -1.5655  -1.5200  -1.4422
    -1.4389  -1.4081  -1.3094  -1.2861  -1.2800  -1.2652  -1.1743  -1.0639
    -1.0060  -0.9874  -0.9780  -0.9050  -0.9026  -0.9006  -0.8881  -0.8739
    -0.8632  -0.8614  -0.7238  -0.7121  -0.7079  -0.6903  -0.6472  -0.5976
    -0.5279  -0.5220  -0.4990  -0.4674  -0.2627  -0.2158  -0.2111  -0.1992
     0.0540   0.1032   0.1262   0.1292   0.3319   0.3411   0.3412   0.3539
     0.3993   0.4265   0.4440   0.5776   0.5992   0.6350   0.6783   0.7127
     0.7691   0.7724   0.8946   0.9613   0.9756   1.0112   1.0121   1.0330
     1.0649   1.0788   1.0969   1.1598   1.2142   1.2157   1.2165   1.2358
     1.2744   1.2912   1.3029   1.3406   1.3452   1.3585   1.3610   1.3716
     1.3918   1.4204   1.4570   1.4582   1.4678   1.4696   1.5058   1.5103
     1.6293   1.6796   1.6948   1.7020   1.7308   1.7483   1.7575   1.7705
     1.7845   1.8663   1.9325   1.9979   2.0419   2.0448   2.0543   2.0545
     2.0569   2.1354   2.2087   2.2487   2.4023   2.4028   2.4112   2.4125
     2.5718   2.5771   2.5864   2.5922   3.3348   3.4061   3.4214   3.5150
     3.5185   3.5937   3.7387   3.7421   3.7853   3.8167   5.2908   5.5611
     6.3667   6.5850   6.5963   6.6222   6.6267   6.6742   6.7930   6.8234
     6.9370   6.9630   7.3276   7.4538   7.5014   7.7514   8.1399   8.2952
     8.2985   8.5361   8.8321   9.0214   9.0857   9.1250   9.2190   9.2519
     9.2842   9.2877   9.3099   9.3555   9.4935   9.5182   9.5857   9.5915
     9.6147   9.6487

     the Fermi energy is     2.5830 ev

!    total energy              =   -3711.61662244 Ry
     Harris-Foulkes estimate   =   -3711.61662245 Ry
     estimated scf accuracy    <          5.8E-09 Ry

     The total energy is the sum of the following terms:

     one-electron contribution =  -55952.77792528 Ry
     hartree contribution      =   28279.29792201 Ry
     xc contribution           =   -1263.75508898 Ry
     ewald contribution        =   25225.63272526 Ry
     smearing contrib. (-TS)   =      -0.01425546 Ry

     convergence has been achieved in  35 iterations

     negative rho (up, down):  9.221E-02 0.000E+00

     Forces acting on atoms (cartesian axes, Ry/au):

     atom    1 type  4   force =    -0.00000949    0.00000000   -0.00010145
     atom    2 type  4   force =     0.00000949    0.00000000   -0.00010145
     atom    3 type  3   force =    -0.00001003    0.00000000   -0.00004451
     atom    4 type  3   force =     0.00001003    0.00000000   -0.00004451
     atom    5 type  4   force =     0.00000372    0.00000000   -0.00003407
     atom    6 type  4   force =    -0.00000372    0.00000000   -0.00003407
     atom    7 type  1   force =     0.00000000    0.00000000   -0.00019319
     atom    8 type  1   force =     0.00000000    0.00000000   -0.00017842
     atom    9 type  3   force =     0.00004713    0.00000000   -0.00002501
     atom   10 type  3   force =    -0.00004713    0.00000000   -0.00002501
     atom   11 type  4   force =     0.00000000    0.00000000    0.00025996
     atom   12 type  4   force =     0.00000595    0.00000000    0.00026561
     atom   13 type  4   force =    -0.00000595    0.00000000    0.00026561
     atom   14 type  4   force =     0.00000000    0.00000000    0.00040507
     atom   15 type  2   force =     0.00000000    0.00000000   -0.00104944
     atom   16 type  5   force =     0.00000000    0.00000000   -0.00160601
     atom   17 type  4   force =     0.00018074    0.00000000    0.00185431
     atom   18 type  4   force =    -0.00018074    0.00000000    0.00185431
     atom   19 type  4   force =     0.00000000    0.00000000    0.00212055
     atom   20 type  4   force =     0.00000000    0.00000000    0.00263335
     atom   21 type  3   force =    -0.00012738    0.00000000   -0.00216675
     atom   22 type  3   force =     0.00012738    0.00000000   -0.00216675
     atom   23 type  1   force =     0.00000000    0.00000000   -0.00635361
     atom   24 type  1   force =     0.00000000    0.00000000   -0.00725486
     atom   25 type  4   force =    -0.00095387    0.00000000    0.00641123
     atom   26 type  4   force =     0.00095387    0.00000000    0.00641123
     atom   27 type  4   force =    -0.00030794    0.00000000    0.01582100
     atom   28 type  4   force =     0.00030794    0.00000000    0.01582100
     atom   29 type  3   force =     0.00329667    0.00000000   -0.01604001
     atom   30 type  3   force =    -0.00329667    0.00000000   -0.01604001
     atom   31 type  4   force =    -0.01010885    0.00000000    0.03121574
     atom   32 type  4   force =     0.01010885    0.00000000    0.03121574
     atom   33 type  1   force =     0.00000000    0.00000000   -0.03008656
     atom   34 type  1   force =     0.00000000    0.00000000   -0.01693978
     atom   35 type  3   force =    -0.00926596    0.00000000   -0.00301062
     atom   36 type  3   force =     0.00926596    0.00000000   -0.00301062
     atom   37 type  4   force =     0.00000000    0.00000000    0.00996670
     atom   38 type  4   force =     0.00000000    0.00000000    0.01478002
     atom   39 type  4   force =     0.00209948    0.00000000    0.00722981
     atom   40 type  4   force =    -0.00209948    0.00000000    0.00722981
     atom   41 type  5   force =     0.00000000    0.00000000   -0.03760512
     atom   42 type  2   force =     0.00000000    0.00000000   -0.02917348
     atom   43 type  4   force =     0.00000000    0.00000000    0.00574810
     atom   44 type  4   force =     0.00045314    0.00000000    0.00286625
     atom   45 type  4   force =    -0.00045314    0.00000000    0.00286625
     atom   46 type  4   force =     0.00000000    0.00000000    0.00420933
     atom   47 type  3   force =     0.00055604    0.00000000    0.00115026
     atom   48 type  3   force =    -0.00055604    0.00000000    0.00115026
     atom   49 type  1   force =     0.00000000    0.00000000   -0.00090288
     atom   50 type  1   force =     0.00000000    0.00000000   -0.00106512
     atom   51 type  4   force =     0.00007714    0.00000000    0.00079071
     atom   52 type  4   force =    -0.00007714    0.00000000    0.00079071
     atom   53 type  3   force =    -0.00004550    0.00000000   -0.00028929
     atom   54 type  3   force =     0.00004550    0.00000000   -0.00028929
     atom   55 type  4   force =     0.00000226    0.00000000    0.00024950
     atom   56 type  4   force =    -0.00000226    0.00000000    0.00024950

     Total force =     0.086903     Total SCF correction =     0.000418


     Computing stress (Cartesian axis) and pressure


     negative rho (up, down):  9.221E-02 0.000E+00
          total   stress  (Ry/bohr**3)                   (kbar)     P=       -7.16
  -0.00007907   0.00000000   0.00000000          -11.63        0.00        0.00
   0.00000000  -0.00003747   0.00000000            0.00       -5.51        0.00
   0.00000000   0.00000000  -0.00002939            0.00        0.00       -4.32

 
     init_run     :     28.22s CPU     29.20s WALL (       1 calls)
     electrons    :   1934.63s CPU   2012.94s WALL (       1 calls)
     forces       :     11.84s CPU     12.50s WALL (       1 calls)
     stress       :    103.75s CPU    105.57s WALL (       1 calls)

     Called by init_run:
     wfcinit      :     23.30s CPU     23.64s WALL (       1 calls)
     potinit      :      1.05s CPU      1.07s WALL (       1 calls)
     hinit0       :      1.76s CPU      1.79s WALL (       1 calls)

     Called by electrons:
     c_bands      :   1603.01s CPU   1641.26s WALL (      35 calls)
     sum_band     :    253.36s CPU    275.78s WALL (      35 calls)
     v_of_rho     :      4.21s CPU      4.28s WALL (      36 calls)
     newd         :     37.60s CPU     55.33s WALL (      36 calls)
     mix_rho      :     37.36s CPU     37.67s WALL (      35 calls)

     Called by c_bands:
     init_us_2    :      8.38s CPU      8.47s WALL (    1825 calls)
     cegterg      :   1534.64s CPU   1571.72s WALL (     875 calls)

     Called by sum_band:
     sum_band:bec :      0.95s CPU      0.95s WALL (     875 calls)
     addusdens    :     32.55s CPU     52.60s WALL (      35 calls)

     Called by *egterg:
     h_psi        :    768.48s CPU    782.61s WALL (    4307 calls)
     s_psi        :    100.61s CPU    101.14s WALL (    4307 calls)
     g_psi        :      1.50s CPU      1.52s WALL (    3407 calls)
     cdiaghg      :    319.57s CPU    320.81s WALL (    4282 calls)

     Called by h_psi:
     h_psi:calbec :    121.03s CPU    121.55s WALL (    4307 calls)
     vloc_psi     :    543.31s CPU    550.18s WALL (    4307 calls)
     add_vuspsi   :    101.38s CPU    101.84s WALL (    4307 calls)

     General routines
     calbec       :    204.73s CPU    205.54s WALL (    5307 calls)
     fft          :      3.85s CPU      3.89s WALL (     491 calls)
     ffts         :     20.54s CPU     20.72s WALL (   19669 calls)
     fftw         :    630.11s CPU    637.92s WALL ( 1250710 calls)
     interpolate  :      0.34s CPU      0.34s WALL (      36 calls)
 
     Parallel routines
     fft_scatt_xy :     65.53s CPU     66.44s WALL ( 1270870 calls)
     fft_scatt_yz :    427.07s CPU    432.36s WALL ( 1270870 calls)
 
     PWSCF        :  34m39.69s CPU  36m 1.51s WALL

 
   This run was terminated on:  17:13:42  25May2021            

=------------------------------------------------------------------------------=
   JOB DONE.
=------------------------------------------------------------------------------=
[1621977222.679307] [holy7c08306:129431:0]          mpool.c:43   UCX  WARN  object 0x3b5d780 was not returned to mpool ucp_requests
[1621977222.679326] [holy7c08306:129431:0]          mpool.c:43   UCX  WARN  object 0x3b5e200 was not returned to mpool ucp_requests
[1621977222.681986] [holy7c08401:77226:0]          mpool.c:43   UCX  WARN  object 0x2905380 was not returned to mpool ucp_requests
[1621977222.681307] [holy7c08208:10920:0]          mpool.c:43   UCX  WARN  object 0x3fad3c0 was not returned to mpool ucp_requests
[1621977222.686087] [holy7c06608:271154:0]          mpool.c:43   UCX  WARN  object 0x450c8c0 was not returned to mpool ucp_requests
[1621977222.686115] [holy7c06608:271154:0]          mpool.c:43   UCX  WARN  object 0x450cc40 was not returned to mpool ucp_requests
[1621977222.687305] [holy7c08404:201108:0]          mpool.c:43   UCX  WARN  object 0x4340880 was not returned to mpool ucp_requests
[1621977222.688876] [holy7c06607:121997:0]          mpool.c:43   UCX  WARN  object 0x3670a40 was not returned to mpool ucp_requests
[1621977222.690741] [holy7c08108:216144:0]          mpool.c:43   UCX  WARN  object 0x31755c0 was not returned to mpool ucp_requests
[1621977222.690756] [holy7c08108:216144:0]          mpool.c:43   UCX  WARN  object 0x3175940 was not returned to mpool ucp_requests
[1621977222.692223] [holy7c08105:51010:0]          mpool.c:43   UCX  WARN  object 0x42cf800 was not returned to mpool ucp_requests
[1621977222.692359] [holy7c06510:182576:0]          mpool.c:43   UCX  WARN  object 0x3846cc0 was not returned to mpool ucp_requests
[1621977222.686479] [holy7c06602:79049:0]          mpool.c:43   UCX  WARN  object 0x455d500 was not returned to mpool ucp_requests
[1621977222.686502] [holy7c06602:79049:0]          mpool.c:43   UCX  WARN  object 0x455da40 was not returned to mpool ucp_requests
[1621977222.689756] [holy7c08208:10919:0]          mpool.c:43   UCX  WARN  object 0x300d140 was not returned to mpool ucp_requests
[1621977222.690189] [holy7c06607:121998:0]          mpool.c:43   UCX  WARN  object 0x31f8600 was not returned to mpool ucp_requests
[1621977222.693014] [holy7c08105:51011:0]          mpool.c:43   UCX  WARN  object 0x2f6c600 was not returned to mpool ucp_requests
[1621977222.695679] [holy7c06510:182577:0]          mpool.c:43   UCX  WARN  object 0x3a658c0 was not returned to mpool ucp_requests
