
     Program PWSCF v.6.5 starts on  1Jun2021 at 12:11:53 

     This program is part of the open-source Quantum ESPRESSO suite
     for quantum simulation of materials; please cite
         "P. Giannozzi et al., J. Phys.:Condens. Matter 21 395502 (2009);
         "P. Giannozzi et al., J. Phys.:Condens. Matter 29 465901 (2017);
          URL http://www.quantum-espresso.org", 
     in publications or presentations arising from this work. More details at
     http://www.quantum-espresso.org/quote

     Parallel version (MPI), running on    32 processors

     MPI processes distributed on     6 nodes
     R & G space division:  proc/nbgrp/npool/nimage =      32
     Reading input from YCBCO50_212_CuO_cleave_5.0_sep.pwi
Warning: card &IONS ignored
Warning: card     ION_DYNAMICS = 'BFGS' ignored
Warning: card / ignored
Warning: card &CELL ignored
Warning: card     CELL_DYNAMICS = 'BFGS' ignored
Warning: card     PRESS_CONV_THR = 5 ignored
Warning: card / ignored

     Current dimensions of program PWSCF are:
     Max number of different atomic species (ntypx) = 10
     Max number of k-points (npk) =  40000
     Max angular momentum in pseudopotentials (lmaxx) =  3

     Subspace diagonalization in iterative solution of the eigenvalue problem:
     one sub-group per band group will be used
     scalapack distributed-memory algorithm (size of sub-group:  5*  5 procs)

     Message from routine setup:
     using ibrav=0 with symmetry is DISCOURAGED, use correct ibrav instead
 
     Parallelization info
     --------------------
     sticks:   dense  smooth     PW     G-vecs:    dense   smooth      PW
     Min         188      62     17                98946    19030    2839
     Max         189      63     18                98978    19081    2884
     Sum        6019    2003    565              3166881   609811   91731
 


     bravais-lattice index     =            0
     lattice parameter (alat)  =      14.8133  a.u.
     unit-cell volume          =    9707.1835 (a.u.)^3
     number of atoms/cell      =           56
     number of atomic types    =            5
     number of electrons       =       456.00
     number of Kohn-Sham states=          274
     kinetic-energy cutoff     =      60.0000  Ry
     charge density cutoff     =     720.0000  Ry
     convergence threshold     =      1.0E-08
     mixing beta               =       0.5000
     number of iterations used =           10  local-TF  mixing
     Exchange-correlation= SLA PW PBE PBE
                           (   1   4   3   4   0   0   0)

     celldm(1)=  14.813271  celldm(2)=   0.000000  celldm(3)=   0.000000
     celldm(4)=   0.000000  celldm(5)=   0.000000  celldm(6)=   0.000000

     crystal axes: (cart. coord. in units of alat)
               a(1) = (   1.000000   0.000000   0.000000 )  
               a(2) = (   0.000000   0.477453   0.000000 )  
               a(3) = (   0.000000   0.000000   6.254750 )  

     reciprocal axes: (cart. coord. in units 2 pi/alat)
               b(1) = (  1.000000  0.000000  0.000000 )  
               b(2) = (  0.000000  2.094448  0.000000 )  
               b(3) = (  0.000000  0.000000  0.159878 )  


     PseudoPot. # 1 for Ba read from file:
     ./pseudo/Ba.pbe-nsp-van.UPF
     MD5 check sum: 2b9c31dd849566dd297d80989662b7a0
     Pseudo is Ultrasoft + core correction, Zval = 10.0
     Generated by new atomic code, or converted to UPF format
     Using radial grid of  907 points,  6 beta functions with: 
                l(1) =   0
                l(2) =   0
                l(3) =   1
                l(4) =   1
                l(5) =   2
                l(6) =   2
     Q(r) pseudized with  6 coefficients,  rinner =    1.200   1.200   1.200
                                                       1.200   1.200

     PseudoPot. # 2 for Ca read from file:
     ./pseudo/Ca.pbe-nsp-van.UPF
     MD5 check sum: 6471098428ff4fa451746d08035ff179
     Pseudo is Ultrasoft + core correction, Zval = 10.0
     Generated by new atomic code, or converted to UPF format
     Using radial grid of  845 points,  6 beta functions with: 
                l(1) =   0
                l(2) =   0
                l(3) =   1
                l(4) =   1
                l(5) =   2
                l(6) =   2
     Q(r) pseudized with  6 coefficients,  rinner =    1.200   1.200   1.200
                                                       1.200   1.200

     PseudoPot. # 3 for Cu read from file:
     ./pseudo/Cu.pbe-n-van_ak.UPF
     MD5 check sum: 34e3282627ffb533726feb647e090d62
     Pseudo is Ultrasoft + core correction, Zval = 11.0
     Generated by new atomic code, or converted to UPF format
     Using radial grid of  867 points,  6 beta functions with: 
                l(1) =   0
                l(2) =   0
                l(3) =   1
                l(4) =   1
                l(5) =   2
                l(6) =   2
     Q(r) pseudized with  8 coefficients,  rinner =    1.400   1.400   1.400
                                                       1.400   1.400

     PseudoPot. # 4 for O  read from file:
     ./pseudo/O.pbe-van_ak.UPF
     MD5 check sum: 783ce7fe4c79b6a4916957118fed0856
     Pseudo is Ultrasoft, Zval =  6.0
     Generated by new atomic code, or converted to UPF format
     Using radial grid of  737 points,  4 beta functions with: 
                l(1) =   0
                l(2) =   0
                l(3) =   1
                l(4) =   1
     Q(r) pseudized with  8 coefficients,  rinner =    0.800   0.800   0.800


     PseudoPot. # 5 for Y  read from file:
     ./pseudo/Y.pbe-nsp-van.UPF
     MD5 check sum: 4412fed3ab108fed87a1b7d6a69a4a38
     Pseudo is Ultrasoft + core correction, Zval = 11.0
     Generated by new atomic code, or converted to UPF format
     Using radial grid of  885 points,  6 beta functions with: 
                l(1) =   0
                l(2) =   0
                l(3) =   1
                l(4) =   1
                l(5) =   2
                l(6) =   2
     Q(r) pseudized with  6 coefficients,  rinner =    1.200   1.200   1.200
                                                       1.200   1.200

     atomic species   valence    mass     pseudopotential
        Ba            10.00   137.32700     Ba( 1.00)
        Ca            10.00    40.07800     Ca( 1.00)
        Cu            11.00    63.54600     Cu( 1.00)
        O              6.00    15.99900     O ( 1.00)
        Y             11.00    88.90584     Y ( 1.00)

      4 Sym. Ops. (no inversion) found ( 2 have fractional translation)



   Cartesian axes

     site n.     atom                  positions (alat units)
         1           O   tau(   1) = (  -0.0008343   0.2387265  -0.0222443  )
         2           O   tau(   2) = (   0.5008340   0.2387265  -0.0222443  )
         3           Cu  tau(   3) = (   0.5017257   0.0000000   0.0109608  )
         4           Cu  tau(   4) = (  -0.0017260   0.0000000   0.0109608  )
         5           O   tau(   5) = (  -0.0028933   0.0000000   0.2506504  )
         6           O   tau(   6) = (   0.5028929   0.0000000   0.2506504  )
         7           Ba  tau(   7) = (   0.7499995   0.2387265   0.2749435  )
         8           Ba  tau(   8) = (   0.2499998   0.2387265   0.2755214  )
         9           Cu  tau(   9) = (   0.4980963   0.0000000   0.5208446  )
        10           Cu  tau(  10) = (   0.0019033   0.0000000   0.5208446  )
        11           O   tau(  11) = (   0.2499998   0.0000000   0.5341884  )
        12           O   tau(  12) = (   0.5083351   0.2387265   0.5569851  )
        13           O   tau(  13) = (  -0.0083354   0.2387265   0.5569851  )
        14           O   tau(  14) = (   0.7499995   0.0000000   0.5573831  )
        15           Ca  tau(  15) = (   0.2499998   0.2387265   0.7436937  )
        16           Y   tau(  16) = (   0.7499995   0.2387265   0.7469544  )
        17           O   tau(  17) = (  -0.0063798   0.2387265   0.9248530  )
        18           O   tau(  18) = (   0.5063794   0.2387265   0.9248530  )
        19           O   tau(  19) = (   0.7499995   0.0000000   0.9338544  )
        20           O   tau(  20) = (   0.2499998   0.0000000   0.9461329  )
        21           Cu  tau(  21) = (   0.0015717   0.0000000   0.9686860  )
        22           Cu  tau(  22) = (   0.4984280   0.0000000   0.9686860  )
        23           Ba  tau(  23) = (   0.2499998   0.2387265   1.2085224  )
        24           Ba  tau(  24) = (   0.7499995   0.2387265   1.2233294  )
        25           O   tau(  25) = (   0.0063772   0.0000000   1.2547537  )
        26           O   tau(  26) = (   0.4936224   0.0000000   1.2547537  )
        27           O   tau(  27) = (   0.5384045   0.2387265   1.4952521  )
        28           O   tau(  28) = (  -0.0384049   0.2387265   1.4952521  )
        29           Cu  tau(  29) = (   0.5006120   0.0000000   1.4952546  )
        30           Cu  tau(  30) = (  -0.0006123   0.0000000   1.4952546  )
        31           O   tau(  31) = (   0.4936212   0.0000000   2.3736021  )
        32           O   tau(  32) = (   0.0063785   0.0000000   2.3736021  )
        33           Ba  tau(  33) = (   0.7499995   0.2387265   2.4050315  )
        34           Ba  tau(  34) = (   0.2499998   0.2387265   2.4198410  )
        35           Cu  tau(  35) = (   0.4984280   0.0000000   2.6596723  )
        36           Cu  tau(  36) = (   0.0015717   0.0000000   2.6596723  )
        37           O   tau(  37) = (   0.2499998   0.0000000   2.6822304  )
        38           O   tau(  38) = (   0.7499995   0.0000000   2.6945001  )
        39           O   tau(  39) = (   0.5063781   0.2387265   2.7035053  )
        40           O   tau(  40) = (  -0.0063785   0.2387265   2.7035053  )
        41           Y   tau(  41) = (   0.7499995   0.2387265   2.8813988  )
        42           Ca  tau(  42) = (   0.2499998   0.2387265   2.8846684  )
        43           O   tau(  43) = (   0.7499995   0.0000000   3.0709663  )
        44           O   tau(  44) = (  -0.0083354   0.2387265   3.0713681  )
        45           O   tau(  45) = (   0.5083351   0.2387265   3.0713681  )
        46           O   tau(  46) = (   0.2499998   0.0000000   3.0941661  )
        47           Cu  tau(  47) = (   0.0019059   0.0000000   3.1074997  )
        48           Cu  tau(  48) = (   0.4980938   0.0000000   3.1074997  )
        49           Ba  tau(  49) = (   0.2499998   0.2387265   3.3528394  )
        50           Ba  tau(  50) = (   0.7499995   0.2387265   3.3533816  )
        51           O   tau(  51) = (  -0.0028895   0.0000000   3.3776887  )
        52           O   tau(  52) = (   0.5028891   0.0000000   3.3776887  )
        53           Cu  tau(  53) = (   0.5017844   0.0000000   3.6173733  )
        54           Cu  tau(  54) = (  -0.0017847   0.0000000   3.6173733  )
        55           O   tau(  55) = (   0.5008990   0.2387265   3.6505797  )
        56           O   tau(  56) = (  -0.0008994   0.2387265   3.6505797  )

     number of k points=    25  Gaussian smearing, width (Ry)=  0.0100
                       cart. coord. in units 2pi/alat
        k(    1) = (   0.0000000   0.0000000   0.0000000), wk =   0.0312500
        k(    2) = (   0.0000000   0.2618060   0.0000000), wk =   0.0625000
        k(    3) = (   0.0000000   0.5236121   0.0000000), wk =   0.0625000
        k(    4) = (   0.0000000   0.7854181   0.0000000), wk =   0.0625000
        k(    5) = (   0.0000000  -1.0472241   0.0000000), wk =   0.0312500
        k(    6) = (   0.1250000   0.0000000   0.0000000), wk =   0.0625000
        k(    7) = (   0.1250000   0.2618060   0.0000000), wk =   0.1250000
        k(    8) = (   0.1250000   0.5236121   0.0000000), wk =   0.1250000
        k(    9) = (   0.1250000   0.7854181   0.0000000), wk =   0.1250000
        k(   10) = (   0.1250000  -1.0472241   0.0000000), wk =   0.0625000
        k(   11) = (   0.2500000   0.0000000   0.0000000), wk =   0.0625000
        k(   12) = (   0.2500000   0.2618060   0.0000000), wk =   0.1250000
        k(   13) = (   0.2500000   0.5236121   0.0000000), wk =   0.1250000
        k(   14) = (   0.2500000   0.7854181   0.0000000), wk =   0.1250000
        k(   15) = (   0.2500000  -1.0472241   0.0000000), wk =   0.0625000
        k(   16) = (   0.3750000   0.0000000   0.0000000), wk =   0.0625000
        k(   17) = (   0.3750000   0.2618060   0.0000000), wk =   0.1250000
        k(   18) = (   0.3750000   0.5236121   0.0000000), wk =   0.1250000
        k(   19) = (   0.3750000   0.7854181   0.0000000), wk =   0.1250000
        k(   20) = (   0.3750000  -1.0472241   0.0000000), wk =   0.0625000
        k(   21) = (  -0.5000000   0.0000000   0.0000000), wk =   0.0312500
        k(   22) = (  -0.5000000   0.2618060   0.0000000), wk =   0.0625000
        k(   23) = (  -0.5000000   0.5236121   0.0000000), wk =   0.0625000
        k(   24) = (  -0.5000000   0.7854181   0.0000000), wk =   0.0625000
        k(   25) = (  -0.5000000  -1.0472241   0.0000000), wk =   0.0312500

     Dense  grid:  3166881 G-vectors     FFT dimensions: ( 128,  64, 800)

     Smooth grid:   609811 G-vectors     FFT dimensions: (  80,  36, 480)

     Estimated max dynamical RAM per process >     914.93 MB

     Estimated total dynamical RAM >      28.59 GB

     Initial potential from superposition of free atoms

     starting charge  455.69457, renormalised to  456.00000

     negative rho (up, down):  9.319E-02 0.000E+00
     Starting wfcs are  396 randomized atomic wfcs

     total cpu time spent up to now is       28.1 secs

     Self-consistent Calculation

     iteration #  1     ecut=    60.00 Ry     beta= 0.50
     Davidson diagonalization with overlap
     ethr =  1.00E-02,  avg # of iterations =  2.0

     negative rho (up, down):  8.622E-02 0.000E+00

     total cpu time spent up to now is       77.1 secs

     total energy              =   -3708.26494687 Ry
     Harris-Foulkes estimate   =   -3716.45619671 Ry
     estimated scf accuracy    <      31.95614304 Ry

     iteration #  2     ecut=    60.00 Ry     beta= 0.50
     Davidson diagonalization with overlap
     ethr =  7.01E-03,  avg # of iterations =  2.0

     negative rho (up, down):  8.599E-02 0.000E+00

     total cpu time spent up to now is      126.2 secs

     total energy              =   -3711.03434868 Ry
     Harris-Foulkes estimate   =   -3712.31216838 Ry
     estimated scf accuracy    <       7.28010387 Ry

     iteration #  3     ecut=    60.00 Ry     beta= 0.50
     Davidson diagonalization with overlap
     ethr =  1.60E-03,  avg # of iterations =  2.0

     negative rho (up, down):  8.635E-02 0.000E+00

     total cpu time spent up to now is      175.5 secs

     total energy              =   -3711.61203034 Ry
     Harris-Foulkes estimate   =   -3711.95636182 Ry
     estimated scf accuracy    <      11.86282218 Ry

     iteration #  4     ecut=    60.00 Ry     beta= 0.50
     Davidson diagonalization with overlap
     ethr =  1.60E-03,  avg # of iterations =  1.0

     negative rho (up, down):  8.720E-02 0.000E+00

     total cpu time spent up to now is      221.0 secs

     total energy              =   -3711.61832772 Ry
     Harris-Foulkes estimate   =   -3711.76540200 Ry
     estimated scf accuracy    <       3.18638021 Ry

     iteration #  5     ecut=    60.00 Ry     beta= 0.50
     Davidson diagonalization with overlap
     ethr =  6.99E-04,  avg # of iterations =  1.0

     negative rho (up, down):  8.802E-02 0.000E+00

     total cpu time spent up to now is      266.0 secs

     total energy              =   -3711.59529082 Ry
     Harris-Foulkes estimate   =   -3711.70229301 Ry
     estimated scf accuracy    <       4.05174897 Ry

     iteration #  6     ecut=    60.00 Ry     beta= 0.50
     Davidson diagonalization with overlap
     ethr =  6.99E-04,  avg # of iterations =  1.0

     negative rho (up, down):  8.889E-02 0.000E+00

     total cpu time spent up to now is      311.2 secs

     total energy              =   -3711.58477281 Ry
     Harris-Foulkes estimate   =   -3711.63363712 Ry
     estimated scf accuracy    <       1.34435568 Ry

     iteration #  7     ecut=    60.00 Ry     beta= 0.50
     Davidson diagonalization with overlap
     ethr =  2.95E-04,  avg # of iterations =  5.6

     negative rho (up, down):  9.010E-02 0.000E+00

     total cpu time spent up to now is      370.2 secs

     total energy              =   -3711.56121661 Ry
     Harris-Foulkes estimate   =   -3711.60108255 Ry
     estimated scf accuracy    <       0.97087686 Ry

     iteration #  8     ecut=    60.00 Ry     beta= 0.50
     Davidson diagonalization with overlap
     ethr =  2.13E-04,  avg # of iterations =  7.6

     negative rho (up, down):  9.059E-02 0.000E+00

     total cpu time spent up to now is      435.0 secs

     total energy              =   -3711.55301688 Ry
     Harris-Foulkes estimate   =   -3711.57709130 Ry
     estimated scf accuracy    <       1.07628863 Ry

     iteration #  9     ecut=    60.00 Ry     beta= 0.50
     Davidson diagonalization with overlap
     ethr =  2.13E-04,  avg # of iterations =  1.2

     negative rho (up, down):  9.097E-02 0.000E+00

     total cpu time spent up to now is      480.5 secs

     total energy              =   -3711.53609656 Ry
     Harris-Foulkes estimate   =   -3711.55999374 Ry
     estimated scf accuracy    <       0.40530872 Ry

     iteration # 10     ecut=    60.00 Ry     beta= 0.50
     Davidson diagonalization with overlap
     ethr =  8.89E-05,  avg # of iterations =  7.1

     negative rho (up, down):  9.081E-02 0.000E+00

     total cpu time spent up to now is      544.0 secs

     total energy              =   -3711.52091642 Ry
     Harris-Foulkes estimate   =   -3711.54341029 Ry
     estimated scf accuracy    <       0.33759213 Ry

     iteration # 11     ecut=    60.00 Ry     beta= 0.50
     Davidson diagonalization with overlap
     ethr =  7.40E-05,  avg # of iterations =  5.6

     negative rho (up, down):  9.044E-02 0.000E+00

     total cpu time spent up to now is      603.4 secs

     total energy              =   -3711.52433942 Ry
     Harris-Foulkes estimate   =   -3711.52996201 Ry
     estimated scf accuracy    <       0.12766452 Ry

     iteration # 12     ecut=    60.00 Ry     beta= 0.50
     Davidson diagonalization with overlap
     ethr =  2.80E-05,  avg # of iterations =  7.3

     negative rho (up, down):  9.027E-02 0.000E+00

     total cpu time spent up to now is      666.8 secs

     total energy              =   -3711.52655871 Ry
     Harris-Foulkes estimate   =   -3711.52717980 Ry
     estimated scf accuracy    <       0.03793103 Ry

     iteration # 13     ecut=    60.00 Ry     beta= 0.50
     Davidson diagonalization with overlap
     c_bands:  1 eigenvalues not converged
     c_bands:  1 eigenvalues not converged
     ethr =  8.32E-06,  avg # of iterations =  8.4

     negative rho (up, down):  8.989E-02 0.000E+00

     total cpu time spent up to now is      733.3 secs

     total energy              =   -3711.52580305 Ry
     Harris-Foulkes estimate   =   -3711.52694038 Ry
     estimated scf accuracy    <       0.03271266 Ry

     iteration # 14     ecut=    60.00 Ry     beta= 0.50
     Davidson diagonalization with overlap
     ethr =  7.17E-06,  avg # of iterations =  4.0

     negative rho (up, down):  9.548E-02 0.000E+00

     total cpu time spent up to now is      787.0 secs

     total energy              =   -3711.52511882 Ry
     Harris-Foulkes estimate   =   -3711.52607200 Ry
     estimated scf accuracy    <       0.04693461 Ry

     iteration # 15     ecut=    60.00 Ry     beta= 0.50
     Davidson diagonalization with overlap
     ethr =  7.17E-06,  avg # of iterations =  3.0

     negative rho (up, down):  9.903E-02 0.000E+00

     total cpu time spent up to now is      837.7 secs

     total energy              =   -3711.52472869 Ry
     Harris-Foulkes estimate   =   -3711.52539472 Ry
     estimated scf accuracy    <       0.08272741 Ry

     iteration # 16     ecut=    60.00 Ry     beta= 0.50
     Davidson diagonalization with overlap
     ethr =  7.17E-06,  avg # of iterations =  2.1

     negative rho (up, down):  8.983E-02 0.000E+00

     total cpu time spent up to now is      885.3 secs

     total energy              =   -3711.52377148 Ry
     Harris-Foulkes estimate   =   -3711.52486817 Ry
     estimated scf accuracy    <       0.09842782 Ry

     iteration # 17     ecut=    60.00 Ry     beta= 0.50
     Davidson diagonalization with overlap
     ethr =  7.17E-06,  avg # of iterations =  5.3

     negative rho (up, down):  9.075E-02 0.000E+00

     total cpu time spent up to now is      942.6 secs

     total energy              =   -3711.52040577 Ry
     Harris-Foulkes estimate   =   -3711.52398787 Ry
     estimated scf accuracy    <       0.06219763 Ry

     iteration # 18     ecut=    60.00 Ry     beta= 0.50
     Davidson diagonalization with overlap
     ethr =  7.17E-06,  avg # of iterations =  8.7

     negative rho (up, down):  9.073E-02 0.000E+00

     total cpu time spent up to now is     1011.0 secs

     total energy              =   -3711.51882989 Ry
     Harris-Foulkes estimate   =   -3711.52070916 Ry
     estimated scf accuracy    <       0.05244858 Ry

     iteration # 19     ecut=    60.00 Ry     beta= 0.50
     Davidson diagonalization with overlap
     ethr =  7.17E-06,  avg # of iterations =  7.4

     negative rho (up, down):  9.876E-02 0.000E+00

     total cpu time spent up to now is     1075.1 secs

     total energy              =   -3711.51809868 Ry
     Harris-Foulkes estimate   =   -3711.51953225 Ry
     estimated scf accuracy    <       0.01027082 Ry

     iteration # 20     ecut=    60.00 Ry     beta= 0.50
     Davidson diagonalization with overlap
     ethr =  2.25E-06,  avg # of iterations = 10.8

     negative rho (up, down):  1.007E-01 0.000E+00

     total cpu time spent up to now is     1152.3 secs

     total energy              =   -3711.51798009 Ry
     Harris-Foulkes estimate   =   -3711.51845185 Ry
     estimated scf accuracy    <       0.00809364 Ry

     iteration # 21     ecut=    60.00 Ry     beta= 0.50
     Davidson diagonalization with overlap
     ethr =  1.77E-06,  avg # of iterations = 11.6

     negative rho (up, down):  9.454E-02 0.000E+00

     total cpu time spent up to now is     1232.8 secs

     total energy              =   -3711.51811620 Ry
     Harris-Foulkes estimate   =   -3711.51819460 Ry
     estimated scf accuracy    <       0.00092215 Ry

     iteration # 22     ecut=    60.00 Ry     beta= 0.50
     Davidson diagonalization with overlap
     c_bands:  1 eigenvalues not converged
     c_bands:  1 eigenvalues not converged
     c_bands:  1 eigenvalues not converged
     c_bands:  1 eigenvalues not converged
     c_bands:  1 eigenvalues not converged
     c_bands:  1 eigenvalues not converged
     c_bands:  1 eigenvalues not converged
     ethr =  2.02E-07,  avg # of iterations = 11.4

     negative rho (up, down):  9.235E-02 0.000E+00

     total cpu time spent up to now is     1308.6 secs

     total energy              =   -3711.51815758 Ry
     Harris-Foulkes estimate   =   -3711.51818312 Ry
     estimated scf accuracy    <       0.00038611 Ry

     iteration # 23     ecut=    60.00 Ry     beta= 0.50
     Davidson diagonalization with overlap
     c_bands:  1 eigenvalues not converged
     c_bands:  1 eigenvalues not converged
     c_bands:  1 eigenvalues not converged
     c_bands:  1 eigenvalues not converged
     c_bands:  1 eigenvalues not converged
     c_bands:  2 eigenvalues not converged
     ethr =  8.47E-08,  avg # of iterations = 10.4

     negative rho (up, down):  9.226E-02 0.000E+00

     total cpu time spent up to now is     1380.8 secs

     total energy              =   -3711.51819968 Ry
     Harris-Foulkes estimate   =   -3711.51818887 Ry
     estimated scf accuracy    <       0.00025013 Ry

     iteration # 24     ecut=    60.00 Ry     beta= 0.50
     Davidson diagonalization with overlap
     c_bands:  1 eigenvalues not converged
     ethr =  5.49E-08,  avg # of iterations =  5.4

     negative rho (up, down):  9.230E-02 0.000E+00

     total cpu time spent up to now is     1438.3 secs

     total energy              =   -3711.51820607 Ry
     Harris-Foulkes estimate   =   -3711.51820583 Ry
     estimated scf accuracy    <       0.00015815 Ry

     iteration # 25     ecut=    60.00 Ry     beta= 0.50
     Davidson diagonalization with overlap
     ethr =  3.47E-08,  avg # of iterations =  1.3

     negative rho (up, down):  9.222E-02 0.000E+00

     total cpu time spent up to now is     1484.1 secs

     total energy              =   -3711.51820813 Ry
     Harris-Foulkes estimate   =   -3711.51820873 Ry
     estimated scf accuracy    <       0.00013391 Ry

     iteration # 26     ecut=    60.00 Ry     beta= 0.50
     Davidson diagonalization with overlap
     ethr =  2.94E-08,  avg # of iterations =  1.4

     negative rho (up, down):  9.196E-02 0.000E+00

     total cpu time spent up to now is     1530.1 secs

     total energy              =   -3711.51820770 Ry
     Harris-Foulkes estimate   =   -3711.51821013 Ry
     estimated scf accuracy    <       0.00003856 Ry

     iteration # 27     ecut=    60.00 Ry     beta= 0.50
     Davidson diagonalization with overlap
     ethr =  8.46E-09,  avg # of iterations =  1.4

     negative rho (up, down):  9.188E-02 0.000E+00

     total cpu time spent up to now is     1576.9 secs

     total energy              =   -3711.51820853 Ry
     Harris-Foulkes estimate   =   -3711.51820878 Ry
     estimated scf accuracy    <       0.00002319 Ry

     iteration # 28     ecut=    60.00 Ry     beta= 0.50
     Davidson diagonalization with overlap
     ethr =  5.08E-09,  avg # of iterations =  1.0

     negative rho (up, down):  9.196E-02 0.000E+00

     total cpu time spent up to now is     1622.8 secs

     total energy              =   -3711.51820877 Ry
     Harris-Foulkes estimate   =   -3711.51820901 Ry
     estimated scf accuracy    <       0.00000602 Ry

     iteration # 29     ecut=    60.00 Ry     beta= 0.50
     Davidson diagonalization with overlap
     ethr =  1.32E-09,  avg # of iterations =  2.2

     negative rho (up, down):  9.212E-02 0.000E+00

     total cpu time spent up to now is     1671.7 secs

     total energy              =   -3711.51820855 Ry
     Harris-Foulkes estimate   =   -3711.51820897 Ry
     estimated scf accuracy    <       0.00000462 Ry

     iteration # 30     ecut=    60.00 Ry     beta= 0.50
     Davidson diagonalization with overlap
     ethr =  1.01E-09,  avg # of iterations =  1.0

     negative rho (up, down):  9.222E-02 0.000E+00

     total cpu time spent up to now is     1717.6 secs

     total energy              =   -3711.51820852 Ry
     Harris-Foulkes estimate   =   -3711.51820865 Ry
     estimated scf accuracy    <       0.00000097 Ry

     iteration # 31     ecut=    60.00 Ry     beta= 0.50
     Davidson diagonalization with overlap
     ethr =  2.13E-10,  avg # of iterations =  3.0

     negative rho (up, down):  9.224E-02 0.000E+00

     total cpu time spent up to now is     1769.6 secs

     total energy              =   -3711.51820855 Ry
     Harris-Foulkes estimate   =   -3711.51820857 Ry
     estimated scf accuracy    <       0.00000057 Ry

     iteration # 32     ecut=    60.00 Ry     beta= 0.50
     Davidson diagonalization with overlap
     ethr =  1.24E-10,  avg # of iterations =  1.5

     negative rho (up, down):  9.225E-02 0.000E+00

     total cpu time spent up to now is     1816.6 secs

     total energy              =   -3711.51820855 Ry
     Harris-Foulkes estimate   =   -3711.51820856 Ry
     estimated scf accuracy    <       0.00000054 Ry

     iteration # 33     ecut=    60.00 Ry     beta= 0.50
     Davidson diagonalization with overlap
     ethr =  1.18E-10,  avg # of iterations =  1.0

     negative rho (up, down):  9.220E-02 0.000E+00

     total cpu time spent up to now is     1862.2 secs

     total energy              =   -3711.51820862 Ry
     Harris-Foulkes estimate   =   -3711.51820856 Ry
     estimated scf accuracy    <       0.00000023 Ry

     iteration # 34     ecut=    60.00 Ry     beta= 0.50
     Davidson diagonalization with overlap
     ethr =  4.98E-11,  avg # of iterations =  1.3

     negative rho (up, down):  9.218E-02 0.000E+00

     total cpu time spent up to now is     1908.2 secs

     total energy              =   -3711.51820866 Ry
     Harris-Foulkes estimate   =   -3711.51820863 Ry
     estimated scf accuracy    <       0.00000004 Ry

     iteration # 35     ecut=    60.00 Ry     beta= 0.50
     Davidson diagonalization with overlap
     ethr =  8.99E-12,  avg # of iterations =  3.0

     negative rho (up, down):  9.217E-02 0.000E+00

     total cpu time spent up to now is     1962.8 secs

     total energy              =   -3711.51820867 Ry
     Harris-Foulkes estimate   =   -3711.51820866 Ry
     estimated scf accuracy    <       0.00000006 Ry

     iteration # 36     ecut=    60.00 Ry     beta= 0.50
     Davidson diagonalization with overlap
     ethr =  8.99E-12,  avg # of iterations =  1.0

     negative rho (up, down):  9.216E-02 0.000E+00

     total cpu time spent up to now is     2008.4 secs

     total energy              =   -3711.51820868 Ry
     Harris-Foulkes estimate   =   -3711.51820867 Ry
     estimated scf accuracy    <       0.00000001 Ry

     iteration # 37     ecut=    60.00 Ry     beta= 0.50
     Davidson diagonalization with overlap
     ethr =  3.15E-12,  avg # of iterations =  2.0

     negative rho (up, down):  9.214E-02 0.000E+00

     total cpu time spent up to now is     2056.0 secs

     End of self-consistent calculation

          k = 0.0000 0.0000 0.0000 ( 76245 PWs)   bands (ev):

   -38.7615 -38.6983 -36.3966 -36.3243 -23.5502 -23.5052 -23.4942 -23.3769
   -23.3659 -23.3549 -23.1879 -22.9736 -19.2347 -19.1808 -19.1345 -19.0727
   -18.7656 -18.7010 -17.7427 -17.6733 -17.6091 -17.5410 -17.4280 -17.3522
   -16.1388 -16.0976 -15.6795 -15.6603 -15.4708 -15.3516 -15.2971 -15.2869
   -15.2433 -15.2133 -15.1536 -15.1431 -15.1314 -15.1199 -15.0018 -14.9898
   -14.8251 -14.7816 -14.7128 -14.6806 -14.6727 -14.6694 -14.6655 -14.6554
   -14.6285 -14.5544 -14.4850 -14.4342 -13.5379 -13.0651  -8.8945  -8.7441
    -8.7303  -8.6366  -8.6230  -8.5912  -8.5543  -8.5439  -8.4562  -8.4162
    -8.4055  -8.3934  -8.3659  -8.3197  -8.3094  -8.2781  -8.2683  -8.2401
    -8.1893  -8.1783  -8.1675  -8.0069  -7.8125  -7.7100  -3.6844  -3.6606
    -3.5725  -3.4740  -2.8583  -2.8521  -2.7717  -2.7694  -2.7649  -2.7347
    -2.6259  -2.5749  -2.5641  -2.5385  -2.5344  -2.5163  -2.4734  -2.4728
    -2.4075  -2.3693  -2.3636  -2.3095  -2.2577  -2.2009  -2.0644  -2.0348
    -1.8795  -1.8292  -1.8104  -1.7890  -1.7170  -1.6540  -1.6267  -1.6114
    -1.6036  -1.6022  -1.5948  -1.5926  -1.5710  -1.5695  -1.5078  -1.4332
    -1.3785  -1.3713  -1.1302  -1.0879  -1.0154  -0.9507  -0.9425  -0.9326
    -0.9323  -0.9058  -0.9055  -0.8877  -0.8697  -0.8563  -0.8201  -0.8153
    -0.8135  -0.8130  -0.8005  -0.7652  -0.7311  -0.6634  -0.6387  -0.6281
    -0.6273  -0.6182  -0.6036  -0.5595  -0.5531  -0.5414  -0.5368  -0.5081
    -0.5071  -0.5038  -0.5015  -0.4247  -0.4086  -0.4008  -0.3865  -0.3690
    -0.3627  -0.3615  -0.3153  -0.2850  -0.2748  -0.2579  -0.2063  -0.1633
    -0.1325  -0.1231  -0.0993  -0.0981  -0.0843  -0.0747  -0.0688  -0.0683
     0.0925   0.1175   0.1922   0.2486   0.2690   0.3209   0.3541   0.3664
     0.3776   0.3993   0.4049   0.4392   0.5185   0.5483   0.5648   0.5822
     0.5878   0.5910   0.5927   0.5943   0.6725   0.6971   0.7101   0.7434
     0.7507   0.7527   0.7681   0.7968   0.8329   0.8503   0.9180   0.9722
     0.9810   1.0135   1.0830   1.0875   1.0915   1.1547   1.1569   1.1645
     1.1830   1.2164   1.2262   1.2754   1.3173   1.4251   1.4387   1.4900
     1.5961   1.6044   1.7251   1.7699   1.7712   1.8436   1.8642   1.9512
     1.9588   1.9805   1.9867   2.0324   2.2285   2.2828   4.3362   4.6065
     4.6128   5.2476   5.3099   5.7866   5.9770   6.0017   6.1362   6.2150
     6.3290   6.5770   6.6465   6.6530   6.7416   6.7490   6.8894   6.9332
     7.2694   7.3738   7.4604   7.4679   7.5214   7.5483   7.6784   7.7796
     7.8150   7.8430   7.9284   7.9681   7.9698   8.0764   8.3344   8.4448
     8.4767   8.5090

          k = 0.0000 0.2618 0.0000 ( 76237 PWs)   bands (ev):

   -38.7589 -38.6956 -36.3949 -36.3226 -23.5314 -23.4806 -23.4696 -23.3578
   -23.3468 -23.3311 -23.1689 -22.9532 -19.1961 -19.1420 -19.1272 -19.0654
   -18.8763 -18.8123 -17.7133 -17.6439 -17.6047 -17.5366 -17.4939 -17.4183
   -16.0326 -15.9918 -15.6237 -15.6045 -15.4156 -15.3134 -15.2827 -15.2532
   -15.2391 -15.1414 -15.1229 -15.1226 -15.0908 -15.0675 -14.9674 -14.9547
   -14.8199 -14.7775 -14.7734 -14.7281 -14.6922 -14.6592 -14.6584 -14.6561
   -14.6471 -14.5910 -14.4766 -14.4727 -13.4902 -13.1304  -8.8855  -8.7373
    -8.7246  -8.6490  -8.6363  -8.6035  -8.5106  -8.5002  -8.4594  -8.4515
    -8.4480  -8.4475  -8.4412  -8.4074  -8.3870  -8.3855  -8.3748  -8.3619
    -8.2865  -8.2707  -8.2684  -8.2174  -7.8954  -7.8285  -3.7952  -3.7578
    -3.6260  -3.5294  -2.9854  -2.9715  -2.9531  -2.8807  -2.8718  -2.8649
    -2.7478  -2.7411  -2.7342  -2.6846  -2.6214  -2.5637  -2.5078  -2.4841
    -2.4207  -2.3992  -2.3717  -2.3427  -2.3105  -2.2906  -2.1861  -2.1369
    -2.1258  -2.1137  -2.0532  -2.0443  -2.0404  -2.0199  -2.0175  -2.0073
    -1.9769  -1.8988  -1.6985  -1.5426  -1.5137  -1.4706  -1.4033  -1.3886
    -1.3425  -1.2649  -1.2565  -1.2501  -1.1880  -1.1834  -1.0310  -1.0241
    -1.0022  -0.9789  -0.9660  -0.9541  -0.9450  -0.9333  -0.8804  -0.8567
    -0.8558  -0.8432  -0.7774  -0.7706  -0.6887  -0.6615  -0.6329  -0.6203
    -0.6123  -0.5456  -0.5350  -0.5273  -0.5133  -0.4894  -0.4890  -0.4709
    -0.4700  -0.4463  -0.4407  -0.4402  -0.4031  -0.3504  -0.3444  -0.3387
    -0.2979  -0.2963  -0.2916  -0.2493  -0.2418  -0.2285  -0.2164  -0.1926
    -0.1917  -0.1781  -0.1569  -0.1375  -0.0030   0.0344   0.0424   0.0981
     0.1128   0.1350   0.2008   0.2204   0.3036   0.3239   0.3367   0.3742
     0.4354   0.5013   0.5200   0.5452   0.5628   0.5760   0.5897   0.5955
     0.6419   0.6559   0.6708   0.6822   0.7041   0.7293   0.7579   0.7724
     0.8357   0.8529   0.8705   0.8749   0.8954   0.9030   0.9245   1.0339
     1.0368   1.0495   1.0982   1.1058   1.1106   1.1285   1.1656   1.2022
     1.2056   1.2149   1.2399   1.2858   1.2924   1.3651   1.4242   1.4739
     1.7184   1.7414   1.9900   1.9944   2.0792   2.1567   2.1832   2.2016
     2.2523   2.2608   2.2999   2.3294   2.5109   2.5407   4.6191   4.9818
     4.9898   5.5280   5.5830   5.9344   6.2925   6.3209   6.3819   6.4805
     6.4890   6.5361   6.5577   6.6333   6.9323   6.9692   7.0703   7.1171
     7.1214   7.1456   7.4164   7.5675   7.6432   7.7312   7.8343   7.8459
     8.0168   8.0399   8.1124   8.1415   8.1519   8.2495   8.5215   8.5594
     8.6528   8.6836

          k = 0.0000 0.5236 0.0000 ( 76123 PWs)   bands (ev):

   -38.7523 -38.6891 -36.3908 -36.3185 -23.4854 -23.4201 -23.4091 -23.3109
   -23.2999 -23.2726 -23.1223 -22.9028 -19.1172 -19.1097 -19.0957 -19.0541
   -19.0478 -19.0410 -17.6474 -17.6296 -17.5943 -17.5726 -17.5595 -17.5261
   -15.7910 -15.7525 -15.4770 -15.4574 -15.3334 -15.2947 -15.2793 -15.2207
   -15.1538 -15.1314 -15.1162 -15.0444 -14.9241 -14.9205 -14.8992 -14.8841
   -14.8693 -14.8446 -14.7921 -14.7681 -14.7634 -14.6682 -14.6459 -14.6324
   -14.6074 -14.5958 -14.5438 -14.4702 -13.3679 -13.2837  -8.9239  -8.9131
    -8.8651  -8.7641  -8.7554  -8.7538  -8.7022  -8.7005  -8.6882  -8.6297
    -8.6179  -8.6020  -8.5747  -8.5492  -8.5229  -8.5122  -8.4216  -8.3938
    -8.3833  -8.3624  -8.2920  -8.1952  -7.9919  -7.9832  -4.2014  -4.1461
    -3.8632  -3.7724  -3.4823  -3.4583  -3.3401  -3.2748  -3.1003  -3.0868
    -3.0140  -2.9652  -2.9053  -2.8982  -2.8938  -2.8647  -2.8573  -2.7745
    -2.7205  -2.7125  -2.7101  -2.7022  -2.6344  -2.5947  -2.5059  -2.4539
    -2.4415  -2.4143  -2.3512  -2.3013  -2.2812  -2.2780  -2.2279  -2.2256
    -1.8935  -1.8420  -1.7638  -1.6421  -1.6265  -1.5991  -1.5488  -1.5080
    -1.4722  -1.4618  -1.4351  -1.4267  -1.2927  -1.2839  -1.2822  -1.2516
    -1.2075  -1.2005  -1.1998  -1.1801  -1.1430  -1.1347  -1.1030  -1.0683
    -1.0604  -1.0246  -1.0115  -0.9719  -0.9638  -0.9070  -0.8924  -0.8882
    -0.8224  -0.7152  -0.7050  -0.6608  -0.6135  -0.5709  -0.5168  -0.5061
    -0.4229  -0.4210  -0.3906  -0.3638  -0.3207  -0.3163  -0.3091  -0.2758
    -0.2297  -0.2241  -0.2130  -0.1333  -0.0334   0.0028   0.0214   0.0377
     0.1330   0.1899   0.1938   0.2105   0.2196   0.3808   0.4092   0.4201
     0.4262   0.4415   0.4430   0.4721   0.5445   0.5773   0.6141   0.6271
     0.6385   0.6408   0.6451   0.6702   0.6710   0.7283   0.7479   0.7482
     0.7680   0.7935   0.7984   0.8241   0.8378   0.8505   0.8601   0.9292
     0.9553   1.0054   1.0388   1.0506   1.0576   1.0651   1.0957   1.1287
     1.1791   1.1793   1.1820   1.1877   1.2139   1.2291   1.2412   1.2989
     1.3049   1.3425   1.3692   1.4213   1.4480   1.4572   1.5384   1.5432
     1.6055   1.6220   1.9409   2.1141   2.3874   2.4058   2.4707   2.5017
     2.5069   2.5144   3.1684   3.1917   3.2561   3.2889   5.1453   5.8811
     5.8892   5.9968   6.0075   6.1555   6.2758   6.3345   6.4103   6.4986
     6.6005   7.1711   7.1738   7.1883   7.2899   7.3645   7.4730   7.6068
     7.7522   7.7903   7.8078   7.8185   7.9653   8.0385   8.0508   8.0878
     8.1123   8.2240   8.2506   8.3995   8.4333   8.4831   8.6387   8.6410
     8.7911   8.7997

          k = 0.0000 0.7854 0.0000 ( 76110 PWs)   bands (ev):

   -38.7458 -38.6826 -36.3867 -36.3144 -23.4386 -23.3578 -23.3467 -23.2630
   -23.2520 -23.2125 -23.0744 -22.8511 -19.3251 -19.2624 -19.0923 -19.0303
   -18.9908 -18.9358 -17.7689 -17.6931 -17.5840 -17.5569 -17.5157 -17.4879
   -15.5576 -15.5351 -15.4507 -15.3983 -15.3036 -15.2809 -15.2419 -15.1824
   -15.1540 -15.1334 -15.0843 -14.9645 -14.9525 -14.9464 -14.8303 -14.8060
   -14.7998 -14.7860 -14.7566 -14.7385 -14.7291 -14.6566 -14.5934 -14.5836
   -14.5797 -14.5614 -14.5492 -14.5043 -13.4291 -13.2335  -9.3189  -9.3081
    -9.1418  -9.0592  -9.0488  -9.0432  -8.8620  -8.8431  -8.8053  -8.7043
    -8.6917  -8.6363  -8.6231  -8.6143  -8.5920  -8.5813  -8.4692  -8.3730
    -8.3157  -8.2727  -8.2621  -8.0827  -8.0705  -7.9536  -4.6875  -4.6328
    -4.2668  -4.1825  -3.8844  -3.8649  -3.7052  -3.6346  -3.4798  -3.4701
    -3.4421  -3.4135  -3.4037  -3.3402  -3.2383  -3.2305  -3.1440  -3.0847
    -3.0022  -2.9606  -2.8274  -2.8223  -2.7603  -2.7558  -2.5433  -2.4914
    -2.4730  -2.4678  -2.4595  -2.4114  -2.3182  -2.2835  -2.1506  -2.1160
    -2.0981  -1.8651  -1.8635  -1.8240  -1.7760  -1.7148  -1.7056  -1.6622
    -1.6437  -1.6315  -1.5921  -1.5858  -1.5558  -1.5087  -1.5077  -1.4335
    -1.4217  -1.4102  -1.4027  -1.3637  -1.3542  -1.3477  -1.3430  -1.3228
    -1.2424  -1.2242  -1.2210  -1.2126  -1.1836  -1.1620  -1.0389  -0.8319
    -0.8235  -0.7611  -0.7061  -0.6996  -0.6904  -0.6265  -0.6199  -0.4406
    -0.4243  -0.4000  -0.3888  -0.3797  -0.3500  -0.3154  -0.3040  -0.3003
    -0.1464  -0.1247  -0.0897  -0.0458   0.1692   0.1820   0.2511   0.2927
     0.3410   0.3844   0.4217   0.4305   0.4429   0.4494   0.5405   0.5952
     0.5989   0.6364   0.6565   0.6591   0.6710   0.7019   0.7099   0.7515
     0.7551   0.7735   0.8098   0.8494   0.9173   0.9515   0.9550   0.9631
     0.9897   1.0594   1.0714   1.0743   1.0784   1.1073   1.1087   1.1283
     1.1359   1.1787   1.1837   1.2029   1.2142   1.2185   1.2512   1.2573
     1.2872   1.3185   1.3243   1.3663   1.3830   1.3869   1.4015   1.5354
     1.5607   1.5725   1.6268   1.6373   1.6397   1.6405   1.7626   1.8522
     1.8617   1.9514   1.9585   2.0794   2.2634   2.3289   2.3323   2.4315
     2.4370   2.4730   3.7963   3.8305   3.8691   3.8866   5.2830   5.4688
     5.4761   6.0523   6.1571   6.5765   6.8011   6.8140   7.0144   7.1561
     7.2752   7.4909   7.6098   7.7749   7.8502   7.8865   7.9023   7.9201
     8.0305   8.0852   8.1440   8.2008   8.2461   8.2750   8.3531   8.3867
     8.5002   8.5235   8.5692   8.5752   8.6530   8.7131   8.7527   8.7936
     8.8551   8.9851

          k = 0.0000-1.0472 0.0000 ( 76214 PWs)   bands (ev):

   -38.7431 -38.6799 -36.3850 -36.3127 -23.4189 -23.3314 -23.3203 -23.2428
   -23.2318 -23.1872 -23.0542 -22.8293 -19.4057 -19.3431 -19.0851 -19.0230
   -18.9436 -18.8884 -17.8192 -17.7436 -17.5797 -17.5213 -17.5115 -17.4522
   -15.5590 -15.5341 -15.3821 -15.3494 -15.3203 -15.2412 -15.2149 -15.1848
   -15.1417 -15.1143 -15.1103 -14.9616 -14.9482 -14.8510 -14.8163 -14.8115
   -14.7976 -14.7548 -14.7546 -14.7350 -14.6607 -14.5944 -14.5932 -14.5624
   -14.5528 -14.5498 -14.5438 -14.5312 -13.4863 -13.1735  -9.4722  -9.4613
    -9.2957  -9.1793  -9.1780  -9.1675  -8.9668  -8.9266  -8.8361  -8.7105
    -8.6963  -8.6326  -8.6208  -8.6195  -8.6166  -8.6090  -8.4987  -8.3645
    -8.3258  -8.2201  -8.2095  -8.0926  -8.0334  -7.9264  -4.8892  -4.8357
    -4.4531  -4.3705  -4.0385  -4.0213  -3.8548  -3.7800  -3.7146  -3.7041
    -3.6510  -3.6436  -3.6338  -3.5568  -3.2668  -3.2591  -3.1648  -3.1275
    -3.1021  -3.0866  -2.8494  -2.8448  -2.7475  -2.7431  -2.6044  -2.5582
    -2.5556  -2.5132  -2.4847  -2.4408  -2.2432  -2.2306  -2.2006  -1.9913
    -1.9653  -1.9390  -1.9373  -1.9306  -1.8603  -1.8213  -1.8161  -1.7659
    -1.7027  -1.7003  -1.6713  -1.6657  -1.6655  -1.6570  -1.5415  -1.5176
    -1.5157  -1.4915  -1.4633  -1.4621  -1.4526  -1.4427  -1.4277  -1.4164
    -1.3227  -1.3100  -1.3016  -1.3004  -1.1649  -1.1518  -1.0985  -0.7959
    -0.7874  -0.7341  -0.7330  -0.7150  -0.6984  -0.6823  -0.6440  -0.5897
    -0.4242  -0.4079  -0.3926  -0.3615  -0.3417  -0.3286  -0.3097  -0.2927
    -0.1168  -0.0734  -0.0291  -0.0260   0.2500   0.2529   0.2733   0.3568
     0.4063   0.4326   0.4397   0.4631   0.5529   0.5577   0.5600   0.6150
     0.6163   0.6604   0.7187   0.7318   0.7368   0.7505   0.7521   0.7594
     0.7719   0.8059   0.8222   0.8368   0.9881   1.0037   1.0339   1.0415
     1.0832   1.1108   1.1162   1.1339   1.1657   1.2090   1.2610   1.2755
     1.2762   1.3023   1.3036   1.3072   1.3362   1.3422   1.3608   1.3626
     1.4043   1.4758   1.5327   1.5443   1.5489   1.5692   1.5869   1.5989
     1.6083   1.6115   1.7290   1.8161   1.8314   1.8406   1.8737   1.9763
     2.0156   2.0247   2.0251   2.0854   2.1157   2.1247   2.1611   2.2877
     2.2926   2.3458   3.9924   4.0299   4.0894   4.1042   5.2068   5.2300
     5.2370   5.9317   6.0485   7.1442   7.2062   7.2160   7.3186   7.3256
     7.5184   7.6158   7.7142   7.7311   7.7848   7.8787   8.0934   8.1145
     8.1734   8.2126   8.2631   8.2701   8.3404   8.3774   8.4749   8.4850
     8.5036   8.5046   8.6210   8.6335   8.6725   8.7296   8.7412   8.8794
     8.9235   9.0351

          k = 0.1250 0.0000 0.0000 ( 76237 PWs)   bands (ev):

   -38.7615 -38.6983 -36.3966 -36.3243 -23.5496 -23.5007 -23.4897 -23.3817
   -23.3707 -23.3518 -23.1913 -22.9744 -19.2339 -19.1801 -19.1313 -19.0694
   -18.7656 -18.7010 -17.7456 -17.6763 -17.6210 -17.5533 -17.4280 -17.3522
   -16.1112 -16.0699 -15.6637 -15.6455 -15.4626 -15.3434 -15.3039 -15.2808
   -15.2552 -15.2533 -15.2020 -15.1521 -15.1394 -15.1281 -14.9791 -14.9580
   -14.8170 -14.7752 -14.7145 -14.6820 -14.6747 -14.6725 -14.6664 -14.6570
   -14.6341 -14.5584 -14.4908 -14.4329 -13.5214 -13.0846  -8.8947  -8.7463
    -8.7326  -8.6408  -8.6273  -8.5958  -8.5405  -8.5300  -8.4695  -8.4079
    -8.3973  -8.3932  -8.3468  -8.3262  -8.3160  -8.2730  -8.2664  -8.2326
    -8.1899  -8.1877  -8.1769  -8.0153  -7.8161  -7.7125  -3.6498  -3.6257
    -3.5393  -3.4406  -2.8549  -2.8481  -2.7888  -2.7834  -2.7677  -2.7311
    -2.6561  -2.5878  -2.5728  -2.5509  -2.5364  -2.5238  -2.4896  -2.4788
    -2.4156  -2.3843  -2.3766  -2.3496  -2.2392  -2.1811  -2.1056  -2.0742
    -1.8521  -1.8063  -1.7695  -1.7349  -1.7182  -1.6568  -1.6465  -1.6025
    -1.6010  -1.5933  -1.5924  -1.5914  -1.5858  -1.5445  -1.4678  -1.3851
    -1.3585  -1.3514  -1.1079  -1.0827  -1.0249  -1.0080  -0.9819  -0.9516
    -0.9178  -0.9128  -0.8927  -0.8895  -0.8690  -0.8676  -0.8666  -0.8432
    -0.8335  -0.8323  -0.8270  -0.7981  -0.7912  -0.6710  -0.6427  -0.6349
    -0.6262  -0.6254  -0.6059  -0.5965  -0.5795  -0.5318  -0.4925  -0.4775
    -0.4679  -0.4675  -0.4597  -0.4560  -0.4069  -0.3991  -0.3954  -0.3707
    -0.3625  -0.3285  -0.3010  -0.2720  -0.2509  -0.2505  -0.2048  -0.1507
    -0.1312  -0.1157  -0.1050  -0.1028  -0.0863  -0.0636  -0.0605  -0.0600
     0.0763   0.0957   0.1910   0.2519   0.2618   0.2923   0.3062   0.3126
     0.3792   0.4023   0.4321   0.4447   0.4773   0.5088   0.5132   0.5456
     0.5467   0.5790   0.6003   0.6138   0.6343   0.6418   0.7326   0.7551
     0.7580   0.8000   0.8122   0.8326   0.8526   0.8761   0.9098   0.9616
     1.0205   1.0698   1.0991   1.1021   1.1039   1.1544   1.1662   1.1876
     1.1928   1.1981   1.2306   1.2930   1.3117   1.4116   1.4260   1.4762
     1.5854   1.5963   1.7349   1.7730   1.7757   1.8139   1.8681   1.9308
     1.9583   1.9873   1.9881   2.0350   2.2230   2.2773   4.3793   4.6548
     4.6597   5.3008   5.3601   5.8061   5.9801   6.0445   6.0627   6.2378
     6.2765   6.2820   6.2904   6.8308   6.8755   6.9202   7.1106   7.1187
     7.1934   7.3284   7.4398   7.4616   7.5068   7.5226   7.6989   7.7913
     7.8181   7.9024   7.9785   8.0165   8.0393   8.1079   8.2482   8.4168
     8.4736   8.5114

          k = 0.1250 0.2618 0.0000 ( 76197 PWs)   bands (ev):

   -38.7589 -38.6956 -36.3949 -36.3226 -23.5309 -23.4764 -23.4653 -23.3623
   -23.3513 -23.3282 -23.1721 -22.9539 -19.1954 -19.1413 -19.1240 -19.0622
   -18.8763 -18.8123 -17.7161 -17.6467 -17.6161 -17.5483 -17.4938 -17.4182
   -16.0058 -15.9648 -15.6098 -15.5916 -15.4089 -15.3060 -15.2893 -15.2461
   -15.2454 -15.1722 -15.1429 -15.1290 -15.1267 -15.0989 -14.9411 -14.9169
   -14.8126 -14.7744 -14.7723 -14.7307 -14.6970 -14.6623 -14.6597 -14.6558
   -14.6489 -14.5938 -14.4919 -14.4602 -13.4771 -13.1445  -8.8855  -8.7392
    -8.7266  -8.6548  -8.6425  -8.6077  -8.5666  -8.5561  -8.4940  -8.4834
    -8.4620  -8.4205  -8.3961  -8.3956  -8.3852  -8.3838  -8.3398  -8.3380
    -8.3283  -8.2701  -8.2049  -8.1867  -7.8843  -7.8173  -3.7593  -3.7216
    -3.5903  -3.4937  -2.9949  -2.9798  -2.9556  -2.8823  -2.8642  -2.8567
    -2.7588  -2.7488  -2.7346  -2.6887  -2.6379  -2.5802  -2.5259  -2.4878
    -2.4351  -2.4283  -2.4255  -2.3786  -2.3347  -2.2801  -2.1720  -2.1248
    -2.1199  -2.1105  -2.0459  -2.0354  -2.0230  -2.0134  -2.0098  -1.9885
    -1.9546  -1.8758  -1.6913  -1.5419  -1.5279  -1.4807  -1.3910  -1.3716
    -1.3249  -1.3000  -1.2638  -1.2547  -1.2125  -1.2048  -1.0798  -1.0590
    -1.0091  -0.9958  -0.9924  -0.9741  -0.9687  -0.9423  -0.9251  -0.8706
    -0.8028  -0.8008  -0.7586  -0.7565  -0.6934  -0.6637  -0.6294  -0.6226
    -0.6163  -0.5759  -0.5509  -0.5303  -0.5248  -0.5120  -0.4799  -0.4677
    -0.4618  -0.4548  -0.4287  -0.4241  -0.3943  -0.3621  -0.3411  -0.3323
    -0.3247  -0.2841  -0.2708  -0.2412  -0.2385  -0.2273  -0.2140  -0.2047
    -0.1680  -0.1641  -0.1368  -0.1316   0.0098   0.0157   0.0218   0.0929
     0.1240   0.1365   0.2147   0.2366   0.2954   0.3176   0.3488   0.4056
     0.4427   0.4622   0.4887   0.5463   0.5689   0.5723   0.5912   0.5932
     0.6021   0.6477   0.6490   0.6667   0.6744   0.7324   0.7609   0.7747
     0.7768   0.7839   0.8624   0.8830   0.8976   0.9549   0.9764   1.0264
     1.0337   1.0788   1.0863   1.0877   1.0945   1.1294   1.1501   1.1631
     1.1704   1.2070   1.2337   1.3269   1.3665   1.4707   1.5272   1.5677
     1.5747   1.8577   1.9885   2.0076   2.0813   2.1531   2.1813   2.2008
     2.2536   2.2626   2.2989   2.3286   2.5030   2.5327   4.6506   5.0186
     5.0268   5.5699   5.6237   5.9373   6.1752   6.3146   6.3229   6.3618
     6.3785   6.5280   6.5995   6.8902   6.9494   6.9846   7.0862   7.1178
     7.2452   7.2620   7.3640   7.5619   7.6541   7.6982   7.8535   7.8915
     7.9674   8.0762   8.1199   8.1803   8.1963   8.2833   8.4460   8.5217
     8.5668   8.6215

          k = 0.1250 0.5236 0.0000 ( 76158 PWs)   bands (ev):

   -38.7523 -38.6891 -36.3908 -36.3185 -23.4850 -23.4164 -23.4053 -23.3149
   -23.3039 -23.2701 -23.1250 -22.9034 -19.1171 -19.1066 -19.0951 -19.0541
   -19.0447 -19.0405 -17.6487 -17.6308 -17.6044 -17.5745 -17.5603 -17.5364
   -15.7661 -15.7276 -15.4684 -15.4499 -15.3315 -15.2929 -15.2767 -15.2149
   -15.1540 -15.1302 -15.1165 -15.0466 -14.9806 -14.9581 -14.9269 -14.8783
   -14.8459 -14.8069 -14.7909 -14.7708 -14.7661 -14.6656 -14.6445 -14.6306
   -14.6090 -14.5972 -14.5433 -14.4712 -13.3642 -13.2863  -8.9576  -8.9469
    -8.8650  -8.7844  -8.7198  -8.7194  -8.7082  -8.6877  -8.6761  -8.6358
    -8.6245  -8.5935  -8.5897  -8.5804  -8.5444  -8.5319  -8.4411  -8.4031
    -8.3417  -8.3313  -8.2937  -8.1592  -8.0386  -7.9236  -4.1658  -4.1107
    -3.8260  -3.7353  -3.4931  -3.4674  -3.3423  -3.2771  -3.0946  -3.0814
    -3.0124  -2.9628  -2.9064  -2.8993  -2.8903  -2.8643  -2.8569  -2.7773
    -2.7211  -2.7132  -2.7091  -2.7012  -2.6018  -2.5618  -2.5198  -2.4902
    -2.4532  -2.4361  -2.3516  -2.3249  -2.3071  -2.2773  -2.2663  -2.2164
    -1.8993  -1.8493  -1.7744  -1.6497  -1.6393  -1.6042  -1.5583  -1.5309
    -1.4872  -1.4636  -1.4286  -1.4011  -1.3536  -1.3397  -1.3351  -1.2763
    -1.2699  -1.2295  -1.1982  -1.1637  -1.1442  -1.1282  -1.1257  -1.0792
    -1.0660  -1.0191  -0.9951  -0.9623  -0.9596  -0.9092  -0.8886  -0.8771
    -0.8214  -0.7170  -0.7031  -0.6554  -0.5683  -0.5325  -0.5190  -0.4958
    -0.4610  -0.4560  -0.3880  -0.3800  -0.3447  -0.3102  -0.3016  -0.2833
    -0.2138  -0.1897  -0.1848  -0.1352   0.0014   0.0157   0.0232   0.0522
     0.1222   0.1887   0.2062   0.2263   0.2329   0.3539   0.4045   0.4181
     0.4316   0.4537   0.4588   0.4819   0.5203   0.5375   0.5725   0.5849
     0.6025   0.6425   0.6471   0.6958   0.7009   0.7159   0.7315   0.7389
     0.7738   0.7915   0.7963   0.8242   0.8422   0.8592   0.8914   0.9246
     0.9441   0.9853   1.0095   1.0247   1.0594   1.0818   1.1025   1.1238
     1.1337   1.1584   1.1804   1.1991   1.2027   1.2094   1.2173   1.2912
     1.3032   1.3493   1.4104   1.4378   1.4484   1.5281   1.6129   1.6844
     1.7273   1.7451   1.9497   2.1299   2.3866   2.4072   2.4717   2.4994
     2.5084   2.5172   3.1357   3.1593   3.2282   3.2612   5.1656   5.8965
     5.9047   6.0036   6.0152   6.1595   6.2923   6.3525   6.4340   6.5130
     6.6010   7.1327   7.2228   7.2367   7.3040   7.4117   7.5065   7.5946
     7.7283   7.7751   7.8067   7.8477   7.8882   7.9759   8.0428   8.1027
     8.1216   8.2202   8.2521   8.3994   8.4237   8.4879   8.6287   8.6715
     8.7412   8.7733

          k = 0.1250 0.7854 0.0000 ( 76146 PWs)   bands (ev):

   -38.7458 -38.6826 -36.3867 -36.3144 -23.4382 -23.3546 -23.3435 -23.2663
   -23.2553 -23.2105 -23.0766 -22.8516 -19.3251 -19.2624 -19.0893 -19.0272
   -18.9903 -18.9353 -17.7689 -17.6931 -17.5933 -17.5590 -17.5253 -17.4900
   -15.5394 -15.5184 -15.4369 -15.3819 -15.3008 -15.2798 -15.2349 -15.1789
   -15.1576 -15.1338 -15.0851 -14.9669 -14.9557 -14.9470 -14.8427 -14.8302
   -14.8181 -14.8085 -14.7541 -14.7339 -14.7209 -14.6506 -14.5923 -14.5817
   -14.5786 -14.5623 -14.5499 -14.5059 -13.4220 -13.2414  -9.3091  -9.2984
    -9.1305  -9.0356  -9.0171  -9.0067  -8.8431  -8.8244  -8.7769  -8.7035
    -8.6911  -8.6397  -8.6362  -8.6283  -8.6241  -8.6137  -8.5070  -8.3762
    -8.3154  -8.2876  -8.2770  -8.1170  -8.1012  -7.9510  -4.6504  -4.5962
    -4.2320  -4.1481  -3.9002  -3.8792  -3.7132  -3.6423  -3.4773  -3.4676
    -3.4390  -3.4160  -3.4063  -3.3426  -3.2246  -3.2166  -3.1319  -3.0711
    -2.9728  -2.9318  -2.8291  -2.8239  -2.7593  -2.7546  -2.5366  -2.4845
    -2.4833  -2.4663  -2.4383  -2.3986  -2.3495  -2.3036  -2.2363  -2.1902
    -2.0807  -1.8893  -1.8556  -1.8475  -1.7826  -1.7345  -1.6996  -1.6734
    -1.6707  -1.6650  -1.6464  -1.6124  -1.6103  -1.5941  -1.4913  -1.4419
    -1.4341  -1.4135  -1.4028  -1.3709  -1.3542  -1.3406  -1.3394  -1.3318
    -1.2273  -1.2177  -1.2148  -1.1977  -1.1738  -1.1298  -1.0432  -0.8426
    -0.8353  -0.7701  -0.7059  -0.6731  -0.6301  -0.5675  -0.5605  -0.4515
    -0.4480  -0.4434  -0.4105  -0.3630  -0.3498  -0.3221  -0.2843  -0.2812
    -0.1541  -0.0837  -0.0527  -0.0439   0.1561   0.1871   0.2595   0.2686
     0.3410   0.3798   0.4070   0.4356   0.4658   0.4766   0.5592   0.5904
     0.6045   0.6182   0.6383   0.6387   0.6736   0.6767   0.7073   0.7349
     0.7545   0.7731   0.7899   0.8426   0.9055   0.9236   0.9484   0.9555
     0.9983   1.0412   1.0601   1.0640   1.0791   1.0901   1.1211   1.1377
     1.1717   1.1796   1.1816   1.1976   1.2055   1.2344   1.2471   1.2609
     1.3018   1.3318   1.3655   1.3722   1.3902   1.4765   1.4954   1.5584
     1.5801   1.6352   1.6375   1.6449   1.6483   1.7434   1.7746   1.8177
     1.8441   1.8534   2.0343   2.0918   2.2645   2.3304   2.3319   2.4321
     2.4383   2.4820   3.7328   3.7665   3.8103   3.8291   5.3212   5.5238
     5.5313   6.0824   6.1826   6.5976   6.7690   6.7820   7.0064   7.1458
     7.2690   7.4637   7.6296   7.6718   7.7385   7.7964   7.9414   7.9696
     8.0234   8.0916   8.1636   8.2269   8.2568   8.3214   8.3943   8.4198
     8.4985   8.5379   8.5547   8.5862   8.6759   8.7446   8.7871   8.7966
     8.8634   8.9235

          k = 0.1250-1.0472 0.0000 ( 76194 PWs)   bands (ev):

   -38.7431 -38.6799 -36.3850 -36.3127 -23.4186 -23.3285 -23.3174 -23.2458
   -23.2348 -23.1853 -23.0562 -22.8297 -19.4056 -19.3431 -19.0821 -19.0200
   -18.9431 -18.8879 -17.8192 -17.7436 -17.5888 -17.5233 -17.5207 -17.4543
   -15.5479 -15.5229 -15.3581 -15.3252 -15.3140 -15.2422 -15.2017 -15.1717
   -15.1636 -15.1281 -15.1113 -14.9565 -14.9442 -14.8620 -14.8283 -14.8227
   -14.8152 -14.7723 -14.7488 -14.7305 -14.6596 -14.5996 -14.5947 -14.5619
   -14.5529 -14.5493 -14.5447 -14.5321 -13.4758 -13.1871  -9.4419  -9.4311
    -9.2671  -9.1525  -9.1475  -9.1370  -8.9381  -8.9009  -8.8357  -8.7066
    -8.6928  -8.6546  -8.6440  -8.6340  -8.6211  -8.6195  -8.5306  -8.3652
    -8.3254  -8.2639  -8.2533  -8.1203  -8.0744  -7.9624  -4.8509  -4.7981
    -4.4186  -4.3365  -4.0560  -4.0374  -3.8653  -3.7899  -3.7120  -3.7017
    -3.6486  -3.6463  -3.6365  -3.5590  -3.2502  -3.2422  -3.1493  -3.1008
    -3.0848  -3.0603  -2.8519  -2.8471  -2.7485  -2.7440  -2.5971  -2.5478
    -2.5187  -2.4945  -2.4779  -2.4423  -2.3005  -2.2244  -2.1510  -2.0927
    -2.0465  -2.0278  -1.9944  -1.9288  -1.9152  -1.8469  -1.8055  -1.7764
    -1.7597  -1.7542  -1.6868  -1.6830  -1.6825  -1.6461  -1.5437  -1.5349
    -1.5068  -1.4939  -1.4752  -1.4575  -1.4475  -1.4378  -1.4295  -1.3928
    -1.3161  -1.3076  -1.2915  -1.2914  -1.1582  -1.1370  -1.0738  -0.8089
    -0.8018  -0.7388  -0.6990  -0.6630  -0.6419  -0.6045  -0.5942  -0.5917
    -0.4446  -0.4400  -0.4117  -0.3775  -0.3576  -0.3165  -0.3077  -0.2857
    -0.1245  -0.0387  -0.0229   0.0241   0.2157   0.2804   0.3010   0.3603
     0.3626   0.4298   0.4464   0.4585   0.5144   0.5670   0.5673   0.6114
     0.6151   0.6503   0.6841   0.7233   0.7473   0.7492   0.7621   0.7713
     0.7767   0.8041   0.8293   0.8649   0.9123   0.9843   1.0070   1.0237
     1.0684   1.0978   1.1723   1.2007   1.2158   1.2172   1.2431   1.2871
     1.2987   1.3026   1.3032   1.3315   1.3441   1.3482   1.3703   1.3801
     1.5139   1.5439   1.5482   1.5494   1.5772   1.5919   1.5954   1.5969
     1.6063   1.6111   1.7265   1.8163   1.8381   1.8473   1.8723   1.9752
     2.0083   2.0178   2.0290   2.0406   2.0793   2.1195   2.1619   2.2859
     2.3009   2.3607   3.9146   3.9518   4.0136   4.0296   5.2586   5.2976
     5.3051   5.9644   6.0768   7.1125   7.1224   7.1318   7.3080   7.3325
     7.5283   7.5355   7.6057   7.6209   7.7614   7.8415   8.1156   8.1397
     8.2332   8.2511   8.2831   8.3681   8.4124   8.4463   8.4657   8.5191
     8.5556   8.5849   8.6539   8.6723   8.6779   8.7417   8.7829   8.9144
     8.9806   9.0005

          k = 0.2500 0.0000 0.0000 ( 76205 PWs)   bands (ev):

   -38.7615 -38.6983 -36.3966 -36.3243 -23.5482 -23.4881 -23.4771 -23.3950
   -23.3841 -23.3436 -23.2002 -22.9763 -19.2322 -19.1783 -19.1234 -19.0615
   -18.7656 -18.7010 -17.7527 -17.6836 -17.6493 -17.5823 -17.4280 -17.3522
   -16.0370 -15.9955 -15.6243 -15.6088 -15.4566 -15.3371 -15.3356 -15.3118
   -15.3051 -15.2634 -15.2533 -15.1764 -15.1596 -15.1503 -14.9464 -14.9160
   -14.7970 -14.7596 -14.7180 -14.6884 -14.6781 -14.6781 -14.6708 -14.6608
   -14.6471 -14.5672 -14.5039 -14.4306 -13.4740 -13.1392  -8.8951  -8.7511
    -8.7376  -8.6481  -8.6350  -8.6063  -8.5075  -8.4970  -8.4909  -8.3929
    -8.3843  -8.3736  -8.3453  -8.3350  -8.3102  -8.2616  -8.2601  -8.2139
    -8.2116  -8.2031  -8.1929  -8.0386  -7.8253  -7.7187  -3.5491  -3.5247
    -3.4447  -3.3453  -2.8765  -2.8652  -2.8265  -2.8196  -2.7577  -2.7559
    -2.7218  -2.6543  -2.6229  -2.5846  -2.5668  -2.5307  -2.5280  -2.4718
    -2.4356  -2.4086  -2.3943  -2.3807  -2.1975  -2.1734  -2.1406  -2.1351
    -1.7888  -1.7794  -1.7225  -1.6899  -1.6691  -1.6537  -1.6253  -1.5995
    -1.5958  -1.5896  -1.5860  -1.5652  -1.5194  -1.4748  -1.4254  -1.3271
    -1.2997  -1.2927  -1.1528  -1.0916  -1.0692  -1.0499  -0.9907  -0.9802
    -0.9720  -0.9631  -0.9547  -0.9206  -0.9189  -0.9168  -0.9011  -0.8935
    -0.8854  -0.8798  -0.8573  -0.8132  -0.7872  -0.6875  -0.6688  -0.6484
    -0.6475  -0.6342  -0.6293  -0.6111  -0.6013  -0.5285  -0.5270  -0.4771
    -0.4532  -0.4045  -0.3969  -0.3877  -0.3870  -0.3845  -0.3783  -0.3644
    -0.3528  -0.2675  -0.2616  -0.2606  -0.2413  -0.2133  -0.1822  -0.1375
    -0.1292  -0.1221  -0.1172  -0.1013  -0.0778  -0.0548  -0.0518  -0.0425
     0.0429   0.0576   0.1888   0.2128   0.2430   0.2562   0.2711   0.3265
     0.3515   0.3642   0.3828   0.3951   0.3954   0.4579   0.4585   0.4707
     0.5542   0.5947   0.6023   0.6317   0.6625   0.6676   0.7343   0.7460
     0.7728   0.8097   0.8155   0.8918   0.8928   0.9138   0.9365   0.9399
     0.9829   1.0415   1.0885   1.1013   1.1384   1.1494   1.1754   1.1906
     1.1918   1.1930   1.3750   1.3778   1.3976   1.4006   1.4040   1.4399
     1.5593   1.5748   1.6999   1.7501   1.7925   1.7971   1.8539   1.9016
     1.9727   1.9925   2.0115   2.0387   2.2021   2.2561   4.4958   4.7884
     4.7951   5.4511   5.4996   5.6202   5.8964   5.9040   5.9388   6.2075
     6.2245   6.3736   6.4392   6.7369   6.7495   6.9282   7.2236   7.3308
     7.3547   7.3911   7.4183   7.4644   7.5254   7.6105   7.6988   7.7738
     7.8354   7.9078   8.0721   8.0880   8.1303   8.1561   8.2476   8.3362
     8.4377   8.4917

          k = 0.2500 0.2618 0.0000 ( 76186 PWs)   bands (ev):

   -38.7589 -38.6956 -36.3949 -36.3226 -23.5296 -23.4643 -23.4533 -23.3750
   -23.3641 -23.3205 -23.1805 -22.9556 -19.1937 -19.1396 -19.1162 -19.0543
   -18.8763 -18.8122 -17.7228 -17.6537 -17.6431 -17.5760 -17.4936 -17.4180
   -15.9331 -15.8920 -15.5749 -15.5596 -15.4018 -15.3098 -15.2909 -15.2730
   -15.2517 -15.2202 -15.2157 -15.1622 -15.1426 -15.1179 -14.9082 -14.8747
   -14.7979 -14.7738 -14.7609 -14.7370 -14.7103 -14.6678 -14.6607 -14.6575
   -14.6540 -14.5990 -14.5087 -14.4502 -13.4397 -13.1844  -8.8855  -8.7455
    -8.7331  -8.6745  -8.6628  -8.6204  -8.6184  -8.6095  -8.5396  -8.5288
    -8.5012  -8.4481  -8.4157  -8.4108  -8.3747  -8.3225  -8.3121  -8.2796
    -8.2713  -8.2677  -8.1437  -8.1308  -7.8583  -7.7921  -3.6557  -3.6173
    -3.4887  -3.3924  -3.0334  -3.0137  -2.9694  -2.8910  -2.8445  -2.8355
    -2.7876  -2.7724  -2.7411  -2.6982  -2.6910  -2.6295  -2.5840  -2.5470
    -2.5243  -2.4851  -2.4691  -2.4465  -2.3324  -2.2692  -2.1461  -2.1214
    -2.1028  -2.0810  -2.0407  -2.0292  -2.0229  -2.0124  -1.9351  -1.9057
    -1.8801  -1.8038  -1.6682  -1.5532  -1.5463  -1.4955  -1.4245  -1.3752
    -1.3530  -1.3136  -1.3072  -1.2749  -1.2362  -1.2200  -1.1984  -1.1852
    -1.1251  -1.0910  -0.9970  -0.9747  -0.9533  -0.9302  -0.9237  -0.8685
    -0.7844  -0.7795  -0.7285  -0.7211  -0.6804  -0.6638  -0.6449  -0.6255
    -0.6244  -0.6150  -0.5849  -0.5778  -0.5366  -0.5307  -0.4818  -0.4750
    -0.4649  -0.4577  -0.4382  -0.4196  -0.3760  -0.3472  -0.3202  -0.2991
    -0.2907  -0.2608  -0.2597  -0.2346  -0.2328  -0.2254  -0.2093  -0.1990
    -0.1487  -0.1248  -0.1089  -0.0747  -0.0321  -0.0199   0.0427   0.0848
     0.1202   0.1338   0.2310   0.2604   0.2865   0.3026   0.3900   0.4467
     0.4575   0.4702   0.4887   0.5081   0.5168   0.5347   0.5559   0.5800
     0.5859   0.5964   0.6235   0.6299   0.6869   0.6961   0.7030   0.7359
     0.8074   0.8173   0.8294   0.8758   0.8863   0.9961   1.0159   1.0268
     1.0338   1.0421   1.0439   1.0503   1.0915   1.1033   1.1095   1.1343
     1.1596   1.1622   1.2048   1.3948   1.4735   1.5424   1.6581   1.7257
     1.7871   1.9330   1.9902   2.0444   2.0846   2.1437   2.1725   2.1970
     2.2578   2.2684   2.2918   2.3221   2.4722   2.5021   4.7385   5.1251
     5.1336   5.6913   5.7263   5.8012   6.0324   6.0407   6.1047   6.5210
     6.5382   6.6636   6.7497   6.7847   6.8125   6.9982   7.1793   7.2730
     7.3457   7.4489   7.4611   7.5591   7.6364   7.7747   7.8578   7.9092
     7.9760   8.0632   8.1189   8.2100   8.2530   8.3111   8.3359   8.4145
     8.4979   8.5292

          k = 0.2500 0.5236 0.0000 ( 76142 PWs)   bands (ev):

   -38.7523 -38.6891 -36.3908 -36.3185 -23.4840 -23.4059 -23.3948 -23.3259
   -23.3149 -23.2636 -23.1320 -22.9048 -19.1170 -19.0990 -19.0938 -19.0538
   -19.0392 -19.0370 -17.6525 -17.6337 -17.6277 -17.5798 -17.5640 -17.5583
   -15.6985 -15.6605 -15.4486 -15.4334 -15.3271 -15.2885 -15.2744 -15.1997
   -15.1555 -15.1340 -15.1176 -15.0588 -15.0535 -15.0454 -14.9341 -14.8886
   -14.8220 -14.8084 -14.7837 -14.7781 -14.7523 -14.6552 -14.6407 -14.6260
   -14.6132 -14.6013 -14.5425 -14.4732 -13.3538 -13.2939  -8.9930  -8.9824
    -8.8645  -8.8142  -8.7439  -8.7399  -8.7292  -8.7037  -8.6916  -8.6409
    -8.6292  -8.5934  -8.5643  -8.5593  -8.5547  -8.5483  -8.4223  -8.4034
    -8.2974  -8.2946  -8.2838  -8.1238  -8.0357  -7.8833  -4.0651  -4.0107
    -3.7233  -3.6341  -3.5310  -3.4995  -3.3518  -3.2861  -3.0757  -3.0636
    -3.0042  -2.9511  -2.9116  -2.9044  -2.8818  -2.8620  -2.8545  -2.7850
    -2.7291  -2.7202  -2.7059  -2.6982  -2.6207  -2.5485  -2.5348  -2.5069
    -2.4834  -2.4819  -2.4607  -2.4066  -2.2687  -2.2400  -2.2209  -2.1942
    -1.9315  -1.8838  -1.7992  -1.6846  -1.6829  -1.6302  -1.5993  -1.5673
    -1.5630  -1.5351  -1.5150  -1.4868  -1.4651  -1.4479  -1.3690  -1.3330
    -1.2664  -1.2240  -1.1819  -1.1526  -1.1380  -1.1125  -1.1112  -1.0890
    -1.0508  -1.0282  -1.0055  -0.9418  -0.9391  -0.9196  -0.8830  -0.8524
    -0.8183  -0.7237  -0.6990  -0.6697  -0.6341  -0.6132  -0.5211  -0.4968
    -0.4506  -0.4347  -0.3851  -0.3653  -0.3026  -0.2807  -0.2539  -0.2364
    -0.1851  -0.1297  -0.1149  -0.0991  -0.0319   0.0011   0.0934   0.1076
     0.1397   0.1892   0.2330   0.2552   0.2645   0.3169   0.3787   0.4082
     0.4223   0.4495   0.4530   0.4721   0.4937   0.5014   0.5190   0.5305
     0.5770   0.5983   0.6191   0.6211   0.6327   0.7387   0.7406   0.7699
     0.7975   0.8169   0.8495   0.8554   0.8620   0.8641   0.8879   0.9267
     0.9325   0.9690   0.9799   1.0123   1.0321   1.0543   1.0834   1.1003
     1.1015   1.1034   1.1149   1.1663   1.1965   1.2258   1.2406   1.2597
     1.2794   1.3008   1.4132   1.4215   1.5683   1.8322   1.8636   1.8800
     1.9360   1.9713   2.0297   2.2170   2.3851   2.4107   2.4738   2.4949
     2.5161   2.5259   3.0334   3.0581   3.1386   3.1727   5.2181   5.9368
     5.9452   6.0198   6.0328   6.1524   6.3437   6.4063   6.4907   6.5429
     6.6137   7.0638   7.3306   7.3613   7.3748   7.4868   7.5783   7.5948
     7.6869   7.7009   7.7703   7.7755   7.7967   7.9732   8.0443   8.1281
     8.1318   8.2435   8.2846   8.4096   8.4174   8.5014   8.6333   8.6516
     8.6916   8.7109

          k = 0.2500 0.7854 0.0000 ( 76172 PWs)   bands (ev):

   -38.7458 -38.6826 -36.3867 -36.3144 -23.4374 -23.3457 -23.3346 -23.2755
   -23.2646 -23.2052 -23.0822 -22.8526 -19.3250 -19.2623 -19.0819 -19.0198
   -18.9890 -18.9340 -17.7688 -17.6931 -17.6157 -17.5641 -17.5482 -17.4953
   -15.4943 -15.4766 -15.3943 -15.3325 -15.3055 -15.2886 -15.2130 -15.1663
   -15.1609 -15.1279 -15.0883 -14.9794 -14.9618 -14.9487 -14.8890 -14.8884
   -14.8644 -14.8396 -14.7474 -14.7214 -14.7132 -14.6461 -14.5890 -14.5771
   -14.5753 -14.5651 -14.5523 -14.5102 -13.4018 -13.2636  -9.2692  -9.2585
    -9.0893  -9.0051  -8.9080  -8.8976  -8.8427  -8.7663  -8.7556  -8.7268
    -8.7203  -8.6875  -8.6753  -8.6427  -8.6306  -8.6168  -8.6031  -8.3800
    -8.3438  -8.3333  -8.3150  -8.1945  -8.1608  -7.9792  -4.5468  -4.4947
    -4.1372  -4.0554  -3.9510  -3.9250  -3.7397  -3.6673  -3.4700  -3.4604
    -3.4308  -3.4232  -3.4134  -3.3491  -3.1810  -3.1721  -3.0914  -3.0252
    -2.8862  -2.8503  -2.8391  -2.8299  -2.7551  -2.7500  -2.5689  -2.5103
    -2.4831  -2.4643  -2.4371  -2.4120  -2.3807  -2.3777  -2.3400  -2.2909
    -2.0299  -2.0268  -1.9990  -1.8790  -1.8752  -1.8734  -1.8237  -1.7516
    -1.7235  -1.6980  -1.6962  -1.6680  -1.6072  -1.5879  -1.4837  -1.4126
    -1.3970  -1.3891  -1.3865  -1.3794  -1.3604  -1.3322  -1.3165  -1.2992
    -1.2377  -1.2253  -1.1883  -1.1556  -1.1333  -1.1022  -1.0510  -0.8777
    -0.8712  -0.7984  -0.7089  -0.6935  -0.6813  -0.6527  -0.4870  -0.4395
    -0.4240  -0.4075  -0.3442  -0.3134  -0.2711  -0.2452  -0.2287  -0.1825
    -0.1631  -0.0826   0.0401   0.0777   0.0874   0.1791   0.2344   0.3051
     0.3399   0.3488   0.3770   0.4314   0.5063   0.5392   0.5471   0.5560
     0.5747   0.5896   0.6241   0.6369   0.6755   0.6882   0.7019   0.7193
     0.7440   0.7529   0.7711   0.8028   0.8675   0.8952   0.9095   0.9469
     0.9595   0.9895   1.0265   1.0392   1.0805   1.0925   1.1134   1.1323
     1.1338   1.1646   1.1880   1.2005   1.2403   1.2480   1.2612   1.2730
     1.2792   1.3269   1.3416   1.3673   1.3936   1.5481   1.5839   1.6123
     1.6230   1.6621   1.6708   1.7911   1.8192   1.8296   1.8539   1.8571
     1.9230   2.0318   2.0341   2.1718   2.2688   2.3346   2.3352   2.4251
     2.4779   2.5132   3.5432   3.5760   3.6367   3.6586   5.4198   5.6793
     5.6874   6.1648   6.2528   6.6389   6.6618   6.6878   6.9719   7.0951
     7.2253   7.4005   7.5398   7.5645   7.6442   7.7550   7.9347   7.9838
     7.9919   8.1196   8.1276   8.2602   8.3068   8.3763   8.4430   8.5005
     8.5206   8.5778   8.6094   8.6254   8.7524   8.7650   8.8001   8.8622
     8.8978   8.9266

          k = 0.2500-1.0472 0.0000 ( 76172 PWs)   bands (ev):

   -38.7431 -38.6799 -36.3850 -36.3127 -23.4178 -23.3203 -23.3092 -23.2542
   -23.2433 -23.1806 -23.0612 -22.8307 -19.4055 -19.3430 -19.0748 -19.0126
   -18.9420 -18.8867 -17.8193 -17.7436 -17.6104 -17.5428 -17.5281 -17.4592
   -15.5162 -15.4907 -15.3026 -15.2926 -15.2596 -15.2549 -15.2059 -15.1655
   -15.1610 -15.1361 -15.1128 -14.9493 -14.9374 -14.8933 -14.8656 -14.8553
   -14.8544 -14.8226 -14.7317 -14.7184 -14.6605 -14.6176 -14.5955 -14.5604
   -14.5531 -14.5477 -14.5472 -14.5346 -13.4454 -13.2249  -9.3551  -9.3443
    -9.1854  -9.0814  -9.0588  -9.0483  -8.8556  -8.8388  -8.8255  -8.7528
    -8.7421  -8.6960  -8.6828  -8.6410  -8.6283  -8.6204  -8.6199  -8.3842
    -8.3736  -8.3669  -8.3240  -8.1935  -8.1861  -8.0585  -4.7446  -4.6942
    -4.3248  -4.2445  -4.1109  -4.0873  -3.8982  -3.8209  -3.7046  -3.6945
    -3.6541  -3.6442  -3.6419  -3.5651  -3.1980  -3.1888  -3.0980  -3.0277
    -3.0222  -2.9830  -2.8595  -2.8544  -2.7491  -2.7442  -2.5769  -2.5347
    -2.5270  -2.4460  -2.4224  -2.3976  -2.3426  -2.3068  -2.2939  -2.2706
    -2.2304  -2.1619  -2.0868  -2.0531  -2.0380  -1.9563  -1.9142  -1.8311
    -1.7697  -1.7470  -1.7254  -1.7233  -1.6296  -1.5927  -1.5446  -1.4917
    -1.4837  -1.4674  -1.4627  -1.4607  -1.4307  -1.4181  -1.4044  -1.3327
    -1.3266  -1.3159  -1.2696  -1.2151  -1.1706  -1.1156  -1.0698  -0.8525
    -0.8465  -0.7741  -0.7229  -0.7101  -0.6922  -0.6429  -0.4803  -0.4385
    -0.4075  -0.3953  -0.3852  -0.3032  -0.2765  -0.2725  -0.2526  -0.2404
    -0.1457  -0.0662   0.1151   0.1298   0.1607   0.2470   0.3565   0.3789
     0.3807   0.4105   0.4346   0.4702   0.5222   0.5805   0.5848   0.5978
     0.6090   0.6283   0.6322   0.6793   0.7382   0.7539   0.7551   0.7620
     0.7741   0.7882   0.8055   0.8066   0.9210   0.9631   0.9968   1.0125
     1.0383   1.0795   1.1411   1.1506   1.1677   1.1875   1.2299   1.2412
     1.2527   1.2728   1.2836   1.2987   1.3281   1.3334   1.4551   1.4885
     1.5464   1.5708   1.5840   1.5857   1.5992   1.6500   1.7180   1.7698
     1.8042   1.8168   1.8360   1.8573   1.8666   1.8698   1.9107   1.9210
     1.9395   1.9877   1.9972   2.0306   2.0451   2.1296   2.1779   2.2816
     2.3757   2.4103   3.6872   3.7236   3.7965   3.8156   5.3964   5.4895
     5.4977   6.0546   6.1546   6.8635   6.8748   7.0502   7.2447   7.2621
     7.3664   7.3669   7.5525   7.6273   7.7660   7.8414   8.0721   8.1156
     8.2525   8.3717   8.3841   8.4350   8.5550   8.5706   8.5848   8.6330
     8.6494   8.6929   8.7438   8.7739   8.8025   8.8464   8.8839   8.9374
     8.9816   9.0932

          k = 0.3750 0.0000 0.0000 ( 76246 PWs)   bands (ev):

   -38.7615 -38.6983 -36.3966 -36.3243 -23.5468 -23.4700 -23.4589 -23.4139
   -23.4030 -23.3343 -23.2102 -22.9781 -19.2304 -19.1765 -19.1153 -19.0533
   -18.7656 -18.7010 -17.7597 -17.6908 -17.6768 -17.6105 -17.4280 -17.3522
   -15.9410 -15.9001 -15.6055 -15.5854 -15.4779 -15.3979 -15.3622 -15.3270
   -15.3125 -15.2634 -15.2437 -15.2102 -15.1838 -15.1794 -14.9268 -14.8914
   -14.7769 -14.7445 -14.7201 -14.6986 -14.6825 -14.6814 -14.6767 -14.6653
   -14.6579 -14.5746 -14.5163 -14.4291 -13.4016 -13.2189  -8.8955  -8.7552
    -8.7418  -8.6536  -8.6407  -8.6162  -8.5064  -8.4673  -8.4569  -8.3930
    -8.3741  -8.3637  -8.3494  -8.3387  -8.2764  -8.2568  -8.2514  -8.2463
    -8.2406  -8.1996  -8.1824  -8.0701  -7.8350  -7.7249  -3.3929  -3.3694
    -3.3050  -3.2048  -3.0094  -2.9950  -2.9290  -2.8141  -2.7988  -2.7779
    -2.7467  -2.7118  -2.6895  -2.6790  -2.5591  -2.5234  -2.5210  -2.4596
    -2.4571  -2.4265  -2.4130  -2.3734  -2.2238  -2.1910  -2.1541  -2.0863
    -1.7674  -1.7330  -1.7307  -1.6841  -1.6367  -1.5971  -1.5935  -1.5874
    -1.5840  -1.5273  -1.5172  -1.5071  -1.4437  -1.4241  -1.3718  -1.3418
    -1.2894  -1.2141  -1.2070  -1.1400  -1.1341  -1.1019  -1.0823  -1.0535
    -1.0401  -1.0190  -0.9812  -0.9738  -0.9719  -0.9467  -0.9231  -0.9081
    -0.8816  -0.8770  -0.8134  -0.8051  -0.7780  -0.7299  -0.7077  -0.6816
    -0.6797  -0.6535  -0.6448  -0.6257  -0.6172  -0.5365  -0.5255  -0.4996
    -0.4660  -0.3975  -0.3900  -0.3838  -0.3764  -0.3395  -0.3319  -0.2885
    -0.2809  -0.2575  -0.2518  -0.2150  -0.2022  -0.1988  -0.1578  -0.1483
    -0.1310  -0.1257  -0.1037  -0.0897  -0.0673  -0.0526  -0.0455  -0.0407
     0.0709   0.0897   0.1494   0.1835   0.1896   0.2192   0.2386   0.2475
     0.2540   0.2796   0.3309   0.3860   0.3864   0.4022   0.5111   0.5390
     0.5590   0.6301   0.6443   0.6786   0.7060   0.7149   0.7244   0.7246
     0.7914   0.8196   0.8236   0.8557   0.8693   0.8764   0.8783   0.9197
     0.9198   0.9752   1.0127   1.0862   1.1648   1.1839   1.2193   1.2220
     1.2623   1.2706   1.3259   1.3448   1.3969   1.4485   1.4770   1.5149
     1.5454   1.5681   1.6364   1.7487   1.7544   1.8040   1.8412   1.9478
     1.9613   2.0282   2.0337   2.0550   2.1592   2.2123   4.6542   4.9906
     4.9988   5.3064   5.5504   5.5579   5.6783   5.7450   6.0722   6.4436
     6.4743   6.5025   6.5472   6.5675   6.6202   6.7169   7.1847   7.2006
     7.3211   7.3924   7.4673   7.5033   7.5283   7.6181   7.7418   7.7828
     7.8538   7.9349   8.0115   8.1762   8.2307   8.3771   8.4224   8.4337
     8.4661   8.5351

          k = 0.3750 0.2618 0.0000 ( 76194 PWs)   bands (ev):

   -38.7588 -38.6956 -36.3949 -36.3226 -23.5283 -23.4472 -23.4361 -23.3929
   -23.3820 -23.3117 -23.1898 -22.9573 -19.1920 -19.1379 -19.1083 -19.0462
   -18.8763 -18.8122 -17.7295 -17.6694 -17.6605 -17.6029 -17.4935 -17.4178
   -15.8376 -15.7972 -15.5527 -15.5363 -15.4232 -15.3416 -15.3353 -15.3036
   -15.2646 -15.2321 -15.2070 -15.1839 -15.1607 -15.1437 -14.8903 -14.8521
   -14.7919 -14.7678 -14.7528 -14.7432 -14.7223 -14.6711 -14.6614 -14.6602
   -14.6590 -14.6018 -14.5213 -14.4445 -13.3830 -13.2436  -8.8856  -8.7553
    -8.7432  -8.6995  -8.6884  -8.6472  -8.6361  -8.6295  -8.5633  -8.5522
    -8.5392  -8.4716  -8.4356  -8.4274  -8.3887  -8.2708  -8.2704  -8.2597
    -8.2392  -8.2285  -8.1031  -8.0869  -7.8338  -7.7690  -3.4969  -3.4582
    -3.3394  -3.2442  -3.1342  -3.1055  -3.0271  -2.9303  -2.8306  -2.8178
    -2.8169  -2.7983  -2.7692  -2.7337  -2.7151  -2.6880  -2.6781  -2.6580
    -2.5763  -2.5272  -2.4729  -2.4526  -2.3328  -2.2598  -2.1326  -2.1192
    -2.0848  -2.0442  -2.0363  -2.0273  -2.0217  -2.0170  -1.8250  -1.7869
    -1.7505  -1.6858  -1.6323  -1.5701  -1.5688  -1.5525  -1.4951  -1.4847
    -1.3949  -1.3687  -1.3583  -1.3251  -1.3162  -1.3148  -1.2371  -1.2293
    -1.1565  -1.1527  -1.0360  -0.9933  -0.9571  -0.9099  -0.8888  -0.8425
    -0.7861  -0.7743  -0.7501  -0.7361  -0.6942  -0.6875  -0.6556  -0.6513
    -0.6111  -0.6106  -0.5799  -0.5777  -0.5383  -0.5276  -0.4933  -0.4891
    -0.4571  -0.4536  -0.4149  -0.4135  -0.3864  -0.3194  -0.3063  -0.2590
    -0.2533  -0.2524  -0.2417  -0.2382  -0.2212  -0.2053  -0.1903  -0.1776
    -0.1433  -0.1122  -0.1007  -0.0752  -0.0616   0.0352   0.0595   0.0748
     0.0925   0.1518   0.2444   0.2728   0.2851   0.3203   0.3544   0.3935
     0.3984   0.4337   0.4766   0.4944   0.5087   0.5568   0.5855   0.5943
     0.6108   0.6255   0.6267   0.6271   0.6615   0.6825   0.7046   0.7281
     0.7960   0.8467   0.8493   0.8745   0.8882   0.9034   0.9419   0.9464
     0.9999   1.0005   1.0128   1.0346   1.0643   1.1170   1.1253   1.1263
     1.1593   1.1960   1.2032   1.2463   1.5938   1.6797   1.8397   1.8966
     1.9746   1.9901   2.0043   2.0719   2.1247   2.1388   2.1494   2.1874
     2.2631   2.2769   2.2792   2.3059   2.4076   2.4375   4.8585   5.2911
     5.2992   5.5335   5.7544   5.7623   5.8725   5.9409   6.2149   6.5778
     6.6081   6.6980   6.7793   6.7957   6.8890   7.0097   7.2447   7.3329
     7.4174   7.4323   7.5060   7.5706   7.6441   7.7298   7.8878   7.9316
     8.0035   8.0455   8.0676   8.1800   8.2411   8.2641   8.3870   8.4940
     8.5094   8.5439

          k = 0.3750 0.5236 0.0000 ( 76143 PWs)   bands (ev):

   -38.7523 -38.6891 -36.3908 -36.3185 -23.4829 -23.3911 -23.3799 -23.3412
   -23.3303 -23.2563 -23.1397 -22.9062 -19.1168 -19.0923 -19.0913 -19.0536
   -19.0378 -19.0292 -17.6574 -17.6523 -17.6341 -17.5872 -17.5842 -17.5611
   -15.6081 -15.5723 -15.4376 -15.4250 -15.3233 -15.2906 -15.2836 -15.1884
   -15.1611 -15.1534 -15.1366 -15.1208 -15.0773 -15.0591 -14.9404 -14.8990
   -14.8403 -14.8083 -14.8032 -14.7647 -14.7351 -14.6420 -14.6360 -14.6216
   -14.6185 -14.6065 -14.5423 -14.4750 -13.3389 -13.3061  -8.9911  -8.9805
    -8.8636  -8.8536  -8.8430  -8.8087  -8.7477  -8.7030  -8.6910  -8.6711
    -8.6354  -8.6239  -8.6158  -8.5843  -8.4482  -8.4376  -8.4146  -8.3043
    -8.2990  -8.2974  -8.2867  -8.1296  -7.9838  -7.8824  -3.9194  -3.8673
    -3.6161  -3.5797  -3.5771  -3.4878  -3.3803  -3.3103  -3.0402  -3.0300
    -2.9778  -2.9287  -2.9244  -2.9121  -2.8751  -2.8551  -2.8470  -2.7942
    -2.7693  -2.7605  -2.7567  -2.7002  -2.6936  -2.6695  -2.6473  -2.6376
    -2.4697  -2.4214  -2.3437  -2.3090  -2.2089  -2.1716  -2.1691  -2.1210
    -1.9999  -1.9524  -1.8842  -1.8498  -1.8392  -1.7580  -1.7039  -1.6444
    -1.6264  -1.5944  -1.5386  -1.5280  -1.4959  -1.4772  -1.3168  -1.2954
    -1.2874  -1.2360  -1.2007  -1.1594  -1.1165  -1.0896  -1.0866  -1.0701
    -1.0484  -1.0155  -1.0091  -0.9515  -0.9429  -0.9202  -0.8822  -0.8275
    -0.8092  -0.7937  -0.7531  -0.7354  -0.6908  -0.6627  -0.5217  -0.5154
    -0.3901  -0.3672  -0.3232  -0.3162  -0.2891  -0.2284  -0.2047  -0.1828
    -0.1450  -0.0895  -0.0563  -0.0470  -0.0350   0.0236   0.0715   0.1554
     0.1571   0.2435   0.2574   0.2942   0.3113   0.3160   0.3541   0.3578
     0.3927   0.3991   0.4362   0.4533   0.4580   0.4635   0.4779   0.4959
     0.5171   0.5486   0.5573   0.6526   0.6746   0.6901   0.7438   0.7595
     0.7930   0.8050   0.8500   0.8702   0.8838   0.8961   0.9160   0.9196
     0.9291   0.9560   0.9667   0.9984   1.0066   1.0246   1.0336   1.0489
     1.0920   1.1071   1.1314   1.1472   1.1731   1.1886   1.2423   1.2801
     1.2856   1.2960   1.3754   1.3829   1.7545   1.8894   1.9783   1.9859
     2.2232   2.2671   2.3314   2.3844   2.4161   2.4218   2.4752   2.4889
     2.5615   2.5658   2.8530   2.8798   2.9779   3.0148   5.2771   5.9841
     5.9932   6.0341   6.0463   6.1180   6.4202   6.4751   6.5318   6.5677
     6.6794   6.9715   7.3587   7.4429   7.5186   7.5394   7.5529   7.5746
     7.6370   7.7174   7.7377   7.7458   7.8547   8.0331   8.0719   8.1729
     8.1993   8.3046   8.3502   8.4226   8.4460   8.4758   8.5541   8.5588
     8.5800   8.7031

          k = 0.3750 0.7854 0.0000 ( 76178 PWs)   bands (ev):

   -38.7458 -38.6826 -36.3867 -36.3144 -23.4366 -23.3335 -23.3224 -23.2881
   -23.2772 -23.1995 -23.0883 -22.8537 -19.3249 -19.2622 -19.0743 -19.0121
   -18.9877 -18.9327 -17.7688 -17.6930 -17.6378 -17.5707 -17.5692 -17.5006
   -15.4411 -15.4250 -15.3378 -15.3237 -15.3200 -15.2589 -15.1802 -15.1678
   -15.1493 -15.1073 -15.0899 -15.0055 -14.9793 -14.9656 -14.9469 -14.9411
   -14.8931 -14.8788 -14.7386 -14.7138 -14.7048 -14.6511 -14.5840 -14.5717
   -14.5703 -14.5696 -14.5563 -14.5151 -13.3712 -13.2963  -9.1878  -9.1771
    -9.0110  -8.9513  -8.9154  -8.9048  -8.8423  -8.7629  -8.7522  -8.7475
    -8.6981  -8.6786  -8.6665  -8.6490  -8.6373  -8.6159  -8.5843  -8.4487
    -8.4381  -8.3817  -8.3177  -8.2592  -8.2138  -8.0515  -4.4036  -4.3557
    -4.0397  -4.0119  -4.0080  -3.9330  -3.7906  -3.7136  -3.4593  -3.4496
    -3.4339  -3.4241  -3.4209  -3.3572  -3.1028  -3.0924  -3.0113  -2.9340
    -2.8786  -2.8709  -2.7521  -2.7405  -2.7382  -2.7154  -2.7094  -2.6099
    -2.6066  -2.5691  -2.4581  -2.4260  -2.4071  -2.3684  -2.2776  -2.2455
    -2.2338  -2.2091  -2.1693  -2.0858  -1.9547  -1.9088  -1.8747  -1.7499
    -1.7435  -1.7132  -1.7060  -1.6857  -1.5576  -1.5258  -1.4953  -1.4408
    -1.4098  -1.3967  -1.3616  -1.3412  -1.3066  -1.2958  -1.2898  -1.2579
    -1.2529  -1.2111  -1.1763  -1.1325  -1.0977  -1.0881  -1.0386  -0.9335
    -0.9245  -0.8510  -0.8422  -0.8309  -0.7078  -0.6768  -0.4941  -0.4396
    -0.3368  -0.2704  -0.2459  -0.2318  -0.2083  -0.1427  -0.1252  -0.1115
    -0.1104  -0.0065   0.0099   0.0582   0.1728   0.2448   0.2700   0.2928
     0.3540   0.3706   0.3967   0.4012   0.4572   0.4599   0.4700   0.5068
     0.5340   0.5762   0.6351   0.6525   0.6869   0.6931   0.7140   0.7205
     0.7541   0.7741   0.7951   0.8029   0.8300   0.8448   0.8605   0.8733
     0.9516   0.9780   1.0040   1.0298   1.0608   1.0695   1.0846   1.1022
     1.1240   1.1543   1.1646   1.1807   1.2023   1.2051   1.2280   1.2859
     1.2906   1.3220   1.3332   1.4013   1.4098   1.5363   1.5447   1.5885
     1.6144   1.6992   1.7078   1.7850   1.7941   1.8694   1.9154   1.9527
     2.2296   2.2563   2.2728   2.3351   2.3382   2.3871   2.4218   2.4365
     2.6560   2.6717   3.2346   3.2675   3.3594   3.3852   5.5307   5.9087
     5.9181   6.2638   6.3314   6.4703   6.4852   6.7330   6.9005   6.9942
     7.1346   7.3229   7.4660   7.4969   7.6116   7.7905   7.8781   8.0121
     8.0294   8.0594   8.1397   8.2242   8.2581   8.2955   8.5330   8.5567
     8.5632   8.6877   8.6980   8.7911   8.8140   8.8404   8.8686   8.9894
     9.0134   9.0624

          k = 0.3750-1.0472 0.0000 ( 76210 PWs)   bands (ev):

   -38.7431 -38.6799 -36.3850 -36.3127 -23.4171 -23.3093 -23.2981 -23.2656
   -23.2547 -23.1755 -23.0666 -22.8316 -19.4054 -19.3429 -19.0673 -19.0051
[...]
    -3.2726  -3.2712  -3.1924  -3.1375  -3.1144  -3.0150  -2.8479  -2.8301
    -2.8056  -2.7875  -2.7789  -2.7462  -2.7389  -2.7138  -2.7064  -2.6961
    -2.5862  -2.5416  -2.4706  -2.4566  -2.3330  -2.2558  -2.1267  -2.1219
    -2.0736  -2.0329  -2.0313  -2.0304  -2.0210  -2.0143  -1.7048  -1.7037
    -1.6763  -1.6356  -1.6040  -1.5901  -1.5721  -1.5550  -1.5456  -1.5100
    -1.4864  -1.4681  -1.4653  -1.4009  -1.3557  -1.3209  -1.2245  -1.2104
    -1.1247  -1.0992  -1.0984  -1.0533  -0.9549  -0.9008  -0.8582  -0.8306
    -0.8095  -0.7845  -0.7653  -0.7510  -0.7021  -0.7001  -0.6446  -0.6395
    -0.6239  -0.6052  -0.5679  -0.5606  -0.5386  -0.5202  -0.5000  -0.4939
    -0.4571  -0.4462  -0.4060  -0.4008  -0.3958  -0.3107  -0.3023  -0.2609
    -0.2501  -0.2476  -0.2191  -0.2084  -0.2026  -0.1966  -0.1708  -0.1682
    -0.1489  -0.1488  -0.1299  -0.0660  -0.0520   0.0398   0.0505   0.0890
     0.1423   0.1671   0.2430   0.2736   0.2832   0.3008   0.3111   0.3307
     0.4100   0.4232   0.4400   0.4533   0.5003   0.5819   0.6201   0.6322
     0.6367   0.6430   0.6481   0.6496   0.6771   0.7215   0.7417   0.7673
     0.7769   0.7851   0.7931   0.8479   0.8507   0.8907   0.9346   0.9397
     0.9451   0.9538   1.0046   1.0050   1.1048   1.1349   1.1417   1.1472
     1.1508   1.1572   1.2002   1.2040   1.6756   1.6880   1.9434   1.9759
     1.9791   1.9968   2.0318   2.1193   2.1222   2.1438   2.1840   2.2073
     2.2456   2.2888   2.2906   2.2967   2.3439   2.3715   4.9314   5.4185
     5.4959   5.5033   5.5130   5.5210   5.9983   6.0684   6.3522   6.4352
     6.4703   6.5149   7.0317   7.0729   7.0999   7.1208   7.1365   7.1831
     7.2820   7.3798   7.3999   7.5919   7.6615   7.7138   7.8266   7.9611
     8.0110   8.0808   8.0987   8.2689   8.2820   8.3061   8.3379   8.4491
     8.4812   8.4982

          k =-0.5000 0.5236 0.0000 ( 76162 PWs)   bands (ev):

   -38.7523 -38.6891 -36.3908 -36.3185 -23.4825 -23.3810 -23.3698 -23.3515
   -23.3407 -23.2530 -23.1432 -22.9067 -19.1168 -19.0918 -19.0881 -19.0535
   -19.0373 -19.0259 -17.6628 -17.6585 -17.6346 -17.5962 -17.5874 -17.5613
   -15.5482 -15.5158 -15.4504 -15.4352 -15.3211 -15.3100 -15.2803 -15.2071
   -15.1621 -15.1619 -15.1496 -15.1246 -15.0734 -15.0671 -14.9422 -14.9035
   -14.8542 -14.8131 -14.8050 -14.7604 -14.7288 -14.6352 -14.6334 -14.6215
   -14.6215 -14.6084 -14.5423 -14.4756 -13.3245 -13.3193  -8.9571  -8.9466
    -8.9281  -8.9174  -8.8630  -8.7748  -8.7417  -8.7395  -8.7025  -8.6904
    -8.6486  -8.6349  -8.6233  -8.5847  -8.4146  -8.3581  -8.3476  -8.3473
    -8.3366  -8.2991  -8.2408  -8.1563  -7.9310  -7.9123  -3.7957  -3.7463
    -3.7074  -3.6664  -3.4645  -3.4423  -3.3739  -3.3710  -3.0014  -2.9922
    -2.9627  -2.9531  -2.9134  -2.9127  -2.8522  -2.8410  -2.8384  -2.8276
    -2.8160  -2.8132  -2.7986  -2.7891  -2.6956  -2.6881  -2.6741  -2.6664
    -2.4582  -2.4287  -2.1831  -2.1693  -2.1507  -2.1315  -2.1243  -2.0930
    -2.0440  -2.0382  -2.0115  -1.9846  -1.9488  -1.8720  -1.7035  -1.6879
    -1.6293  -1.6001  -1.5612  -1.5105  -1.4890  -1.4713  -1.3310  -1.3137
    -1.2452  -1.2356  -1.2106  -1.1761  -1.0873  -1.0868  -1.0721  -1.0601
    -1.0414  -1.0075  -0.9770  -0.9736  -0.9603  -0.9381  -0.8890  -0.8682
    -0.8094  -0.8038  -0.7990  -0.7470  -0.6879  -0.6718  -0.5211  -0.5192
    -0.3449  -0.3393  -0.3252  -0.2853  -0.2373  -0.2331  -0.1872  -0.1336
    -0.1321  -0.1026  -0.0668  -0.0652   0.0068   0.0799   0.0909   0.1500
     0.1682   0.2312   0.2729   0.3200   0.3254   0.3394   0.3487   0.3578
     0.3661   0.3743   0.4217   0.4404   0.4406   0.4430   0.4508   0.4514
     0.5112   0.5268   0.5416   0.6588   0.6945   0.7081   0.7388   0.7973
     0.8142   0.8149   0.8172   0.8248   0.8697   0.8724   0.8790   0.9045
     0.9325   0.9422   0.9594   0.9716   1.0271   1.0352   1.0607   1.0726
     1.0932   1.1048   1.1199   1.1314   1.1613   1.1853   1.2325   1.2826
     1.3286   1.3307   1.3318   1.3403   1.8579   1.8724   1.9923   1.9956
     2.3815   2.3821   2.4380   2.4512   2.4729   2.4806   2.5704   2.5984
     2.6177   2.6515   2.7117   2.7493   2.7837   2.8230   5.3043   6.0092
     6.0196   6.0369   6.0467   6.0945   6.4699   6.5187   6.5262   6.5656
     6.7984   6.8526   7.3478   7.4446   7.4465   7.5254   7.5980   7.6669
     7.6753   7.6881   7.6977   7.8316   7.9499   8.0869   8.1246   8.1990
     8.2423   8.3272   8.3630   8.4076   8.4467   8.4488   8.4490   8.5233
     8.5445   8.6072

          k =-0.5000 0.7854 0.0000 ( 76134 PWs)   bands (ev):

   -38.7458 -38.6826 -36.3867 -36.3144 -23.4362 -23.3257 -23.3145 -23.2960
   -23.2852 -23.1969 -23.0910 -22.8542 -19.3249 -19.2622 -19.0712 -19.0089
   -18.9872 -18.9322 -17.7687 -17.6930 -17.6469 -17.5800 -17.5714 -17.5028
   -15.4012 -15.3832 -15.3682 -15.3562 -15.2800 -15.2123 -15.1872 -15.1574
   -15.1358 -15.0966 -15.0930 -15.0361 -15.0031 -14.9862 -14.9590 -14.9458
   -14.9040 -14.9012 -14.7332 -14.7167 -14.6950 -14.6570 -14.5800 -14.5735
   -14.5691 -14.5665 -14.5598 -14.5174 -13.3371 -13.3312  -9.0838  -9.0732
    -9.0452  -9.0346  -8.9254  -8.9154  -8.8543  -8.8420  -8.7121  -8.6821
    -8.6699  -8.6672  -8.6557  -8.6106  -8.5876  -8.5868  -8.5767  -8.5762
    -8.4974  -8.3782  -8.3433  -8.3192  -8.1594  -8.1342  -4.3039  -4.2610
    -4.1157  -4.0769  -3.9207  -3.8535  -3.8492  -3.7613  -3.4470  -3.4460
    -3.4374  -3.4362  -3.4160  -3.3614  -3.0224  -3.0115  -2.9453  -2.9328
    -2.8922  -2.8732  -2.7984  -2.7786  -2.7193  -2.7081  -2.6893  -2.6764
    -2.5980  -2.5606  -2.4687  -2.4415  -2.4248  -2.4215  -2.3361  -2.3221
    -2.2799  -2.2749  -2.1520  -2.1058  -2.0211  -1.9699  -1.7969  -1.7676
    -1.7556  -1.7445  -1.7065  -1.6909  -1.5114  -1.4954  -1.4794  -1.4600
    -1.4176  -1.3934  -1.3916  -1.3647  -1.2828  -1.2808  -1.2686  -1.2655
    -1.2240  -1.1714  -1.1556  -1.1181  -1.0954  -1.0744  -0.9970  -0.9850
    -0.9616  -0.9355  -0.8984  -0.8769  -0.7103  -0.6814  -0.4824  -0.4524
    -0.2632  -0.2511  -0.1865  -0.1775  -0.1717  -0.1623  -0.0921  -0.0743
    -0.0529  -0.0252   0.0225   0.1054   0.1360   0.3276   0.3287   0.3293
     0.3556   0.3593   0.3831   0.4082   0.4156   0.4429   0.4495   0.4782
     0.4984   0.5379   0.6265   0.6638   0.6711   0.6865   0.7087   0.7119
     0.7137   0.7495   0.7762   0.8015   0.8153   0.8704   0.9213   0.9305
     0.9494   0.9610   0.9711   0.9813   1.0317   1.0820   1.1036   1.1266
     1.1314   1.1511   1.1643   1.1662   1.1864   1.1996   1.1998   1.2233
     1.2890   1.2908   1.3201   1.3222   1.4176   1.5275   1.5907   1.6117
     1.7374   1.7453   1.7478   1.7559   1.7617   1.7671   1.9049   1.9270
     2.2748   2.2758   2.3102   2.3408   2.3971   2.4161   2.8101   2.8449
     2.8459   2.8795   2.9834   3.0177   3.0255   3.0501   5.5816   6.1553
     6.1645   6.1788   6.2002   6.3792   6.4330   6.7602   6.8515   6.9382
     7.0880   7.2796   7.4373   7.4897   7.6096   7.8158   7.8509   8.0257
     8.0804   8.0939   8.1021   8.1668   8.1948   8.2248   8.5458   8.5856
     8.5914   8.7608   8.8673   8.8813   8.9191   8.9509   8.9625   8.9636
     9.0468   9.0810

          k =-0.5000-1.0472 0.0000 ( 76140 PWs)   bands (ev):

   -38.7431 -38.6799 -36.3850 -36.3127 -23.4168 -23.3024 -23.2911 -23.2726
   -23.2618 -23.1732 -23.0690 -22.8320 -19.4054 -19.3429 -19.0642 -19.0019
   -18.9403 -18.8850 -17.8194 -17.7437 -17.6405 -17.5736 -17.5348 -17.4661
   -15.4352 -15.4037 -15.3534 -15.3382 -15.2140 -15.1767 -15.1478 -15.1325
   -15.1162 -15.0905 -15.0673 -14.9874 -14.9642 -14.9460 -14.9389 -14.9303
   -14.9241 -14.8911 -14.6848 -14.6816 -14.6766 -14.6740 -14.5965 -14.5546
   -14.5539 -14.5531 -14.5420 -14.5412 -13.3447 -13.3358  -9.0872  -9.0765
    -9.0365  -9.0258  -8.9553  -8.9463  -8.8708  -8.8347  -8.7623  -8.7515
    -8.7387  -8.7280  -8.6818  -8.6610  -8.6586  -8.6485  -8.6465  -8.6322
    -8.6195  -8.4469  -8.3689  -8.3226  -8.3179  -8.2435  -4.5036  -4.4627
    -4.2750  -4.2379  -4.1155  -4.0478  -4.0131  -3.9227  -3.6800  -3.6791
    -3.6701  -3.6692  -3.6294  -3.5766  -3.0271  -3.0171  -2.9238  -2.9091
    -2.8743  -2.8154  -2.7968  -2.7621  -2.7580  -2.7461  -2.6742  -2.6603
    -2.6568  -2.6227  -2.5971  -2.5754  -2.5265  -2.4451  -2.4446  -2.4316
    -2.4149  -2.3852  -2.1690  -2.1247  -2.0489  -2.0000  -1.8315  -1.8090
    -1.7988  -1.7919  -1.7646  -1.7541  -1.5963  -1.5580  -1.5099  -1.4865
    -1.4795  -1.4531  -1.4064  -1.3799  -1.3629  -1.3623  -1.3515  -1.3430
    -1.2648  -1.2209  -1.2027  -1.1858  -1.1843  -1.0809  -1.0020  -0.9995
    -0.9816  -0.9576  -0.9158  -0.8936  -0.7129  -0.6822  -0.4608  -0.4238
    -0.2328  -0.2268  -0.1660  -0.1589  -0.1197  -0.1151  -0.1001  -0.0809
    -0.0786  -0.0318   0.0405   0.1540   0.1542   0.3670   0.3766   0.4199
     0.4285   0.4487   0.4674   0.5037   0.5073   0.5355   0.5380   0.5882
     0.5885   0.5922   0.6538   0.6848   0.6966   0.7171   0.7324   0.7566
     0.7667   0.8087   0.8127   0.8303   0.8403   0.8533   0.8778   0.8837
     0.9206   0.9631   0.9772   1.0787   1.1540   1.1700   1.2210   1.2366
     1.2391   1.2707   1.3378   1.3690   1.3839   1.3965   1.4636   1.4640
     1.4891   1.5277   1.5527   1.5686   1.5695   1.5817   1.5833   1.7020
     1.8012   1.8183   1.8481   1.8677   1.9171   1.9260   1.9264   1.9356
     2.0607   2.0706   2.1234   2.1458   2.2465   2.3133   2.8315   2.8660
     2.8951   2.9317   2.9919   3.0270   3.1042   3.1271   5.6494   6.0988
     6.1079   6.1190   6.1475   6.3056   6.3607   6.7882   6.9092   6.9786
     7.3010   7.4156   7.5889   7.6368   7.8307   7.8879   7.9728   8.0940
     8.1909   8.5042   8.5111   8.5323   8.5829   8.7155   8.7628   8.7797
     8.7909   8.8236   8.8465   8.8777   9.1002   9.1332   9.1429   9.1549
     9.1564   9.1681

     the Fermi energy is     2.0974 ev

!    total energy              =   -3711.51820870 Ry
     Harris-Foulkes estimate   =   -3711.51820868 Ry
     estimated scf accuracy    <          7.8E-09 Ry

     The total energy is the sum of the following terms:

     one-electron contribution =  -48284.08807244 Ry
     hartree contribution      =   24438.08647079 Ry
     xc contribution           =   -1263.80729009 Ry
     ewald contribution        =   21398.31082079 Ry
     smearing contrib. (-TS)   =      -0.02013776 Ry

     convergence has been achieved in  37 iterations

     negative rho (up, down):  9.214E-02 0.000E+00

     Forces acting on atoms (cartesian axes, Ry/au):

     atom    1 type  4   force =    -0.00000667    0.00000000   -0.00051346
     atom    2 type  4   force =     0.00000667    0.00000000   -0.00051346
     atom    3 type  3   force =    -0.00000343    0.00000000    0.00021303
     atom    4 type  3   force =     0.00000343    0.00000000    0.00021303
     atom    5 type  4   force =     0.00000664    0.00000000    0.00015179
     atom    6 type  4   force =    -0.00000664    0.00000000    0.00015179
     atom    7 type  1   force =     0.00000000    0.00000000   -0.00037617
     atom    8 type  1   force =     0.00000000    0.00000000   -0.00034133
     atom    9 type  3   force =     0.00010766    0.00000000   -0.00026493
     atom   10 type  3   force =    -0.00010766    0.00000000   -0.00026493
     atom   11 type  4   force =     0.00000000    0.00000000    0.00110104
     atom   12 type  4   force =     0.00005530    0.00000000    0.00137965
     atom   13 type  4   force =    -0.00005530    0.00000000    0.00137965
     atom   14 type  4   force =     0.00000000    0.00000000    0.00143726
     atom   15 type  2   force =     0.00000000    0.00000000   -0.00326956
     atom   16 type  5   force =     0.00000000    0.00000000   -0.00481557
     atom   17 type  4   force =     0.00095177    0.00000000    0.00627338
     atom   18 type  4   force =    -0.00095177    0.00000000    0.00627338
     atom   19 type  4   force =     0.00000000    0.00000000    0.00398123
     atom   20 type  4   force =     0.00000000    0.00000000    0.00517169
     atom   21 type  3   force =     0.00053692    0.00000000   -0.00173979
     atom   22 type  3   force =    -0.00053692    0.00000000   -0.00173979
     atom   23 type  1   force =     0.00000000    0.00000000    0.00755567
     atom   24 type  1   force =     0.00000000    0.00000000    0.01418821
     atom   25 type  4   force =     0.00256902    0.00000000   -0.01821897
     atom   26 type  4   force =    -0.00256902    0.00000000   -0.01821897
     atom   27 type  4   force =    -0.01348607    0.00000000    0.02762256
     atom   28 type  4   force =     0.01348607    0.00000000    0.02762256
     atom   29 type  3   force =     0.01302781    0.00000000   -0.02689509
     atom   30 type  3   force =    -0.01302781    0.00000000   -0.02689509
     atom   31 type  4   force =     0.01583381    0.00000000    0.02496189
     atom   32 type  4   force =    -0.01583381    0.00000000    0.02496189
     atom   33 type  1   force =     0.00000000    0.00000000    0.00033785
     atom   34 type  1   force =     0.00000000    0.00000000   -0.01331385
     atom   35 type  3   force =    -0.00351571    0.00000000   -0.02070602
     atom   36 type  3   force =     0.00351571    0.00000000   -0.02070602
     atom   37 type  4   force =     0.00000000    0.00000000    0.00293153
     atom   38 type  4   force =     0.00000000    0.00000000    0.00043338
     atom   39 type  4   force =     0.00292601    0.00000000    0.00023220
     atom   40 type  4   force =    -0.00292601    0.00000000    0.00023220
     atom   41 type  5   force =     0.00000000    0.00000000    0.00212880
     atom   42 type  2   force =     0.00000000    0.00000000    0.00041239
     atom   43 type  4   force =     0.00000000    0.00000000    0.00021321
     atom   44 type  4   force =     0.00002237    0.00000000   -0.00140454
     atom   45 type  4   force =    -0.00002237    0.00000000   -0.00140454
     atom   46 type  4   force =     0.00000000    0.00000000   -0.00008566
     atom   47 type  3   force =    -0.00003714    0.00000000    0.00029382
     atom   48 type  3   force =     0.00003714    0.00000000    0.00029382
     atom   49 type  1   force =     0.00000000    0.00000000    0.00017573
     atom   50 type  1   force =     0.00000000    0.00000000    0.00023665
     atom   51 type  4   force =    -0.00004476    0.00000000   -0.00082226
     atom   52 type  4   force =     0.00004476    0.00000000   -0.00082226
     atom   53 type  3   force =    -0.00003631    0.00000000    0.00076719
     atom   54 type  3   force =     0.00003631    0.00000000    0.00076719
     atom   55 type  4   force =     0.00002052    0.00000000   -0.00038170
     atom   56 type  4   force =    -0.00002052    0.00000000   -0.00038170

     Total force =     0.087339     Total SCF correction =     0.000451


     Computing stress (Cartesian axis) and pressure


     negative rho (up, down):  9.214E-02 0.000E+00
          total   stress  (Ry/bohr**3)                   (kbar)     P=       -5.74
  -0.00000291   0.00000000   0.00000000           -0.43        0.00        0.00
   0.00000000  -0.00008827   0.00000000            0.00      -12.99        0.00
   0.00000000   0.00000000  -0.00002583            0.00        0.00       -3.80

 
     init_run     :     25.85s CPU     26.82s WALL (       1 calls)
     electrons    :   1934.14s CPU   2027.91s WALL (       1 calls)
     forces       :     10.87s CPU     11.65s WALL (       1 calls)
     stress       :    101.52s CPU    103.44s WALL (       1 calls)

     Called by init_run:
     wfcinit      :     21.16s CPU     21.50s WALL (       1 calls)
     potinit      :      1.07s CPU      1.09s WALL (       1 calls)
     hinit0       :      1.72s CPU      1.75s WALL (       1 calls)

     Called by electrons:
     c_bands      :   1617.65s CPU   1663.08s WALL (      37 calls)
     sum_band     :    242.69s CPU    269.66s WALL (      37 calls)
     v_of_rho     :      4.52s CPU      4.59s WALL (      38 calls)
     newd         :     35.80s CPU     57.26s WALL (      38 calls)
     mix_rho      :     34.09s CPU     34.42s WALL (      37 calls)

     Called by c_bands:
     init_us_2    :     10.20s CPU     10.29s WALL (    1925 calls)
     cegterg      :   1539.99s CPU   1584.10s WALL (     925 calls)

     Called by sum_band:
     sum_band:bec :      1.10s CPU      1.11s WALL (     925 calls)
     addusdens    :     37.70s CPU     62.28s WALL (      37 calls)

     Called by *egterg:
     h_psi        :    749.90s CPU    765.39s WALL (    4776 calls)
     s_psi        :    114.52s CPU    115.16s WALL (    4776 calls)
     g_psi        :      1.67s CPU      1.68s WALL (    3826 calls)
     cdiaghg      :    340.48s CPU    341.73s WALL (    4751 calls)

     Called by h_psi:
     h_psi:calbec :    123.52s CPU    124.10s WALL (    4776 calls)
     vloc_psi     :    508.15s CPU    515.21s WALL (    4776 calls)
     add_vuspsi   :    114.74s CPU    115.31s WALL (    4776 calls)

     General routines
     calbec       :    186.13s CPU    186.92s WALL (    5826 calls)
     fft          :      3.93s CPU      3.96s WALL (     517 calls)
     ffts         :     19.27s CPU     19.46s WALL (   20133 calls)
     fftw         :    582.40s CPU    590.34s WALL ( 1315248 calls)
     interpolate  :      0.34s CPU      0.34s WALL (      38 calls)
 
     Parallel routines
     fft_scatt_xy :     69.23s CPU     70.26s WALL ( 1335898 calls)
     fft_scatt_yz :    372.35s CPU    377.56s WALL ( 1335898 calls)
 
     PWSCF        :  34m33.49s CPU  36m11.18s WALL

 
   This run was terminated on:  12:48: 4   1Jun2021            

=------------------------------------------------------------------------------=
   JOB DONE.
=------------------------------------------------------------------------------=
[1622566084.994580] [holy7c04210:109287:0]          mpool.c:43   UCX  WARN  object 0x3b3fa40 was not returned to mpool ucp_requests
[1622566084.996328] [holy7c04306:228830:0]          mpool.c:43   UCX  WARN  object 0x28dc640 was not returned to mpool ucp_requests
[1622566085.000210] [holy7c04302:66961:0]          mpool.c:43   UCX  WARN  object 0x4431340 was not returned to mpool ucp_requests
[1622566085.000231] [holy7c04302:66961:0]          mpool.c:43   UCX  WARN  object 0x4431dc0 was not returned to mpool ucp_requests
[1622566084.993809] [holy7c04210:109289:0]          mpool.c:43   UCX  WARN  object 0x3c7af80 was not returned to mpool ucp_requests
[1622566084.993833] [holy7c04210:109289:0]          mpool.c:43   UCX  WARN  object 0x3c7b4c0 was not returned to mpool ucp_requests
[1622566085.005217] [holy7c04109:178213:0]          mpool.c:43   UCX  WARN  object 0x33048c0 was not returned to mpool ucp_requests
[1622566085.012663] [holy7c04109:178212:0]          mpool.c:43   UCX  WARN  object 0x459bc40 was not returned to mpool ucp_requests
[1622566084.994468] [holy7c04210:109288:0]          mpool.c:43   UCX  WARN  object 0x4464680 was not returned to mpool ucp_requests
[1622566085.006358] [holy7c04109:178214:0]          mpool.c:43   UCX  WARN  object 0x375e8c0 was not returned to mpool ucp_requests
[1622566085.006377] [holy7c04109:178214:0]          mpool.c:43   UCX  WARN  object 0x375efc0 was not returned to mpool ucp_requests
[1622566085.005399] [holy7c04306:228829:0]          mpool.c:43   UCX  WARN  object 0x4332f00 was not returned to mpool ucp_requests
[1622566085.006145] [holy7c04306:228827:0]          mpool.c:43   UCX  WARN  object 0x4547980 was not returned to mpool ucp_requests
[1622566085.006163] [holy7c04306:228827:0]          mpool.c:43   UCX  WARN  object 0x4547b40 was not returned to mpool ucp_requests
[1622566085.005197] [holy7c04302:66963:0]          mpool.c:43   UCX  WARN  object 0x38c8a80 was not returned to mpool ucp_requests
[1622566085.005356] [holy7c04302:66959:0]          mpool.c:43   UCX  WARN  object 0x37c50c0 was not returned to mpool ucp_requests
[1622566085.016118] [holy7c04302:66964:0]          mpool.c:43   UCX  WARN  object 0x3b14840 was not returned to mpool ucp_requests
