
     Program PWSCF v.6.5 starts on 28May2021 at  0: 0:38 

     This program is part of the open-source Quantum ESPRESSO suite
     for quantum simulation of materials; please cite
         "P. Giannozzi et al., J. Phys.:Condens. Matter 21 395502 (2009);
         "P. Giannozzi et al., J. Phys.:Condens. Matter 29 465901 (2017);
          URL http://www.quantum-espresso.org", 
     in publications or presentations arising from this work. More details at
     http://www.quantum-espresso.org/quote

     Parallel version (MPI), running on    32 processors

     MPI processes distributed on    11 nodes
     R & G space division:  proc/nbgrp/npool/nimage =      32
     Reading input from YCBCO50_212_Y_cleave_1.25_sep.pwi
Warning: card &IONS ignored
Warning: card     ION_DYNAMICS = 'BFGS' ignored
Warning: card / ignored
Warning: card &CELL ignored
Warning: card     CELL_DYNAMICS = 'BFGS' ignored
Warning: card     PRESS_CONV_THR = 5 ignored
Warning: card / ignored

     Current dimensions of program PWSCF are:
     Max number of different atomic species (ntypx) = 10
     Max number of k-points (npk) =  40000
     Max angular momentum in pseudopotentials (lmaxx) =  3

     Subspace diagonalization in iterative solution of the eigenvalue problem:
     one sub-group per band group will be used
     scalapack distributed-memory algorithm (size of sub-group:  5*  5 procs)

     Message from routine setup:
     using ibrav=0 with symmetry is DISCOURAGED, use correct ibrav instead
 
     Parallelization info
     --------------------
     sticks:   dense  smooth     PW     G-vecs:    dense   smooth      PW
     Min         188      62     17                91380    17574    2621
     Max         189      63     18                91410    17621    2660
     Sum        6019    2003    565              2924709   563163   84677
 


     bravais-lattice index     =            0
     lattice parameter (alat)  =      14.8133  a.u.
     unit-cell volume          =    8964.7417 (a.u.)^3
     number of atoms/cell      =           56
     number of atomic types    =            5
     number of electrons       =       456.00
     number of Kohn-Sham states=          274
     kinetic-energy cutoff     =      60.0000  Ry
     charge density cutoff     =     720.0000  Ry
     convergence threshold     =      1.0E-08
     mixing beta               =       0.5000
     number of iterations used =           10  local-TF  mixing
     Exchange-correlation= SLA PW PBE PBE
                           (   1   4   3   4   0   0   0)

     celldm(1)=  14.813271  celldm(2)=   0.000000  celldm(3)=   0.000000
     celldm(4)=   0.000000  celldm(5)=   0.000000  celldm(6)=   0.000000

     crystal axes: (cart. coord. in units of alat)
               a(1) = (   1.000000   0.000000   0.000000 )  
               a(2) = (   0.000000   0.477453   0.000000 )  
               a(3) = (   0.000000   0.000000   5.776363 )  

     reciprocal axes: (cart. coord. in units 2 pi/alat)
               b(1) = (  1.000000  0.000000  0.000000 )  
               b(2) = (  0.000000  2.094448  0.000000 )  
               b(3) = (  0.000000  0.000000  0.173119 )  


     PseudoPot. # 1 for Ba read from file:
     ./pseudo/Ba.pbe-nsp-van.UPF
     MD5 check sum: 2b9c31dd849566dd297d80989662b7a0
     Pseudo is Ultrasoft + core correction, Zval = 10.0
     Generated by new atomic code, or converted to UPF format
     Using radial grid of  907 points,  6 beta functions with: 
                l(1) =   0
                l(2) =   0
                l(3) =   1
                l(4) =   1
                l(5) =   2
                l(6) =   2
     Q(r) pseudized with  6 coefficients,  rinner =    1.200   1.200   1.200
                                                       1.200   1.200

     PseudoPot. # 2 for Ca read from file:
     ./pseudo/Ca.pbe-nsp-van.UPF
     MD5 check sum: 6471098428ff4fa451746d08035ff179
     Pseudo is Ultrasoft + core correction, Zval = 10.0
     Generated by new atomic code, or converted to UPF format
     Using radial grid of  845 points,  6 beta functions with: 
                l(1) =   0
                l(2) =   0
                l(3) =   1
                l(4) =   1
                l(5) =   2
                l(6) =   2
     Q(r) pseudized with  6 coefficients,  rinner =    1.200   1.200   1.200
                                                       1.200   1.200

     PseudoPot. # 3 for Cu read from file:
     ./pseudo/Cu.pbe-n-van_ak.UPF
     MD5 check sum: 34e3282627ffb533726feb647e090d62
     Pseudo is Ultrasoft + core correction, Zval = 11.0
     Generated by new atomic code, or converted to UPF format
     Using radial grid of  867 points,  6 beta functions with: 
                l(1) =   0
                l(2) =   0
                l(3) =   1
                l(4) =   1
                l(5) =   2
                l(6) =   2
     Q(r) pseudized with  8 coefficients,  rinner =    1.400   1.400   1.400
                                                       1.400   1.400

     PseudoPot. # 4 for O  read from file:
     ./pseudo/O.pbe-van_ak.UPF
     MD5 check sum: 783ce7fe4c79b6a4916957118fed0856
     Pseudo is Ultrasoft, Zval =  6.0
     Generated by new atomic code, or converted to UPF format
     Using radial grid of  737 points,  4 beta functions with: 
                l(1) =   0
                l(2) =   0
                l(3) =   1
                l(4) =   1
     Q(r) pseudized with  8 coefficients,  rinner =    0.800   0.800   0.800


     PseudoPot. # 5 for Y  read from file:
     ./pseudo/Y.pbe-nsp-van.UPF
     MD5 check sum: 4412fed3ab108fed87a1b7d6a69a4a38
     Pseudo is Ultrasoft + core correction, Zval = 11.0
     Generated by new atomic code, or converted to UPF format
     Using radial grid of  885 points,  6 beta functions with: 
                l(1) =   0
                l(2) =   0
                l(3) =   1
                l(4) =   1
                l(5) =   2
                l(6) =   2
     Q(r) pseudized with  6 coefficients,  rinner =    1.200   1.200   1.200
                                                       1.200   1.200

     atomic species   valence    mass     pseudopotential
        Ba            10.00   137.32700     Ba( 1.00)
        Ca            10.00    40.07800     Ca( 1.00)
        Cu            11.00    63.54600     Cu( 1.00)
        O              6.00    15.99900     O ( 1.00)
        Y             11.00    88.90584     Y ( 1.00)

      4 Sym. Ops. (no inversion) found ( 2 have fractional translation)



   Cartesian axes

     site n.     atom                  positions (alat units)
         1           O   tau(   1) = (  -0.0008343   0.2387265  -0.0222443  )
         2           O   tau(   2) = (   0.5008340   0.2387265  -0.0222443  )
         3           Cu  tau(   3) = (   0.5017257   0.0000000   0.0109608  )
         4           Cu  tau(   4) = (  -0.0017260   0.0000000   0.0109608  )
         5           O   tau(   5) = (  -0.0028933   0.0000000   0.2506504  )
         6           O   tau(   6) = (   0.5028929   0.0000000   0.2506504  )
         7           Ba  tau(   7) = (   0.7499995   0.2387265   0.2749435  )
         8           Ba  tau(   8) = (   0.2499998   0.2387265   0.2755214  )
         9           Cu  tau(   9) = (   0.4980963   0.0000000   0.5208446  )
        10           Cu  tau(  10) = (   0.0019033   0.0000000   0.5208446  )
        11           O   tau(  11) = (   0.2499998   0.0000000   0.5341884  )
        12           O   tau(  12) = (   0.5083351   0.2387265   0.5569851  )
        13           O   tau(  13) = (  -0.0083354   0.2387265   0.5569851  )
        14           O   tau(  14) = (   0.7499995   0.0000000   0.5573831  )
        15           Ca  tau(  15) = (   0.2499998   0.2387265   0.7436937  )
        16           Y   tau(  16) = (   0.7499995   0.2387265   0.7469544  )
        17           O   tau(  17) = (  -0.0063798   0.2387265   0.9248530  )
        18           O   tau(  18) = (   0.5063794   0.2387265   0.9248530  )
        19           O   tau(  19) = (   0.7499995   0.0000000   0.9338544  )
        20           O   tau(  20) = (   0.2499998   0.0000000   0.9461329  )
        21           Cu  tau(  21) = (   0.0015717   0.0000000   0.9686860  )
        22           Cu  tau(  22) = (   0.4984280   0.0000000   0.9686860  )
        23           Ba  tau(  23) = (   0.2499998   0.2387265   1.2085224  )
        24           Ba  tau(  24) = (   0.7499995   0.2387265   1.2233294  )
        25           O   tau(  25) = (   0.0063772   0.0000000   1.2547537  )
        26           O   tau(  26) = (   0.4936224   0.0000000   1.2547537  )
        27           O   tau(  27) = (   0.5384045   0.2387265   1.4952521  )
        28           O   tau(  28) = (  -0.0384049   0.2387265   1.4952521  )
        29           Cu  tau(  29) = (   0.5006120   0.0000000   1.4952546  )
        30           Cu  tau(  30) = (  -0.0006123   0.0000000   1.4952546  )
        31           O   tau(  31) = (   0.4936212   0.0000000   1.7357531  )
        32           O   tau(  32) = (   0.0063785   0.0000000   1.7357531  )
        33           Ba  tau(  33) = (   0.7499995   0.2387265   1.7671824  )
        34           Ba  tau(  34) = (   0.2499998   0.2387265   1.7819920  )
        35           Cu  tau(  35) = (   0.4984280   0.0000000   2.0218232  )
        36           Cu  tau(  36) = (   0.0015717   0.0000000   2.0218232  )
        37           O   tau(  37) = (   0.2499998   0.0000000   2.0443814  )
        38           O   tau(  38) = (   0.7499995   0.0000000   2.0566511  )
        39           O   tau(  39) = (   0.5063781   0.2387265   2.0656562  )
        40           O   tau(  40) = (  -0.0063785   0.2387265   2.0656562  )
        41           Y   tau(  41) = (   0.7499995   0.2387265   2.2435498  )
        42           Ca  tau(  42) = (   0.2499998   0.2387265   2.2468194  )
        43           O   tau(  43) = (   0.7499995   0.0000000   2.5925795  )
        44           O   tau(  44) = (  -0.0083354   0.2387265   2.5929813  )
        45           O   tau(  45) = (   0.5083351   0.2387265   2.5929813  )
        46           O   tau(  46) = (   0.2499998   0.0000000   2.6157793  )
        47           Cu  tau(  47) = (   0.0019059   0.0000000   2.6291129  )
        48           Cu  tau(  48) = (   0.4980938   0.0000000   2.6291129  )
        49           Ba  tau(  49) = (   0.2499998   0.2387265   2.8744526  )
        50           Ba  tau(  50) = (   0.7499995   0.2387265   2.8749948  )
        51           O   tau(  51) = (  -0.0028895   0.0000000   2.8993020  )
        52           O   tau(  52) = (   0.5028891   0.0000000   2.8993020  )
        53           Cu  tau(  53) = (   0.5017844   0.0000000   3.1389865  )
        54           Cu  tau(  54) = (  -0.0017847   0.0000000   3.1389865  )
        55           O   tau(  55) = (   0.5008990   0.2387265   3.1721929  )
        56           O   tau(  56) = (  -0.0008994   0.2387265   3.1721929  )

     number of k points=    25  Gaussian smearing, width (Ry)=  0.0100
                       cart. coord. in units 2pi/alat
        k(    1) = (   0.0000000   0.0000000   0.0000000), wk =   0.0312500
        k(    2) = (   0.0000000   0.2618060   0.0000000), wk =   0.0625000
        k(    3) = (   0.0000000   0.5236121   0.0000000), wk =   0.0625000
        k(    4) = (   0.0000000   0.7854181   0.0000000), wk =   0.0625000
        k(    5) = (   0.0000000  -1.0472241   0.0000000), wk =   0.0312500
        k(    6) = (   0.1250000   0.0000000   0.0000000), wk =   0.0625000
        k(    7) = (   0.1250000   0.2618060   0.0000000), wk =   0.1250000
        k(    8) = (   0.1250000   0.5236121   0.0000000), wk =   0.1250000
        k(    9) = (   0.1250000   0.7854181   0.0000000), wk =   0.1250000
        k(   10) = (   0.1250000  -1.0472241   0.0000000), wk =   0.0625000
        k(   11) = (   0.2500000   0.0000000   0.0000000), wk =   0.0625000
        k(   12) = (   0.2500000   0.2618060   0.0000000), wk =   0.1250000
        k(   13) = (   0.2500000   0.5236121   0.0000000), wk =   0.1250000
        k(   14) = (   0.2500000   0.7854181   0.0000000), wk =   0.1250000
        k(   15) = (   0.2500000  -1.0472241   0.0000000), wk =   0.0625000
        k(   16) = (   0.3750000   0.0000000   0.0000000), wk =   0.0625000
        k(   17) = (   0.3750000   0.2618060   0.0000000), wk =   0.1250000
        k(   18) = (   0.3750000   0.5236121   0.0000000), wk =   0.1250000
        k(   19) = (   0.3750000   0.7854181   0.0000000), wk =   0.1250000
        k(   20) = (   0.3750000  -1.0472241   0.0000000), wk =   0.0625000
        k(   21) = (  -0.5000000   0.0000000   0.0000000), wk =   0.0312500
        k(   22) = (  -0.5000000   0.2618060   0.0000000), wk =   0.0625000
        k(   23) = (  -0.5000000   0.5236121   0.0000000), wk =   0.0625000
        k(   24) = (  -0.5000000   0.7854181   0.0000000), wk =   0.0625000
        k(   25) = (  -0.5000000  -1.0472241   0.0000000), wk =   0.0312500

     Dense  grid:  2924709 G-vectors     FFT dimensions: ( 128,  64, 750)

     Smooth grid:   563163 G-vectors     FFT dimensions: (  80,  36, 432)

     Estimated max dynamical RAM per process >     847.57 MB

     Estimated total dynamical RAM >      26.49 GB

     Initial potential from superposition of free atoms

     starting charge  455.69457, renormalised to  456.00000

     negative rho (up, down):  9.352E-02 0.000E+00
     Starting wfcs are  396 randomized atomic wfcs

     total cpu time spent up to now is       26.7 secs

     Self-consistent Calculation

     iteration #  1     ecut=    60.00 Ry     beta= 0.50
     Davidson diagonalization with overlap
     ethr =  1.00E-02,  avg # of iterations =  2.0

     negative rho (up, down):  8.583E-02 0.000E+00

     total cpu time spent up to now is       74.0 secs

     total energy              =   -3708.37617990 Ry
     Harris-Foulkes estimate   =   -3716.31840081 Ry
     estimated scf accuracy    <      30.56501535 Ry

     iteration #  2     ecut=    60.00 Ry     beta= 0.50
     Davidson diagonalization with overlap
     ethr =  6.70E-03,  avg # of iterations =  2.0

     negative rho (up, down):  8.517E-02 0.000E+00

     total cpu time spent up to now is      121.2 secs

     total energy              =   -3711.04022813 Ry
     Harris-Foulkes estimate   =   -3712.18998964 Ry
     estimated scf accuracy    <       7.39577836 Ry

     iteration #  3     ecut=    60.00 Ry     beta= 0.50
     Davidson diagonalization with overlap
     ethr =  1.62E-03,  avg # of iterations =  2.0

     negative rho (up, down):  8.535E-02 0.000E+00

     total cpu time spent up to now is      168.0 secs

     total energy              =   -3711.48068625 Ry
     Harris-Foulkes estimate   =   -3711.80735637 Ry
     estimated scf accuracy    <       9.19457554 Ry

     iteration #  4     ecut=    60.00 Ry     beta= 0.50
     Davidson diagonalization with overlap
     ethr =  1.62E-03,  avg # of iterations =  1.0

     negative rho (up, down):  8.590E-02 0.000E+00

     total cpu time spent up to now is      213.0 secs

     total energy              =   -3711.47597413 Ry
     Harris-Foulkes estimate   =   -3711.65292309 Ry
     estimated scf accuracy    <       3.14990935 Ry

     iteration #  5     ecut=    60.00 Ry     beta= 0.50
     Davidson diagonalization with overlap
     ethr =  6.91E-04,  avg # of iterations =  1.8

     negative rho (up, down):  8.730E-02 0.000E+00

     total cpu time spent up to now is      257.9 secs

     total energy              =   -3711.41368337 Ry
     Harris-Foulkes estimate   =   -3711.54662055 Ry
     estimated scf accuracy    <       1.02744063 Ry

     iteration #  6     ecut=    60.00 Ry     beta= 0.50
     Davidson diagonalization with overlap
     ethr =  2.25E-04,  avg # of iterations =  7.9

     negative rho (up, down):  8.804E-02 0.000E+00

     total cpu time spent up to now is      324.3 secs

     total energy              =   -3711.44655357 Ry
     Harris-Foulkes estimate   =   -3711.48126275 Ry
     estimated scf accuracy    <       3.03282247 Ry

     iteration #  7     ecut=    60.00 Ry     beta= 0.50
     Davidson diagonalization with overlap
     ethr =  2.25E-04,  avg # of iterations =  1.0

     negative rho (up, down):  8.890E-02 0.000E+00

     total cpu time spent up to now is      367.4 secs

     total energy              =   -3711.43269978 Ry
     Harris-Foulkes estimate   =   -3711.45986646 Ry
     estimated scf accuracy    <       1.42833523 Ry

     iteration #  8     ecut=    60.00 Ry     beta= 0.50
     Davidson diagonalization with overlap
     ethr =  2.25E-04,  avg # of iterations =  1.7

     negative rho (up, down):  8.949E-02 0.000E+00

     total cpu time spent up to now is      412.0 secs

     total energy              =   -3711.41929231 Ry
     Harris-Foulkes estimate   =   -3711.44909460 Ry
     estimated scf accuracy    <       1.81714321 Ry

     iteration #  9     ecut=    60.00 Ry     beta= 0.50
     Davidson diagonalization with overlap
     ethr =  2.25E-04,  avg # of iterations =  1.9

     negative rho (up, down):  8.979E-02 0.000E+00

     total cpu time spent up to now is      460.6 secs

     total energy              =   -3711.41892440 Ry
     Harris-Foulkes estimate   =   -3711.43128569 Ry
     estimated scf accuracy    <       0.53070785 Ry

     iteration # 10     ecut=    60.00 Ry     beta= 0.50
     Davidson diagonalization with overlap
     ethr =  1.16E-04,  avg # of iterations =  6.8

     negative rho (up, down):  8.960E-02 0.000E+00

     total cpu time spent up to now is      520.7 secs

     total energy              =   -3711.41488082 Ry
     Harris-Foulkes estimate   =   -3711.42280993 Ry
     estimated scf accuracy    <       0.22298219 Ry

     iteration # 11     ecut=    60.00 Ry     beta= 0.50
     Davidson diagonalization with overlap
     ethr =  4.89E-05,  avg # of iterations =  5.6

     negative rho (up, down):  8.941E-02 0.000E+00

     total cpu time spent up to now is      575.5 secs

     total energy              =   -3711.41484141 Ry
     Harris-Foulkes estimate   =   -3711.41759340 Ry
     estimated scf accuracy    <       0.15877599 Ry

     iteration # 12     ecut=    60.00 Ry     beta= 0.50
     Davidson diagonalization with overlap
     ethr =  3.48E-05,  avg # of iterations =  1.4

     negative rho (up, down):  8.922E-02 0.000E+00

     total cpu time spent up to now is      618.8 secs

     total energy              =   -3711.41439278 Ry
     Harris-Foulkes estimate   =   -3711.41582304 Ry
     estimated scf accuracy    <       0.15318080 Ry

     iteration # 13     ecut=    60.00 Ry     beta= 0.50
     Davidson diagonalization with overlap
     ethr =  3.36E-05,  avg # of iterations =  1.0

     negative rho (up, down):  8.889E-02 0.000E+00

     total cpu time spent up to now is      661.2 secs

     total energy              =   -3711.41207647 Ry
     Harris-Foulkes estimate   =   -3711.41464639 Ry
     estimated scf accuracy    <       0.13401229 Ry

     iteration # 14     ecut=    60.00 Ry     beta= 0.50
     Davidson diagonalization with overlap
     ethr =  2.94E-05,  avg # of iterations =  1.8

     negative rho (up, down):  9.041E-02 0.000E+00

     total cpu time spent up to now is      706.3 secs

     total energy              =   -3711.40943770 Ry
     Harris-Foulkes estimate   =   -3711.41260944 Ry
     estimated scf accuracy    <       0.12030719 Ry

     iteration # 15     ecut=    60.00 Ry     beta= 0.50
     Davidson diagonalization with overlap
     c_bands:  1 eigenvalues not converged
     ethr =  2.64E-05,  avg # of iterations =  3.5

     negative rho (up, down):  9.774E-02 0.000E+00

     total cpu time spent up to now is      754.9 secs

     total energy              =   -3711.40705444 Ry
     Harris-Foulkes estimate   =   -3711.41010111 Ry
     estimated scf accuracy    <       0.06099407 Ry

     iteration # 16     ecut=    60.00 Ry     beta= 0.50
     Davidson diagonalization with overlap
     ethr =  1.34E-05,  avg # of iterations = 11.3

     negative rho (up, down):  1.140E-01 0.000E+00

     total cpu time spent up to now is      828.2 secs

     total energy              =   -3711.40597539 Ry
     Harris-Foulkes estimate   =   -3711.40766491 Ry
     estimated scf accuracy    <       0.02823648 Ry

     iteration # 17     ecut=    60.00 Ry     beta= 0.50
     Davidson diagonalization with overlap
     c_bands:  1 eigenvalues not converged
     ethr =  6.19E-06,  avg # of iterations =  9.5

     negative rho (up, down):  1.192E-01 0.000E+00

     total cpu time spent up to now is      896.3 secs

     total energy              =   -3711.40517166 Ry
     Harris-Foulkes estimate   =   -3711.40630435 Ry
     estimated scf accuracy    <       0.01360376 Ry

     iteration # 18     ecut=    60.00 Ry     beta= 0.50
     Davidson diagonalization with overlap
     c_bands:  1 eigenvalues not converged
     ethr =  2.98E-06,  avg # of iterations = 11.0

     negative rho (up, down):  1.034E-01 0.000E+00

     total cpu time spent up to now is      968.0 secs

     total energy              =   -3711.40428053 Ry
     Harris-Foulkes estimate   =   -3711.40538557 Ry
     estimated scf accuracy    <       0.00976093 Ry

     iteration # 19     ecut=    60.00 Ry     beta= 0.50
     Davidson diagonalization with overlap
     c_bands:  1 eigenvalues not converged
     ethr =  2.14E-06,  avg # of iterations =  6.8

     negative rho (up, down):  9.117E-02 0.000E+00

     total cpu time spent up to now is     1027.6 secs

     total energy              =   -3711.40419799 Ry
     Harris-Foulkes estimate   =   -3711.40443668 Ry
     estimated scf accuracy    <       0.00681737 Ry

     iteration # 20     ecut=    60.00 Ry     beta= 0.50
     Davidson diagonalization with overlap
     c_bands:  1 eigenvalues not converged
     c_bands:  1 eigenvalues not converged
     ethr =  1.50E-06,  avg # of iterations = 10.4

     negative rho (up, down):  8.897E-02 0.000E+00

     total cpu time spent up to now is     1097.5 secs

     total energy              =   -3711.40415774 Ry
     Harris-Foulkes estimate   =   -3711.40424838 Ry
     estimated scf accuracy    <       0.00360101 Ry

     iteration # 21     ecut=    60.00 Ry     beta= 0.50
     Davidson diagonalization with overlap
     ethr =  7.90E-07,  avg # of iterations =  6.9

     negative rho (up, down):  9.087E-02 0.000E+00

     total cpu time spent up to now is     1158.6 secs

     total energy              =   -3711.40422595 Ry
     Harris-Foulkes estimate   =   -3711.40421836 Ry
     estimated scf accuracy    <       0.00115878 Ry

     iteration # 22     ecut=    60.00 Ry     beta= 0.50
     Davidson diagonalization with overlap
     ethr =  2.54E-07,  avg # of iterations =  3.4

     negative rho (up, down):  9.088E-02 0.000E+00

     total cpu time spent up to now is     1207.6 secs

     total energy              =   -3711.40425810 Ry
     Harris-Foulkes estimate   =   -3711.40426634 Ry
     estimated scf accuracy    <       0.00038986 Ry

     iteration # 23     ecut=    60.00 Ry     beta= 0.50
     Davidson diagonalization with overlap
     ethr =  8.55E-08,  avg # of iterations =  1.4

     negative rho (up, down):  9.089E-02 0.000E+00

     total cpu time spent up to now is     1251.4 secs

     total energy              =   -3711.40426563 Ry
     Harris-Foulkes estimate   =   -3711.40426564 Ry
     estimated scf accuracy    <       0.00011583 Ry

     iteration # 24     ecut=    60.00 Ry     beta= 0.50
     Davidson diagonalization with overlap
     ethr =  2.54E-08,  avg # of iterations =  1.2

     negative rho (up, down):  9.167E-02 0.000E+00

     total cpu time spent up to now is     1294.2 secs

     total energy              =   -3711.40427394 Ry
     Harris-Foulkes estimate   =   -3711.40426848 Ry
     estimated scf accuracy    <       0.00007135 Ry

     iteration # 25     ecut=    60.00 Ry     beta= 0.50
     Davidson diagonalization with overlap
     ethr =  1.56E-08,  avg # of iterations =  1.8

     negative rho (up, down):  9.159E-02 0.000E+00

     total cpu time spent up to now is     1338.6 secs

     total energy              =   -3711.40427055 Ry
     Harris-Foulkes estimate   =   -3711.40427539 Ry
     estimated scf accuracy    <       0.00001319 Ry

     iteration # 26     ecut=    60.00 Ry     beta= 0.50
     Davidson diagonalization with overlap
     ethr =  2.89E-09,  avg # of iterations =  3.2

     negative rho (up, down):  9.140E-02 0.000E+00

     total cpu time spent up to now is     1389.8 secs

     total energy              =   -3711.40427084 Ry
     Harris-Foulkes estimate   =   -3711.40427201 Ry
     estimated scf accuracy    <       0.00000946 Ry

     iteration # 27     ecut=    60.00 Ry     beta= 0.50
     Davidson diagonalization with overlap
     ethr =  2.08E-09,  avg # of iterations =  1.0

     negative rho (up, down):  9.141E-02 0.000E+00

     total cpu time spent up to now is     1432.5 secs

     total energy              =   -3711.40427107 Ry
     Harris-Foulkes estimate   =   -3711.40427120 Ry
     estimated scf accuracy    <       0.00000403 Ry

     iteration # 28     ecut=    60.00 Ry     beta= 0.50
     Davidson diagonalization with overlap
     ethr =  8.84E-10,  avg # of iterations =  1.0

     negative rho (up, down):  9.124E-02 0.000E+00

     total cpu time spent up to now is     1475.0 secs

     total energy              =   -3711.40427136 Ry
     Harris-Foulkes estimate   =   -3711.40427118 Ry
     estimated scf accuracy    <       0.00000400 Ry

     iteration # 29     ecut=    60.00 Ry     beta= 0.50
     Davidson diagonalization with overlap
     ethr =  8.76E-10,  avg # of iterations =  1.0

     negative rho (up, down):  9.126E-02 0.000E+00

     total cpu time spent up to now is     1517.2 secs

     total energy              =   -3711.40427131 Ry
     Harris-Foulkes estimate   =   -3711.40427142 Ry
     estimated scf accuracy    <       0.00000157 Ry

     iteration # 30     ecut=    60.00 Ry     beta= 0.50
     Davidson diagonalization with overlap
     ethr =  3.45E-10,  avg # of iterations =  1.0

     negative rho (up, down):  9.128E-02 0.000E+00

     total cpu time spent up to now is     1559.9 secs

     total energy              =   -3711.40427127 Ry
     Harris-Foulkes estimate   =   -3711.40427135 Ry
     estimated scf accuracy    <       0.00000072 Ry

     iteration # 31     ecut=    60.00 Ry     beta= 0.50
     Davidson diagonalization with overlap
     ethr =  1.59E-10,  avg # of iterations =  1.2

     negative rho (up, down):  9.130E-02 0.000E+00

     total cpu time spent up to now is     1602.8 secs

     total energy              =   -3711.40427126 Ry
     Harris-Foulkes estimate   =   -3711.40427129 Ry
     estimated scf accuracy    <       0.00000024 Ry

     iteration # 32     ecut=    60.00 Ry     beta= 0.50
     Davidson diagonalization with overlap
     ethr =  5.17E-11,  avg # of iterations =  1.4

     negative rho (up, down):  9.133E-02 0.000E+00

     total cpu time spent up to now is     1646.2 secs

     total energy              =   -3711.40427120 Ry
     Harris-Foulkes estimate   =   -3711.40427126 Ry
     estimated scf accuracy    <       0.00000008 Ry

     iteration # 33     ecut=    60.00 Ry     beta= 0.50
     Davidson diagonalization with overlap
     ethr =  1.79E-11,  avg # of iterations =  2.9

     negative rho (up, down):  9.135E-02 0.000E+00

     total cpu time spent up to now is     1694.7 secs

     total energy              =   -3711.40427118 Ry
     Harris-Foulkes estimate   =   -3711.40427120 Ry
     estimated scf accuracy    <       0.00000005 Ry

     iteration # 34     ecut=    60.00 Ry     beta= 0.50
     Davidson diagonalization with overlap
     ethr =  1.05E-11,  avg # of iterations =  1.5

     negative rho (up, down):  9.135E-02 0.000E+00

     total cpu time spent up to now is     1741.2 secs

     total energy              =   -3711.40427119 Ry
     Harris-Foulkes estimate   =   -3711.40427118 Ry
     estimated scf accuracy    <       0.00000003 Ry

     iteration # 35     ecut=    60.00 Ry     beta= 0.50
     Davidson diagonalization with overlap
     ethr =  6.75E-12,  avg # of iterations =  1.0

     negative rho (up, down):  9.135E-02 0.000E+00

     total cpu time spent up to now is     1789.6 secs

     total energy              =   -3711.40427119 Ry
     Harris-Foulkes estimate   =   -3711.40427119 Ry
     estimated scf accuracy    <       0.00000002 Ry

     iteration # 36     ecut=    60.00 Ry     beta= 0.50
     Davidson diagonalization with overlap
     ethr =  4.55E-12,  avg # of iterations =  1.0

     negative rho (up, down):  9.135E-02 0.000E+00

     total cpu time spent up to now is     1831.1 secs

     End of self-consistent calculation

          k = 0.0000 0.0000 0.0000 ( 70419 PWs)   bands (ev):

   -40.6931 -38.0824 -38.0042 -35.6311 -22.8669 -22.7960 -22.7338 -22.6677
   -22.6189 -22.5390 -22.4917 -22.3850 -20.7500 -20.6967 -20.6197 -19.1582
   -19.1047 -19.0717 -18.4794 -18.3753 -18.0074 -16.9792 -16.8440 -16.6608
   -15.8765 -15.3906 -15.3850 -15.1770 -14.9625 -14.8841 -14.8666 -14.8135
   -14.7231 -14.6501 -14.6361 -14.5351 -14.4582 -14.4333 -14.4272 -14.2911
   -14.2771 -14.0806 -13.9879 -13.9700 -13.9652 -13.9603 -13.9540 -13.9529
   -13.8656 -13.8391 -13.6570 -13.6324 -13.5163 -13.4784  -8.1994  -8.1074
    -8.0338  -7.9253  -7.8479  -7.8455  -7.7970  -7.7691  -7.7398  -7.7113
    -7.7073  -7.6980  -7.6915  -7.6692  -7.6109  -7.5469  -7.5293  -7.5290
    -7.4693  -7.4600  -7.4139  -7.3436  -7.3059  -7.1908  -3.3305  -2.9635
    -2.7910  -2.6472  -2.6300  -2.4620  -2.2061  -2.1527  -2.0945  -2.0927
    -2.0769  -2.0669  -2.0652  -2.0442  -2.0200  -1.8627  -1.8151  -1.7768
    -1.6885  -1.6428  -1.6084  -1.5082  -1.4558  -1.4538  -1.3917  -1.3547
    -1.3537  -1.3080  -1.2715  -1.1851  -1.1083  -1.0947  -1.0833  -1.0755
    -1.0644  -0.9705  -0.9008  -0.8994  -0.8975  -0.8961  -0.8597  -0.8543
    -0.8482  -0.8053  -0.7252  -0.7152  -0.6738  -0.6408  -0.6345  -0.6323
    -0.5509  -0.5487  -0.3690  -0.3099  -0.2948  -0.2631  -0.2559  -0.2343
    -0.2066  -0.1634  -0.1347  -0.1153  -0.1106  -0.0914  -0.0748  -0.0236
     0.0125   0.0270   0.0533   0.0716   0.0778   0.0802   0.0837   0.0867
     0.1384   0.1977   0.1989   0.2174   0.2743   0.2917   0.2937   0.3075
     0.3175   0.3308   0.3330   0.3651   0.4099   0.4353   0.4367   0.4386
     0.4399   0.5179   0.5266   0.5510   0.6045   0.6257   0.6320   0.6348
     0.6642   0.6767   0.6782   0.8045   0.8407   0.8752   0.9459   1.0266
     1.0628   1.1173   1.1248   1.1252   1.1425   1.1433   1.1915   1.2447
     1.2743   1.2866   1.2872   1.3113   1.3263   1.3539   1.4165   1.4189
     1.4305   1.4822   1.5067   1.5331   1.5513   1.6664   1.6726   1.6991
     1.7200   1.7368   1.7768   1.7890   1.8187   1.8550   1.8638   1.8847
     1.9120   1.9670   2.0038   2.1190   2.1346   2.1351   2.1800   2.1979
     2.2612   2.2803   2.3340   2.3603   2.3744   2.3948   2.4533   2.4793
     2.5751   2.6466   2.6571   2.7368   2.9507   2.9644   3.8124   5.2831
     5.2832   5.3000   5.4499   5.7308   5.9307   6.0022   6.1535   6.2154
     6.6551   6.7232   6.8875   7.0732   7.1534   7.3511   7.4008   7.4327
     7.4444   7.4469   7.4616   7.5540   7.7257   7.7378   8.1054   8.1838
     8.1994   8.2225   8.2468   8.3504   8.4149   8.5347   8.5684   8.5787
     8.6603   8.7674

          k = 0.0000 0.2618 0.0000 ( 70389 PWs)   bands (ev):

   -40.6911 -38.0810 -38.0015 -35.6294 -22.8434 -22.7714 -22.7150 -22.6486
   -22.5941 -22.5155 -22.4726 -22.3661 -20.7462 -20.7215 -20.6304 -19.1558
   -19.1229 -19.0721 -18.4407 -18.3680 -18.1183 -16.9497 -16.8397 -16.7269
   -15.8267 -15.3467 -15.2845 -15.1687 -14.9055 -14.8174 -14.8101 -14.7616
   -14.6764 -14.6672 -14.5976 -14.5334 -14.4240 -14.4239 -14.3718 -14.2539
   -14.2377 -14.0766 -14.0281 -13.9642 -13.9608 -13.9575 -13.9435 -13.9334
   -13.9035 -13.8339 -13.6885 -13.6607 -13.5771 -13.5103  -8.2082  -8.0981
    -8.0272  -7.9385  -7.8242  -7.8093  -7.8018  -7.7826  -7.7723  -7.7643
    -7.7499  -7.7438  -7.7428  -7.7150  -7.6984  -7.6764  -7.6496  -7.5899
    -7.5860  -7.5175  -7.5118  -7.4564  -7.4319  -7.4034  -3.4517  -3.0631
    -2.8529  -2.8192  -2.6865  -2.4770  -2.3187  -2.2711  -2.2115  -2.1650
    -2.1237  -2.0933  -2.0880  -2.0691  -2.0425  -2.0327  -1.9582  -1.8575
    -1.8526  -1.8015  -1.7936  -1.7127  -1.6791  -1.6056  -1.5879  -1.5641
    -1.5106  -1.4336  -1.3477  -1.3462  -1.3421  -1.3252  -1.3142  -1.3099
    -1.2244  -1.0887  -1.0746  -1.0639  -1.0602  -0.9790  -0.9349  -0.9210
    -0.8110  -0.7932  -0.7540  -0.6845  -0.6830  -0.6580  -0.6205  -0.5892
    -0.5303  -0.4858  -0.3814  -0.3453  -0.3261  -0.3083  -0.2969  -0.2741
    -0.2491  -0.2356  -0.2178  -0.1828  -0.1733  -0.1130  -0.1122  -0.0750
    -0.0525  -0.0040   0.0201   0.0285   0.0620   0.0825   0.0856   0.0947
     0.1747   0.2104   0.2307   0.2402   0.2624   0.2629   0.3065   0.3122
     0.3550   0.3615   0.3630   0.4071   0.4200   0.4229   0.4620   0.4838
     0.4852   0.4893   0.5036   0.5105   0.5465   0.5648   0.6488   0.7375
     0.7446   0.8070   0.8159   0.8718   0.9167   0.9190   1.0335   1.0793
     1.1073   1.1325   1.1562   1.2196   1.2511   1.2740   1.2819   1.2924
     1.3308   1.3384   1.3571   1.3618   1.3706   1.3986   1.4162   1.4748
     1.4771   1.5506   1.5541   1.5831   1.6186   1.6445   1.6642   1.6676
     1.6906   1.7201   1.7661   1.7956   1.7994   1.8678   1.8687   1.9119
     1.9256   1.9561   1.9778   2.0459   2.0934   2.1027   2.1569   2.2294
     2.3123   2.3291   2.3609   2.5145   2.8214   2.8810   2.9352   2.9373
     2.9757   3.0154   3.0418   3.1169   3.2348   3.2862   4.0109   5.1132
     5.4403   5.6826   5.7194   5.9242   5.9992   6.1328   6.3271   6.3692
     6.6934   7.0267   7.1380   7.1864   7.1956   7.2306   7.2583   7.2943
     7.5118   7.6623   7.6653   7.7742   7.8411   7.8481   7.9435   8.1338
     8.3025   8.3986   8.4557   8.4900   8.6450   8.6486   8.7058   8.7800
     8.8353   8.9818

          k = 0.0000 0.5236 0.0000 ( 70325 PWs)   bands (ev):

   -40.6860 -38.0777 -37.9950 -35.6253 -22.7853 -22.7109 -22.6691 -22.6017
   -22.5328 -22.4575 -22.4259 -22.3199 -20.8171 -20.7369 -20.6175 -19.1807
   -19.1501 -19.0584 -18.3585 -18.3505 -18.3411 -16.8794 -16.8669 -16.8292
   -15.6957 -15.2520 -15.1587 -15.0445 -14.7556 -14.7215 -14.6632 -14.6614
   -14.6332 -14.5965 -14.5482 -14.5037 -14.4198 -14.4091 -14.2018 -14.1623
   -14.1442 -14.1425 -14.0712 -13.9920 -13.9415 -13.9386 -13.9021 -13.8867
   -13.8640 -13.8270 -13.8237 -13.7098 -13.6877 -13.6024  -8.2940  -8.2148
    -8.1511  -8.0824  -8.0729  -8.0553  -8.0484  -7.9904  -7.9359  -7.9196
    -7.9066  -7.8674  -7.8140  -7.7764  -7.7742  -7.7303  -7.6935  -7.6849
    -7.6700  -7.6635  -7.6517  -7.5394  -7.5271  -7.3683  -3.8634  -3.4541
    -3.1613  -3.0986  -2.8781  -2.7566  -2.6567  -2.6123  -2.5177  -2.4444
    -2.4141  -2.3834  -2.3491  -2.2807  -2.2303  -2.2009  -2.1589  -2.1577
    -2.1521  -2.1056  -2.0712  -2.0656  -2.0168  -2.0065  -1.9972  -1.9828
    -1.8998  -1.8765  -1.7095  -1.6109  -1.5591  -1.5218  -1.4845  -1.4547
    -1.3440  -1.2803  -1.1517  -1.1269  -1.1017  -1.0176  -0.9688  -0.9025
    -0.8897  -0.8549  -0.8232  -0.7994  -0.7683  -0.7675  -0.7514  -0.7318
    -0.6446  -0.6016  -0.5846  -0.5826  -0.5637  -0.5180  -0.5079  -0.4863
    -0.4833  -0.4719  -0.4396  -0.4316  -0.4265  -0.3443  -0.3137  -0.2827
    -0.2743  -0.2687  -0.2387  -0.1960  -0.1532  -0.0730   0.0660   0.1324
     0.1861   0.2204   0.2788   0.2886   0.3305   0.3384   0.3501   0.3768
     0.3983   0.4092   0.4275   0.4886   0.4903   0.5818   0.6765   0.6896
     0.7121   0.8213   0.8535   0.8773   0.9098   0.9449   1.0301   1.0521
     1.0963   1.1129   1.1475   1.1553   1.1667   1.1831   1.2493   1.2746
     1.3087   1.3291   1.3358   1.3377   1.3419   1.3668   1.3748   1.3872
     1.3975   1.4102   1.4408   1.4674   1.4911   1.5210   1.5341   1.5412
     1.5433   1.5752   1.6392   1.6630   1.7215   1.7607   1.7773   1.8150
     1.8315   1.8616   1.8908   1.9223   1.9445   1.9461   1.9712   1.9943
     2.0232   2.0399   2.0633   2.0806   2.1523   2.1639   2.2216   2.2804
     2.3010   2.3629   2.5293   2.6178   3.1539   3.1875   3.1924   3.2453
     3.6394   3.7097   3.7483   3.9037   4.0270   4.0604   4.4117   4.8341
     5.6568   5.9574   6.0993   6.3368   6.5848   6.5991   6.6289   6.7050
     6.8045   6.8233   6.8858   7.0409   7.1827   7.3157   7.4655   7.8864
     7.9509   8.0134   8.0779   8.1391   8.3119   8.4093   8.5023   8.5464
     8.6298   8.7196   8.7260   8.7878   8.8887   8.8959   8.9348   9.0943
     9.2095   9.2873

          k = 0.0000 0.7854 0.0000 ( 70318 PWs)   bands (ev):

   -40.6810 -38.0744 -37.9885 -35.6212 -22.7256 -22.6485 -22.6221 -22.5538
   -22.4695 -22.3980 -22.3782 -22.2726 -20.9191 -20.7277 -20.5940 -19.2401
   -19.1444 -19.0417 -18.5674 -18.3331 -18.2351 -17.0016 -16.8188 -16.7933
   -15.5335 -15.1778 -15.1538 -14.8301 -14.7948 -14.6959 -14.6872 -14.5744
   -14.4918 -14.4854 -14.4315 -14.3867 -14.3691 -14.2640 -14.2510 -14.0927
   -14.0784 -14.0712 -14.0622 -13.9904 -13.9770 -13.8877 -13.8788 -13.8559
   -13.8433 -13.8288 -13.8253 -13.8054 -13.7450 -13.7238  -8.6534  -8.6099
    -8.4500  -8.3676  -8.3504  -8.3191  -8.2163  -8.2009  -8.0459  -8.0109
    -7.9941  -7.9461  -7.9251  -7.8832  -7.8188  -7.7497  -7.7174  -7.6778
    -7.6468  -7.6082  -7.5778  -7.5637  -7.4040  -7.2582  -4.3238  -3.9385
    -3.5023  -3.4547  -3.2775  -3.1669  -3.1164  -2.9881  -2.9009  -2.8781
    -2.7756  -2.7359  -2.7099  -2.7098  -2.6986  -2.6683  -2.5293  -2.3571
    -2.3418  -2.2611  -2.1235  -2.1142  -2.1080  -2.1011  -2.0566  -2.0405
    -2.0182  -1.9483  -1.7953  -1.7153  -1.6345  -1.5761  -1.5446  -1.5304
    -1.4957  -1.4331  -1.3904  -1.3435  -1.2230  -1.1100  -1.1060  -1.0176
    -0.9600  -0.9541  -0.9504  -0.9345  -0.9087  -0.8895  -0.8745  -0.8231
    -0.7997  -0.7765  -0.7754  -0.7680  -0.7350  -0.7174  -0.7081  -0.7003
    -0.6888  -0.6567  -0.6182  -0.6154  -0.6057  -0.5337  -0.5176  -0.5173
    -0.5012  -0.4654  -0.4348  -0.1285  -0.1100  -0.0764  -0.0086   0.0529
     0.0986   0.1462   0.2910   0.3134   0.3606   0.3665   0.3771   0.3942
     0.4725   0.5608   0.6136   0.6978   0.7144   0.8737   0.8848   0.9254
     0.9653   0.9833   1.0832   1.0970   1.1242   1.1441   1.1557   1.1566
     1.1746   1.1928   1.2628   1.2649   1.3330   1.3530   1.3596   1.3725
     1.4010   1.4165   1.4836   1.4902   1.5124   1.5527   1.5706   1.5711
     1.5807   1.5985   1.6585   1.6690   1.7287   1.7296   1.7544   1.7801
     1.7847   1.8203   1.8458   1.8509   1.8582   1.9076   1.9188   1.9372
     1.9912   1.9929   2.0283   2.0500   2.0574   2.0928   2.1179   2.1343
     2.1422   2.3110   2.3268   2.3318   2.3481   2.3564   2.3722   2.3910
     2.5387   2.5566   2.5685   2.8309   3.0014   3.0316   3.1051   3.1604
     3.9018   4.0522   4.2555   4.5489   4.6126   4.6941   4.7493   4.8486
     5.7061   5.9568   6.1737   6.1761   6.2572   6.3490   6.5265   6.7080
     6.8324   7.3601   7.5140   7.5674   7.6254   7.7452   7.9168   8.0181
     8.1257   8.4232   8.5402   8.6472   8.6596   8.7246   8.8379   8.8848
     8.9199   9.0228   9.0511   9.1303   9.1919   9.2147   9.2757   9.3609
     9.3698   9.4014

          k = 0.0000-1.0472 0.0000 ( 70362 PWs)   bands (ev):

   -40.6789 -38.0731 -37.9858 -35.6195 -22.7004 -22.6221 -22.6023 -22.5336
   -22.4427 -22.3729 -22.3581 -22.2526 -20.9610 -20.7239 -20.5835 -19.2645
   -19.1421 -19.0346 -18.6480 -18.3259 -18.1878 -17.0520 -16.8146 -16.7576
   -15.4391 -15.2128 -15.1120 -14.8374 -14.8304 -14.7267 -14.6336 -14.5534
   -14.4703 -14.4108 -14.3976 -14.3127 -14.2467 -14.2052 -14.1648 -14.0889
   -14.0754 -14.0698 -14.0402 -14.0356 -13.9300 -13.9145 -13.9110 -13.8567
   -13.8407 -13.8381 -13.8335 -13.8243 -13.7975 -13.7008  -8.8066  -8.7632
    -8.6039  -8.4858  -8.4710  -8.4691  -8.3191  -8.2290  -8.1096  -8.0279
    -7.9995  -7.9825  -7.9188  -7.9108  -7.8287  -7.7553  -7.7478  -7.6658
    -7.6567  -7.6165  -7.5314  -7.5111  -7.3504  -7.2099  -4.5114  -4.1407
    -3.6888  -3.5737  -3.4747  -3.3374  -3.3055  -3.1978  -3.0761  -3.0492
    -3.0077  -2.9495  -2.9400  -2.9299  -2.7711  -2.7130  -2.5580  -2.3861
    -2.3795  -2.3754  -2.1459  -2.1246  -2.1197  -2.0867  -2.0436  -2.0331
    -2.0073  -1.8581  -1.8117  -1.8098  -1.7344  -1.6975  -1.6398  -1.5627
    -1.5427  -1.4895  -1.4776  -1.2787  -1.2382  -1.2070  -1.1724  -1.1139
    -1.0568  -1.0195  -0.9720  -0.9717  -0.9689  -0.9372  -0.9221  -0.9219
    -0.9152  -0.8857  -0.8490  -0.8261  -0.8150  -0.7491  -0.7446  -0.7341
    -0.7326  -0.7194  -0.7173  -0.7075  -0.6958  -0.6084  -0.6067  -0.5963
    -0.5180  -0.4613  -0.3943  -0.1089  -0.0945  -0.0822  -0.0794   0.0192
     0.0430   0.0899   0.3010   0.3345   0.3665   0.3673   0.3696   0.3889
     0.5077   0.5944   0.6742   0.7314   0.7872   0.9770   0.9854   1.0083
     1.0169   1.0379   1.0482   1.1290   1.1438   1.1618   1.2081   1.2103
     1.2193   1.2954   1.2962   1.3079   1.3602   1.4425   1.4461   1.4550
     1.4650   1.4725   1.4873   1.5064   1.5246   1.5416   1.6269   1.6432
     1.6858   1.7269   1.7335   1.7512   1.7895   1.8194   1.8410   1.8668
     1.9100   1.9214   1.9458   1.9592   2.0045   2.0087   2.0107   2.0458
     2.0499   2.0770   2.1056   2.1628   2.2418   2.2680   2.2875   2.2922
     2.3064   2.3097   2.3195   2.4050   2.4437   2.4704   2.5355   2.5459
     2.5462   2.7199   2.7307   2.7690   2.7983   2.9362   2.9874   2.9922
     3.8832   4.0975   4.4314   4.6891   4.7630   4.8281   4.9751   5.0798
     5.6352   5.9342   5.9381   6.0822   6.2280   6.3913   6.4784   6.5933
     6.7208   7.6017   7.6931   7.9130   8.0072   8.0082   8.0431   8.1831
     8.3460   8.4288   8.4829   8.5109   8.6842   8.8428   8.9025   8.9108
     8.9373   9.1036   9.1187   9.1376   9.2258   9.3340   9.3487   9.3604
     9.4953   9.5002

          k = 0.1250 0.0000 0.0000 ( 70409 PWs)   bands (ev):

   -40.6931 -38.0824 -38.0042 -35.6311 -22.8632 -22.7915 -22.7378 -22.6724
   -22.6143 -22.5358 -22.4967 -22.3885 -20.7493 -20.6967 -20.6197 -19.1595
   -19.1045 -19.0717 -18.4787 -18.3720 -18.0074 -16.9822 -16.8560 -16.6608
   -15.8675 -15.4106 -15.3631 -15.1581 -14.9474 -14.8765 -14.8533 -14.8037
   -14.7275 -14.6501 -14.6282 -14.5478 -14.5050 -14.4409 -14.4371 -14.3050
   -14.2586 -14.0754 -13.9809 -13.9731 -13.9658 -13.9574 -13.9568 -13.9526
   -13.8703 -13.8152 -13.6618 -13.6413 -13.5223 -13.4855  -8.2011  -8.1127
    -8.0361  -7.9296  -7.8400  -7.8316  -7.8003  -7.7745  -7.7322  -7.7187
    -7.7078  -7.6990  -7.6703  -7.6702  -7.6175  -7.5384  -7.5377  -7.5144
    -7.4786  -7.4653  -7.4064  -7.3454  -7.3156  -7.1992  -3.3066  -2.9287
    -2.7581  -2.6255  -2.6116  -2.5026  -2.1868  -2.1488  -2.1015  -2.1002
    -2.0858  -2.0835  -2.0655  -2.0531  -2.0164  -1.8844  -1.8127  -1.7912
    -1.6778  -1.6503  -1.6498  -1.4885  -1.4544  -1.4118  -1.3877  -1.3660
    -1.3505  -1.3484  -1.2464  -1.1832  -1.1521  -1.1132  -1.0760  -1.0499
    -1.0276  -0.9594  -0.8988  -0.8978  -0.8968  -0.8939  -0.8828  -0.8706
    -0.8283  -0.7848  -0.7322  -0.6803  -0.6537  -0.6371  -0.6306  -0.6017
    -0.5591  -0.5451  -0.3914  -0.3081  -0.2874  -0.2791  -0.2609  -0.2534
    -0.2414  -0.2135  -0.1682  -0.1643  -0.1339  -0.1164  -0.0951  -0.0483
    -0.0372   0.0553   0.0703   0.0715   0.0815   0.0878   0.0941   0.1147
     0.1614   0.2071   0.2398   0.2440   0.2503   0.2932   0.2955   0.3288
     0.3321   0.3331   0.3500   0.3591   0.3785   0.4142   0.4442   0.4528
     0.4537   0.4774   0.5372   0.5549   0.5994   0.6135   0.6349   0.6379
     0.6468   0.6740   0.6983   0.7987   0.8151   0.8722   0.9702   1.0013
     1.0470   1.0914   1.1157   1.1183   1.1480   1.1775   1.1933   1.2270
     1.2495   1.2584   1.2682   1.3163   1.3421   1.3570   1.4072   1.4350
     1.4775   1.5105   1.5345   1.5428   1.5495   1.6312   1.6504   1.6560
     1.7325   1.7888   1.7952   1.8193   1.8279   1.8547   1.8711   1.8970
     1.9081   1.9367   1.9729   2.1176   2.1219   2.1587   2.1628   2.1968
     2.2569   2.2777   2.3282   2.3558   2.3585   2.3902   2.4644   2.4818
     2.5792   2.6651   2.6685   2.7338   2.9448   2.9653   3.8535   5.1114
     5.3499   5.3804   5.5466   5.7696   5.9333   6.0318   6.1831   6.2528
     6.6597   6.7715   6.9353   6.9861   7.0230   7.1014   7.1817   7.3688
     7.4723   7.4894   7.6353   7.8064   7.8355   7.8624   8.0927   8.1997
     8.2086   8.2172   8.2237   8.3127   8.4493   8.5777   8.6124   8.6200
     8.7138   8.7920

          k = 0.1250 0.2618 0.0000 ( 70383 PWs)   bands (ev):

   -40.6910 -38.0810 -38.0015 -35.6294 -22.8398 -22.7671 -22.7189 -22.6531
   -22.5896 -22.5124 -22.4774 -22.3695 -20.7455 -20.7215 -20.6305 -19.1572
   -19.1228 -19.0721 -18.4400 -18.3648 -18.1183 -16.9525 -16.8511 -16.7267
   -15.8182 -15.3721 -15.2579 -15.1502 -14.8924 -14.8112 -14.7994 -14.7530
   -14.6802 -14.6663 -14.5909 -14.5395 -14.4315 -14.4314 -14.4275 -14.2640
   -14.2160 -14.0720 -14.0305 -13.9649 -13.9596 -13.9564 -13.9374 -13.9352
   -13.9066 -13.8132 -13.6999 -13.6608 -13.5799 -13.5165  -8.2096  -8.1011
    -8.0291  -7.9446  -7.8796  -7.8578  -7.8330  -7.8112  -7.7849  -7.7712
    -7.7279  -7.7203  -7.7037  -7.6979  -7.6891  -7.6867  -7.6300  -7.6187
    -7.5536  -7.5268  -7.5017  -7.4711  -7.3812  -7.3586  -3.4249  -3.0270
    -2.8292  -2.8175  -2.6495  -2.4864  -2.3508  -2.2796  -2.2087  -2.1568
    -2.1123  -2.0958  -2.0828  -2.0730  -2.0488  -2.0280  -1.9629  -1.8738
    -1.8201  -1.8040  -1.7889  -1.7097  -1.7078  -1.6709  -1.5797  -1.5569
    -1.5175  -1.4180  -1.3432  -1.3414  -1.3385  -1.3163  -1.3110  -1.2930
    -1.1997  -1.1561  -1.1313  -1.0900  -0.9932  -0.9870  -0.9311  -0.8963
    -0.8203  -0.7914  -0.7637  -0.6879  -0.6741  -0.6539  -0.6232  -0.5970
    -0.5519  -0.4993  -0.4903  -0.3757  -0.3485  -0.3128  -0.2923  -0.2745
    -0.2601  -0.2392  -0.2159  -0.2093  -0.1865  -0.1253  -0.0833  -0.0575
    -0.0448   0.0017   0.0252   0.0579   0.0760   0.0803   0.0861   0.0920
     0.1509   0.1885   0.2336   0.2409   0.2481   0.2695   0.2843   0.3026
     0.3614   0.3700   0.3750   0.3989   0.4173   0.4452   0.4609   0.4713
     0.4829   0.4857   0.5058   0.5180   0.5657   0.6288   0.6408   0.7174
     0.7238   0.7526   0.8224   0.8783   0.9348   0.9396   1.0209   1.0979
     1.1062   1.1492   1.1861   1.1946   1.2317   1.2738   1.2995   1.3075
     1.3171   1.3268   1.3483   1.3627   1.3678   1.3745   1.3822   1.4766
     1.4824   1.4952   1.5813   1.5961   1.6396   1.6540   1.6639   1.6765
     1.6953   1.7345   1.7886   1.7953   1.8260   1.8605   1.8752   1.8805
     1.9015   1.9522   1.9551   2.0054   2.1085   2.1274   2.1970   2.2421
     2.3105   2.3210   2.5073   2.5356   2.8114   2.8776   2.9387   2.9426
     2.9770   3.0204   3.0398   3.1149   3.2389   3.2779   4.0342   5.0335
     5.5086   5.7202   5.7530   5.9510   5.9856   6.1619   6.3581   6.3968
     6.6925   7.0195   7.0760   7.0818   7.1579   7.1781   7.2615   7.3222
     7.5172   7.6476   7.7239   7.8201   7.9050   7.9572   8.0124   8.1419
     8.2846   8.3215   8.4009   8.5289   8.6771   8.7510   8.7714   8.7794
     8.8742   9.0129

          k = 0.1250 0.5236 0.0000 ( 70338 PWs)   bands (ev):

   -40.6860 -38.0777 -37.9950 -35.6253 -22.7822 -22.7071 -22.6725 -22.6057
   -22.5288 -22.4549 -22.4300 -22.3228 -20.8171 -20.7363 -20.6175 -19.1807
   -19.1514 -19.0583 -18.3584 -18.3474 -18.3405 -16.8811 -16.8678 -16.8393
   -15.6885 -15.2759 -15.1421 -15.0200 -14.7482 -14.7194 -14.6602 -14.6565
   -14.6298 -14.5943 -14.5509 -14.4984 -14.4197 -14.4062 -14.2564 -14.1785
   -14.1640 -14.1003 -14.0727 -13.9905 -13.9390 -13.9370 -13.9035 -13.8891
   -13.8629 -13.8273 -13.8106 -13.7139 -13.6866 -13.6062  -8.3104  -8.2486
    -8.1686  -8.0868  -8.0729  -8.0251  -8.0101  -7.9782  -7.9596  -7.9285
    -7.9260  -7.8823  -7.8417  -7.7936  -7.7510  -7.7190  -7.7038  -7.6832
    -7.6672  -7.6412  -7.6328  -7.5943  -7.4748  -7.3308  -3.8318  -3.4185
    -3.1749  -3.0615  -2.8426  -2.7660  -2.6567  -2.6117  -2.5177  -2.4466
    -2.4160  -2.3783  -2.3291  -2.3067  -2.2278  -2.2019  -2.1587  -2.1559
    -2.1438  -2.1078  -2.0746  -2.0606  -2.0175  -2.0055  -1.9967  -1.9809
    -1.8782  -1.8558  -1.7493  -1.6003  -1.5880  -1.5499  -1.4778  -1.4435
    -1.3185  -1.2837  -1.1582  -1.1548  -1.1251  -1.0996  -0.9784  -0.9324
    -0.9177  -0.8926  -0.8693  -0.8069  -0.7964  -0.7484  -0.7279  -0.7120
    -0.6556  -0.6351  -0.5952  -0.5871  -0.5649  -0.5350  -0.5197  -0.5046
    -0.5003  -0.4571  -0.4501  -0.4325  -0.4194  -0.3441  -0.3302  -0.3106
    -0.2606  -0.2584  -0.2153  -0.1900  -0.1489  -0.0615   0.0904   0.1446
     0.1907   0.2117   0.2343   0.2853   0.3145   0.3181   0.3516   0.3937
     0.3984   0.4115   0.4188   0.4820   0.5125   0.5850   0.6674   0.6793
     0.7535   0.8198   0.8404   0.8785   0.9239   0.9621   1.0031   1.0490
     1.0904   1.0946   1.1366   1.1522   1.1715   1.1973   1.2362   1.2716
     1.2750   1.3021   1.3052   1.3233   1.3363   1.3963   1.4041   1.4100
     1.4200   1.4493   1.4523   1.4842   1.4996   1.5246   1.5318   1.5584
     1.5690   1.5777   1.6541   1.6607   1.7233   1.7284   1.7356   1.8102
     1.8279   1.8600   1.8797   1.9072   1.9179   1.9599   1.9663   2.0152
     2.0353   2.0396   2.1418   2.1478   2.1500   2.1740   2.2367   2.2564
     2.3775   2.4578   2.6080   2.6685   3.1550   3.1894   3.1936   3.2479
     3.6151   3.7107   3.7427   3.8718   3.9991   4.0401   4.4170   4.8123
     5.6707   5.9897   6.0925   6.3463   6.6003   6.6066   6.6400   6.7127
     6.7994   6.8227   6.9041   7.0599   7.2053   7.3203   7.4587   7.8867
     7.9357   8.0365   8.1071   8.1964   8.3296   8.3836   8.4136   8.4911
     8.5519   8.6343   8.7364   8.8137   8.9043   8.9502   9.0156   9.1084
     9.2529   9.2955

          k = 0.1250 0.7854 0.0000 ( 70312 PWs)   bands (ev):

   -40.6810 -38.0744 -37.9885 -35.6212 -22.7229 -22.6453 -22.6250 -22.5571
   -22.4661 -22.3958 -22.3817 -22.2750 -20.9191 -20.7271 -20.5941 -19.2401
   -19.1456 -19.0416 -18.5674 -18.3301 -18.2346 -17.0016 -16.8282 -16.7954
   -15.5287 -15.1871 -15.1490 -14.8144 -14.7942 -14.6796 -14.6789 -14.5749
   -14.4929 -14.4870 -14.4311 -14.3864 -14.3699 -14.2641 -14.2448 -14.1086
   -14.0974 -14.0746 -14.0699 -13.9847 -13.9688 -13.8865 -13.8786 -13.8567
   -13.8505 -13.8356 -13.8178 -13.8022 -13.7447 -13.7276  -8.6413  -8.6002
    -8.4409  -8.3420  -8.3083  -8.2943  -8.2133  -8.1578  -8.0492  -7.9967
    -7.9932  -7.9640  -7.9302  -7.9260  -7.8199  -7.7829  -7.7292  -7.6802
    -7.6757  -7.6290  -7.5873  -7.5787  -7.4194  -7.2748  -4.2875  -3.9017
    -3.4742  -3.4672  -3.2472  -3.1803  -3.1146  -2.9904  -2.9095  -2.8816
    -2.7731  -2.7353  -2.7124  -2.7043  -2.7005  -2.6446  -2.5155  -2.3456
    -2.3259  -2.2328  -2.1675  -2.1250  -2.1010  -2.0972  -2.0601  -2.0546
    -2.0139  -1.9174  -1.7885  -1.7021  -1.6162  -1.6105  -1.5344  -1.5207
    -1.5019  -1.4740  -1.4438  -1.3921  -1.2446  -1.1395  -1.1087  -1.0264
    -1.0081  -0.9748  -0.9526  -0.9490  -0.9178  -0.9082  -0.8823  -0.8334
    -0.8309  -0.8204  -0.7590  -0.7441  -0.7356  -0.7178  -0.7051  -0.6907
    -0.6888  -0.6496  -0.6247  -0.6108  -0.6007  -0.5631  -0.5210  -0.5078
    -0.5046  -0.4540  -0.4322  -0.1390  -0.1188  -0.0607  -0.0025   0.1169
     0.1544   0.2054   0.2647   0.2929   0.2949   0.3706   0.3918   0.4025
     0.4552   0.5496   0.6585   0.6748   0.7242   0.8428   0.8540   0.8956
     0.9685   1.0175   1.0697   1.0803   1.1280   1.1388   1.1535   1.1730
     1.1897   1.2168   1.2418   1.2690   1.3254   1.3478   1.3542   1.3802
     1.3903   1.4068   1.4731   1.4940   1.5084   1.5394   1.5546   1.6030
     1.6156   1.6255   1.6340   1.6542   1.7036   1.7447   1.7684   1.7806
     1.8038   1.8373   1.8526   1.8625   1.8739   1.9094   1.9295   1.9573
     1.9640   2.0066   2.0417   2.0638   2.0918   2.1085   2.1271   2.1354
     2.2212   2.2669   2.2884   2.3417   2.3562   2.3781   2.4424   2.5069
     2.5480   2.5632   2.5986   2.8015   3.0033   3.0357   3.1103   3.1666
     3.9060   4.0536   4.2000   4.4851   4.5569   4.6781   4.6956   4.8491
     5.7515   5.9644   6.1792   6.2289   6.2932   6.3427   6.5415   6.7237
     6.8611   7.3207   7.4811   7.5386   7.6162   7.7403   7.9067   7.9866
     8.1135   8.3978   8.4279   8.5178   8.6799   8.7912   8.8362   8.9038
     8.9605   9.0239   9.0983   9.1541   9.2127   9.2308   9.2886   9.3411
     9.4081   9.4587

          k = 0.1250-1.0472 0.0000 ( 70402 PWs)   bands (ev):

   -40.6789 -38.0731 -37.9858 -35.6195 -22.6979 -22.6192 -22.6050 -22.5366
   -22.4396 -22.3708 -22.3613 -22.2548 -20.9610 -20.7233 -20.5836 -19.2645
   -19.1432 -19.0345 -18.6480 -18.3229 -18.1873 -17.0520 -16.8236 -16.7596
   -15.4366 -15.2088 -15.1151 -14.8338 -14.8259 -14.7158 -14.6099 -14.5521
   -14.4575 -14.4316 -14.4124 -14.3061 -14.2471 -14.2047 -14.1579 -14.0999
   -14.0684 -14.0682 -14.0531 -14.0407 -13.9363 -13.9246 -13.9058 -13.8562
   -13.8404 -13.8391 -13.8299 -13.8253 -13.8009 -13.7060  -8.7772  -8.7329
    -8.5739  -8.4558  -8.4417  -8.4386  -8.2883  -8.2274  -8.0871  -8.0230
    -8.0145  -7.9958  -7.9458  -7.9217  -7.8299  -7.7904  -7.7447  -7.6890
    -7.6686  -7.6268  -7.5621  -7.5549  -7.3948  -7.2492  -4.4734  -4.1028
    -3.6545  -3.5949  -3.4450  -3.3455  -3.3111  -3.2000  -3.0783  -3.0595
    -3.0060  -2.9517  -2.9427  -2.9320  -2.7516  -2.7028  -2.5412  -2.3648
    -2.3602  -2.3560  -2.1482  -2.1322  -2.1251  -2.0852  -2.0445  -2.0141
    -2.0042  -1.8629  -1.8524  -1.7990  -1.7769  -1.7138  -1.6069  -1.5555
    -1.5507  -1.4772  -1.4439  -1.3467  -1.3037  -1.2682  -1.1882  -1.1087
    -1.0699  -1.0511  -1.0195  -0.9863  -0.9808  -0.9529  -0.9367  -0.9347
    -0.8803  -0.8733  -0.8660  -0.8352  -0.8004  -0.7544  -0.7460  -0.7251
    -0.7217  -0.7166  -0.7093  -0.6845  -0.6813  -0.6570  -0.6115  -0.6053
    -0.5242  -0.4656  -0.3690  -0.1062  -0.0917  -0.0828  -0.0599   0.1093
     0.1172   0.1373   0.2663   0.2971   0.3180   0.3645   0.3886   0.3958
     0.4922   0.5845   0.7233   0.7536   0.7720   0.8867   0.9574   0.9932
     1.0148   1.0573   1.0838   1.1356   1.1514   1.1632   1.2005   1.2063
     1.2213   1.2287   1.3015   1.3030   1.3903   1.4216   1.4316   1.4475
     1.4653   1.4731   1.4915   1.5206   1.5323   1.5515   1.6229   1.6348
     1.7053   1.7206   1.7384   1.7641   1.7866   1.8157   1.8726   1.8782
     1.9298   1.9354   1.9580   1.9965   2.0087   2.0324   2.0402   2.0588
     2.0746   2.1014   2.1094   2.2186   2.2605   2.2889   2.2895   2.2901
     2.3044   2.3141   2.3819   2.4111   2.4164   2.4551   2.5416   2.5427
     2.5532   2.7126   2.7240   2.7734   2.8059   2.9472   2.9568   3.0006
     3.8903   4.1034   4.3655   4.6606   4.7007   4.7554   4.8907   5.0856
     5.6791   5.9989   6.0023   6.0787   6.2331   6.3724   6.5070   6.6170
     6.7512   7.5761   7.6037   7.8206   7.9194   7.9892   8.0554   8.1125
     8.3085   8.3499   8.4236   8.5188   8.7272   8.9128   8.9314   8.9892
     9.0198   9.1537   9.1809   9.2146   9.2292   9.3521   9.3765   9.3949
     9.4994   9.5155

          k = 0.2500 0.0000 0.0000 ( 70367 PWs)   bands (ev):

   -40.6931 -38.0824 -38.0042 -35.6311 -22.8530 -22.7789 -22.7487 -22.6858
   -22.6010 -22.5271 -22.5107 -22.3979 -20.7478 -20.6968 -20.6197 -19.1627
   -19.1042 -19.0717 -18.4769 -18.3642 -18.0074 -16.9893 -16.8844 -16.6608
   -15.8432 -15.4656 -15.2893 -15.1215 -14.9098 -14.8566 -14.8172 -14.7771
   -14.7409 -14.6499 -14.6229 -14.6080 -14.5510 -14.4642 -14.4596 -14.3701
   -14.2131 -14.0612 -13.9825 -13.9727 -13.9668 -13.9608 -13.9558 -13.9342
   -13.8803 -13.7615 -13.6905 -13.6526 -13.5357 -13.5054  -8.2053  -8.1245
    -8.0410  -7.9372  -7.8277  -7.8023  -7.7986  -7.7837  -7.7295  -7.7165
    -7.7105  -7.6769  -7.6754  -7.6365  -7.6353  -7.5613  -7.5139  -7.5049
    -7.4810  -7.4809  -7.3851  -7.3511  -7.3428  -7.2227  -3.2410  -2.8279
    -2.6649  -2.6137  -2.5962  -2.5094  -2.1671  -2.1617  -2.1543  -2.1204
    -2.1099  -2.0839  -2.0681  -2.0525  -2.0073  -1.9389  -1.8771  -1.8062
    -1.6869  -1.6687  -1.6493  -1.4458  -1.4451  -1.4192  -1.3997  -1.3938
    -1.3834  -1.3503  -1.2702  -1.1778  -1.1079  -1.1026  -1.0769  -0.9886
    -0.9323  -0.9290  -0.9157  -0.9017  -0.8962  -0.8948  -0.8919  -0.8901
    -0.7737  -0.7439  -0.7360  -0.6947  -0.6385  -0.5946  -0.5878  -0.5847
    -0.5334  -0.5158  -0.4655  -0.4424  -0.3617  -0.3015  -0.2766  -0.2681
    -0.2632  -0.2391  -0.1933  -0.1752  -0.1716  -0.1635  -0.1509  -0.1099
    -0.0994   0.0392   0.0597   0.0672   0.0748   0.0836   0.0926   0.1049
     0.1250   0.1605   0.2331   0.2972   0.2979   0.3055   0.3168   0.3195
     0.3239   0.3474   0.3595   0.3707   0.3959   0.3976   0.4610   0.4727
     0.4925   0.5517   0.5543   0.5743   0.5880   0.6288   0.6324   0.6471
     0.6618   0.7058   0.7442   0.7626   0.7807   0.8639   0.9479   0.9970
     1.0384   1.0455   1.0477   1.1016   1.1115   1.1558   1.1773   1.2014
     1.2310   1.2693   1.3019   1.3366   1.3638   1.3785   1.3846   1.4375
     1.4693   1.5106   1.5216   1.5724   1.5947   1.6170   1.6352   1.6830
     1.7232   1.7747   1.7889   1.8207   1.8230   1.8453   1.8535   1.8789
     1.8861   1.9781   2.0071   2.0863   2.1167   2.1587   2.1945   2.2210
     2.2621   2.2714   2.3064   2.3077   2.3622   2.3797   2.4847   2.4949
     2.5866   2.6888   2.7224   2.7254   2.9220   2.9613   3.9619   4.9116
     5.4887   5.5153   5.6800   5.8692   5.9397   6.1016   6.2748   6.3430
     6.5993   6.6343   6.6503   6.9322   7.0544   7.1651   7.2577   7.3238
     7.4242   7.5011   7.5185   7.8519   8.0062   8.0593   8.1373   8.1568
     8.2003   8.2265   8.3176   8.4589   8.4691   8.5496   8.6196   8.7503
     8.8046   8.8535

          k = 0.2500 0.2618 0.0000 ( 70358 PWs)   bands (ev):

   -40.6910 -38.0810 -38.0015 -35.6294 -22.8300 -22.7551 -22.7292 -22.6658
   -22.5769 -22.5042 -22.4908 -22.3783 -20.7440 -20.7216 -20.6305 -19.1603
   -19.1226 -19.0719 -18.4384 -18.3571 -18.1183 -16.9594 -16.8782 -16.7265
   -15.7951 -15.4252 -15.1857 -15.1160 -14.8597 -14.7945 -14.7701 -14.7304
   -14.6919 -14.6639 -14.5792 -14.5644 -14.5184 -14.4503 -14.4421 -14.3254
   -14.1712 -14.0611 -14.0356 -13.9664 -13.9598 -13.9571 -13.9391 -13.9197
   -13.9071 -13.7664 -13.7285 -13.6665 -13.5850 -13.5340  -8.2129  -8.1123
    -8.0356  -7.9648  -7.9323  -7.9113  -7.8867  -7.8315  -7.8210  -7.7985
    -7.7721  -7.7289  -7.7235  -7.6530  -7.6445  -7.6362  -7.6137  -7.5891
    -7.5707  -7.5419  -7.4537  -7.4137  -7.3203  -7.2972  -3.3506  -2.9230
    -2.8647  -2.7173  -2.5461  -2.5069  -2.4062  -2.3150  -2.2211  -2.1360
    -2.1201  -2.0946  -2.0808  -2.0669  -2.0500  -2.0163  -1.9739  -1.9219
    -1.8193  -1.7982  -1.7914  -1.7616  -1.7163  -1.7012  -1.5719  -1.5470
    -1.5253  -1.3841  -1.3715  -1.3361  -1.3306  -1.3195  -1.3178  -1.3142
    -1.2128  -1.1801  -1.1218  -1.0846  -1.0201  -0.9472  -0.8979  -0.8577
    -0.8425  -0.8018  -0.7966  -0.7700  -0.6966  -0.6811  -0.6405  -0.6004
    -0.5939  -0.5625  -0.5171  -0.4590  -0.3960  -0.3484  -0.3280  -0.2840
    -0.2728  -0.2366  -0.2243  -0.1997  -0.1790  -0.1415  -0.0692  -0.0483
    -0.0302  -0.0174   0.0249   0.0554   0.0613   0.0655   0.0888   0.0963
     0.1231   0.1348   0.2247   0.2299   0.2415   0.2522   0.2659   0.3158
     0.3770   0.4025   0.4069   0.4082   0.4358   0.4411   0.4605   0.4769
     0.4820   0.4989   0.5084   0.5302   0.6135   0.6509   0.6672   0.6774
     0.7152   0.7991   0.8230   0.8730   0.9643   0.9880   1.0037   1.0589
     1.1248   1.1852   1.1959   1.2121   1.2359   1.2465   1.2730   1.2740
     1.2920   1.2998   1.3238   1.3398   1.3686   1.3788   1.3854   1.4128
     1.5054   1.5296   1.5424   1.5909   1.6340   1.6415   1.7016   1.7284
     1.7431   1.7645   1.7704   1.7770   1.7990   1.8128   1.8294   1.8433
     1.8924   1.9419   1.9713   2.0157   2.0520   2.2127   2.2393   2.3189
     2.3453   2.4085   2.6242   2.7117   2.7776   2.8646   2.9484   2.9547
     2.9827   3.0290   3.0369   3.1053   3.2368   3.2511   4.0992   4.8838
     5.6311   5.8282   5.8502   5.9554   6.0306   6.2134   6.4267   6.4846
     6.6893   6.7382   6.7828   7.1172   7.2102   7.2435   7.3223   7.4366
     7.5166   7.5747   7.6928   7.9048   7.9927   8.0326   8.1558   8.1885
     8.2221   8.3518   8.4813   8.6255   8.6562   8.7320   8.8445   8.8845
     8.9213   8.9710

          k = 0.2500 0.5236 0.0000 ( 70338 PWs)   bands (ev):

   -40.6860 -38.0777 -37.9950 -35.6253 -22.7736 -22.6966 -22.6815 -22.6167
   -22.5177 -22.4478 -22.4417 -22.3303 -20.8171 -20.7348 -20.6176 -19.1806
   -19.1543 -19.0581 -18.3583 -18.3399 -18.3391 -16.8858 -16.8700 -16.8625
   -15.6694 -15.3211 -15.1162 -14.9539 -14.7320 -14.7145 -14.6519 -14.6451
   -14.6205 -14.5886 -14.5588 -14.4840 -14.4199 -14.3959 -14.3514 -14.2121
   -14.1877 -14.0854 -14.0712 -13.9784 -13.9328 -13.9327 -13.9075 -13.8952
   -13.8594 -13.8283 -13.7814 -13.7236 -13.6849 -13.6166  -8.3306  -8.2841
    -8.1793  -8.1247  -8.0745  -8.0558  -8.0310  -7.9937  -7.9806  -7.9311
    -7.9081  -7.8702  -7.8502  -7.8017  -7.7435  -7.7253  -7.7166  -7.6708
    -7.6680  -7.6186  -7.5857  -7.5624  -7.4277  -7.2930  -3.7433  -3.3180
    -3.2198  -2.9595  -2.7997  -2.7461  -2.6555  -2.6134  -2.5204  -2.4524
    -2.4250  -2.3856  -2.3614  -2.2423  -2.2174  -2.2062  -2.1567  -2.1507
    -2.1161  -2.1129  -2.0769  -2.0570  -2.0247  -2.0023  -1.9962  -1.9725
    -1.8524  -1.8416  -1.7735  -1.7564  -1.5372  -1.5262  -1.4649  -1.4213
    -1.3230  -1.3127  -1.2696  -1.2278  -1.1896  -1.1591  -1.1387  -0.9729
    -0.9548  -0.9135  -0.8744  -0.8448  -0.8175  -0.7908  -0.7455  -0.7400
    -0.6886  -0.6630  -0.6394  -0.5977  -0.5866  -0.5653  -0.5318  -0.5044
    -0.4795  -0.4739  -0.4283  -0.4136  -0.4061  -0.3926  -0.3338  -0.3233
    -0.2694  -0.2353  -0.1793  -0.1639  -0.1298  -0.0354   0.0397   0.0633
     0.1543   0.1808   0.2577   0.2787   0.2903   0.3286   0.3653   0.3704
     0.4427   0.4485   0.4748   0.4901   0.5761   0.5980   0.6448   0.6574
     0.7880   0.8213   0.8476   0.8908   0.9217   0.9577   0.9794   1.0143
     1.0668   1.1089   1.1287   1.1555   1.1750   1.1936   1.1975   1.2126
     1.2248   1.2438   1.2779   1.3256   1.3350   1.3841   1.4326   1.4656
     1.4799   1.4972   1.5183   1.5191   1.5362   1.5567   1.5604   1.5896
     1.5925   1.6377   1.6431   1.6570   1.6853   1.7038   1.7436   1.7738
     1.7929   1.8354   1.8441   1.8493   1.9255   1.9455   1.9520   2.0365
     2.0617   2.0761   2.1199   2.1394   2.1969   2.2240   2.3291   2.3632
     2.5117   2.6202   2.8612   2.9003   3.1577   3.1936   3.1999   3.2617
     3.5262   3.7130   3.7320   3.7751   3.9101   3.9701   4.4314   4.7593
     5.7062   6.0750   6.0783   6.3603   6.6013   6.6410   6.6805   6.7302
     6.7989   6.8425   6.9304   7.1169   7.2595   7.3297   7.4394   7.7866
     8.0275   8.0703   8.1177   8.2228   8.2389   8.3767   8.4439   8.4824
     8.5061   8.5296   8.7219   8.8692   8.9543   8.9834   9.0111   9.1485
     9.2960   9.3352

          k = 0.2500 0.7854 0.0000 ( 70344 PWs)   bands (ev):

   -40.6810 -38.0744 -37.9885 -35.6212 -22.7156 -22.6365 -22.6326 -22.5663
   -22.4566 -22.3916 -22.3900 -22.2811 -20.9191 -20.7256 -20.5942 -19.2401
   -19.1485 -19.0414 -18.5673 -18.3227 -18.2333 -17.0015 -16.8506 -16.8006
   -15.5165 -15.2058 -15.1419 -14.7929 -14.7748 -14.6579 -14.6284 -14.5869
   -14.5147 -14.4720 -14.4239 -14.3858 -14.3714 -14.2642 -14.2269 -14.1789
   -14.1299 -14.0913 -14.0589 -13.9690 -13.9651 -13.8831 -13.8783 -13.8594
   -13.8594 -13.8539 -13.8081 -13.7946 -13.7438 -13.7371  -8.5986  -8.5602
    -8.4019  -8.2880  -8.2088  -8.2035  -8.1990  -8.1031  -8.0574  -8.0464
    -8.0414  -7.9776  -7.9327  -7.8993  -7.8851  -7.8190  -7.7764  -7.7257
    -7.6867  -7.6646  -7.6348  -7.6122  -7.4766  -7.3298  -4.1863  -3.7992
    -3.5336  -3.3733  -3.2255  -3.1675  -3.1092  -2.9967  -2.9364  -2.8946
    -2.7659  -2.7332  -2.7195  -2.7059  -2.6845  -2.5755  -2.4713  -2.3101
    -2.2863  -2.2770  -2.1511  -2.1307  -2.1022  -2.0976  -2.0716  -2.0502
    -1.9945  -1.8590  -1.7880  -1.7181  -1.7129  -1.6638  -1.6151  -1.5465
    -1.4870  -1.4719  -1.4231  -1.3928  -1.2950  -1.2771  -1.2027  -1.1540
    -1.1227  -1.0364  -1.0021  -0.9638  -0.9236  -0.9140  -0.9002  -0.8804
    -0.8481  -0.8365  -0.7939  -0.7430  -0.7231  -0.6969  -0.6828  -0.6702
    -0.6475  -0.6461  -0.6225  -0.6133  -0.5859  -0.5807  -0.5244  -0.5220
    -0.5148  -0.4015  -0.2961  -0.1728  -0.1464  -0.0475   0.0177   0.0457
     0.1133   0.2562   0.2764   0.3392   0.3461   0.4095   0.4434   0.4573
     0.4725   0.5195   0.6185   0.7061   0.7739   0.7827   0.7889   0.8805
     0.9919   1.0016   1.0496   1.0785   1.0896   1.1248   1.1329   1.1752
     1.2414   1.2450   1.2730   1.2931   1.3173   1.3399   1.3571   1.3880
     1.4010   1.4022   1.4537   1.4589   1.4949   1.5371   1.5877   1.6011
     1.6157   1.6519   1.6564   1.6783   1.6817   1.7198   1.7287   1.7790
     1.8038   1.8426   1.8549   1.8608   1.8836   1.8938   1.9243   1.9675
     1.9703   2.0018   2.0069   2.0243   2.0737   2.1042   2.1140   2.1850
     2.2764   2.3320   2.3665   2.3818   2.4578   2.5170   2.5246   2.5374
     2.6030   2.6744   2.8279   2.8376   3.0094   3.0460   3.1465   3.2078
     3.8958   4.0430   4.0655   4.2962   4.3878   4.4982   4.6831   4.8447
     5.8799   5.9823   6.1786   6.2953   6.3856   6.4274   6.5908   6.7673
     6.9369   7.1879   7.3699   7.4389   7.6059   7.7264   7.8549   7.9159
     8.0837   8.2513   8.2926   8.4491   8.6823   8.8198   8.8318   8.9190
     9.0065   9.0420   9.1715   9.2203   9.2597   9.2945   9.3510   9.3855
     9.4497   9.4791

          k = 0.2500-1.0472 0.0000 ( 70332 PWs)   bands (ev):

   -40.6789 -38.0731 -37.9858 -35.6195 -22.6911 -22.6120 -22.6110 -22.5450
   -22.4307 -22.3705 -22.3656 -22.2603 -20.9610 -20.7217 -20.5837 -19.2645
   -19.1461 -19.0343 -18.6479 -18.3156 -18.1861 -17.0520 -16.8452 -16.7644
   -15.4305 -15.1977 -15.1239 -14.8415 -14.7936 -14.6842 -14.5591 -14.5453
   -14.4684 -14.4530 -14.4228 -14.2982 -14.2481 -14.2034 -14.1387 -14.1308
   -14.1025 -14.0646 -14.0481 -14.0421 -13.9731 -13.9163 -13.9099 -13.8547
   -13.8416 -13.8395 -13.8281 -13.8181 -13.8111 -13.7209  -8.6935  -8.6461
    -8.4877  -8.3693  -8.3584  -8.3499  -8.2208  -8.1985  -8.1042  -8.0529
    -8.0440  -7.9872  -7.9823  -7.9303  -7.8888  -7.8342  -7.7799  -7.7360
    -7.6947  -7.6771  -7.6751  -7.6032  -7.5159  -7.3554  -4.3673  -3.9978
    -3.6607  -3.5611  -3.3892  -3.3670  -3.3120  -3.2059  -3.0923  -3.0883
    -2.9997  -2.9563  -2.9504  -2.9379  -2.6944  -2.6695  -2.4880  -2.3182
    -2.2989  -2.2839  -2.1822  -2.1553  -2.1259  -2.0834  -2.0826  -2.0447
    -1.9875  -1.9761  -1.8522  -1.8344  -1.6983  -1.6561  -1.6065  -1.5893
    -1.5356  -1.5112  -1.4805  -1.3901  -1.3845  -1.3552  -1.3532  -1.2099
    -1.1157  -1.1020  -1.0465  -1.0356  -1.0335  -0.9969  -0.9547  -0.9530
    -0.9245  -0.8911  -0.8151  -0.8115  -0.7727  -0.7595  -0.7446  -0.7346
    -0.7082  -0.6952  -0.6945  -0.6938  -0.6296  -0.6258  -0.6169  -0.6156
    -0.4816  -0.3667  -0.3266  -0.1490  -0.1298  -0.0673   0.0075   0.0377
     0.1026   0.2760   0.2842   0.3119   0.3667   0.4211   0.4421   0.4443
     0.4664   0.5572   0.6785   0.8160   0.8492   0.8528   0.8700   0.9108
     1.0581   1.0840   1.1052   1.1307   1.1498   1.1825   1.1993   1.2057
     1.2071   1.2627   1.3043   1.3147   1.3252   1.3381   1.4396   1.4663
     1.4766   1.4798   1.4966   1.5251   1.5618   1.5958   1.6033   1.6411
     1.6709   1.6724   1.6876   1.7500   1.7763   1.7784   1.8544   1.8804
     1.9016   1.9447   1.9527   1.9695   1.9884   1.9947   2.0147   2.0266
     2.0849   2.1632   2.2308   2.2762   2.2838   2.2925   2.2982   2.3182
     2.3406   2.4211   2.4335   2.5115   2.5348   2.5615   2.5730   2.6377
     2.6921   2.6960   2.7049   2.7878   2.8266   2.8738   3.0255   3.0613
     3.9004   4.1104   4.1785   4.4476   4.5403   4.6062   4.7325   5.0779
     5.8074   6.0687   6.1532   6.1951   6.2468   6.3564   6.5669   6.6753
     6.8324   7.2915   7.5719   7.6163   7.6792   7.9391   7.9573   8.0352
     8.1103   8.3532   8.4180   8.5344   8.7912   9.0145   9.0651   9.0845
     9.1280   9.2417   9.2857   9.3728   9.3816   9.3973   9.4313   9.4679
     9.4969   9.5579

          k = 0.3750 0.0000 0.0000 ( 70394 PWs)   bands (ev):

   -40.6931 -38.0824 -38.0042 -35.6311 -22.8400 -22.7623 -22.7607 -22.7047
   -22.5811 -22.5314 -22.5170 -22.4087 -20.7462 -20.6969 -20.6197 -19.1658
   -19.1039 -19.0717 -18.4752 -18.3561 -18.0073 -16.9964 -16.9120 -16.6608
   -15.8132 -15.5193 -15.1943 -15.0912 -14.8858 -14.8301 -14.7707 -14.7623
   -14.7458 -14.6916 -14.6475 -14.6214 -14.5597 -14.4967 -14.4814 -14.4398
   -14.1853 -14.0458 -13.9860 -13.9796 -13.9669 -13.9633 -13.9595 -13.8981
   -13.8778 -13.7451 -13.7064 -13.6577 -13.5479 -13.5328  -8.2096  -8.1348
    -8.0451  -7.9428  -7.8292  -7.7937  -7.7896  -7.7585  -7.7279  -7.7235
    -7.6911  -7.6779  -7.6653  -7.6405  -7.5972  -7.5960  -7.5424  -7.5047
    -7.4771  -7.4464  -7.3824  -7.3610  -7.3547  -7.2553  -3.1565  -2.6989
    -2.6725  -2.6004  -2.5262  -2.3683  -2.2981  -2.2019  -2.1960  -2.1339
    -2.1121  -2.1017  -2.0808  -1.9975  -1.9951  -1.9872  -1.9777  -1.7978
    -1.6880  -1.6828  -1.6359  -1.6214  -1.4743  -1.4291  -1.4069  -1.4052
    -1.3934  -1.3380  -1.1354  -1.1072  -1.1000  -1.0508  -0.9950  -0.9690
    -0.9398  -0.8944  -0.8942  -0.8920  -0.8906  -0.8882  -0.8846  -0.8102
    -0.7969  -0.7940  -0.7187  -0.6765  -0.6717  -0.6373  -0.6127  -0.5286
    -0.5078  -0.4990  -0.4652  -0.4411  -0.3936  -0.3909  -0.3144  -0.3112
    -0.2991  -0.2749  -0.2732  -0.2346  -0.1871  -0.1810  -0.1621  -0.1422
    -0.1042  -0.0932   0.0072   0.0411   0.0506   0.0623   0.0690   0.0736
     0.1008   0.1665   0.2644   0.2967   0.3032   0.3045   0.3103   0.3176
     0.3183   0.4162   0.4179   0.4226   0.4621   0.4676   0.4733   0.4982
     0.5327   0.5444   0.5488   0.5688   0.6148   0.6296   0.6427   0.6445
     0.7356   0.7491   0.7496   0.7821   0.8368   0.8535   0.8887   0.9437
     0.9566   0.9689   1.0429   1.0749   1.1064   1.1069   1.2257   1.2345
     1.2496   1.2609   1.3373   1.3413   1.3614   1.3815   1.4196   1.4273
     1.4433   1.4659   1.5371   1.5392   1.5703   1.5893   1.6164   1.6223
     1.6385   1.7459   1.7674   1.8231   1.8515   1.8605   1.8703   1.9138
     1.9486   1.9983   2.0221   2.0384   2.0608   2.1369   2.2370   2.2447
     2.2648   2.2683   2.2890   2.3525   2.3697   2.3773   2.4874   2.5253
     2.5999   2.6941   2.7350   2.7963   2.8755   2.9401   4.0955   4.7341
     5.6939   5.7126   5.7752   5.9462   5.9818   6.1730   6.2537   6.2865
     6.3965   6.4486   6.6381   7.0710   7.1779   7.2756   7.2900   7.3193
     7.3934   7.5187   7.5390   7.8105   7.8976   7.9624   8.0269   8.2009
     8.2245   8.2293   8.2342   8.4623   8.5282   8.6195   8.6821   8.8686
     8.9590   8.9710

          k = 0.3750 0.2618 0.0000 ( 70388 PWs)   bands (ev):

   -40.6910 -38.0810 -38.0015 -35.6295 -22.8177 -22.7421 -22.7379 -22.6837
   -22.5579 -22.5105 -22.4947 -22.3885 -20.7424 -20.7216 -20.6306 -19.1633
   -19.1225 -19.0718 -18.4367 -18.3491 -18.1183 -16.9661 -16.9045 -16.7264
   -15.7670 -15.4760 -15.0917 -15.0887 -14.8361 -14.7711 -14.7323 -14.7112
   -14.7065 -14.6613 -14.6276 -14.5975 -14.5292 -14.4684 -14.4583 -14.3923
   -14.1463 -14.0523 -14.0405 -13.9675 -13.9645 -13.9541 -13.9438 -13.9184
   -13.8735 -13.7695 -13.7187 -13.6756 -13.5881 -13.5576  -8.2155  -8.1296
    -8.0455  -7.9901  -7.9551  -7.9380  -7.9245  -7.8544  -7.8333  -7.8323
    -7.8073  -7.7535  -7.7289  -7.6553  -7.6282  -7.6192  -7.5876  -7.5615
    -7.5461  -7.5303  -7.4014  -7.3736  -7.2778  -7.2529  -3.2494  -2.9315
    -2.7642  -2.5717  -2.5248  -2.4490  -2.4095  -2.3991  -2.2729  -2.1647
    -2.1202  -2.1000  -2.0816  -2.0739  -2.0077  -1.9868  -1.9819  -1.9776
    -1.9400  -1.8049  -1.7994  -1.7892  -1.6916  -1.6239  -1.5809  -1.5636
    -1.5469  -1.4993  -1.3530  -1.3314  -1.3296  -1.3240  -1.3195  -1.3011
    -1.1907  -1.1164  -1.0807  -1.0592  -1.0422  -0.9909  -0.9247  -0.8967
    -0.8615  -0.8507  -0.8098  -0.7785  -0.7581  -0.7000  -0.6522  -0.6278
    -0.5877  -0.5593  -0.5214  -0.5155  -0.4411  -0.4219  -0.3452  -0.3304
    -0.3001  -0.2296  -0.1941  -0.1828  -0.1703  -0.1567  -0.0866  -0.0668
    -0.0398  -0.0041   0.0092   0.0299   0.0368   0.0488   0.0607   0.0738
     0.0829   0.1266   0.2013   0.2156   0.2421   0.2576   0.2704   0.3263
     0.4060   0.4240   0.4472   0.4521   0.4536   0.4661   0.4805   0.4828
     0.4999   0.5128   0.5309   0.5513   0.6016   0.6058   0.6700   0.7143
     0.7236   0.7960   0.8409   0.9558   0.9823   1.0030   1.0332   1.0651
     1.0852   1.1301   1.1891   1.1988   1.2078   1.2224   1.2376   1.2808
     1.3057   1.3270   1.3306   1.3560   1.3681   1.3795   1.4033   1.4244
     1.4854   1.5551   1.5570   1.5876   1.6043   1.6394   1.6478   1.6704
     1.6954   1.7187   1.7238   1.7672   1.8073   1.8093   1.8243   1.8458
     1.8747   1.9156   2.0012   2.0356   2.1250   2.1576   2.3046   2.3530
     2.4343   2.5751   2.7083   2.7881   2.8355   2.8643   2.9634   2.9660
     3.0096   3.0104   3.0555   3.0855   3.1835   3.2234   4.1847   4.7424
     5.7436   5.9199   5.9947   6.0187   6.1086   6.2600   6.4559   6.4586
     6.5032   6.6215   6.7070   7.1115   7.2180   7.3463   7.3685   7.4960
     7.5016   7.6604   7.7982   7.8805   8.0035   8.0699   8.1281   8.1974
     8.2358   8.3776   8.4682   8.6060   8.6734   8.7383   8.7811   8.9204
     8.9460   9.0049

          k = 0.3750 0.5236 0.0000 ( 70321 PWs)   bands (ev):

   -40.6860 -38.0777 -37.9950 -35.6253 -22.7629 -22.6926 -22.6818 -22.6320
   -22.5010 -22.4589 -22.4398 -22.3388 -20.8171 -20.7332 -20.6178 -19.1806
   -19.1573 -19.0579 -18.3582 -18.3377 -18.3322 -16.8914 -16.8876 -16.8692
   -15.6469 -15.3622 -15.0981 -14.8671 -14.7243 -14.7094 -14.6428 -14.6336
   -14.6070 -14.5814 -14.5712 -14.4716 -14.4377 -14.4207 -14.3750 -14.2680
   -14.1945 -14.1093 -14.0572 -13.9619 -13.9285 -13.9240 -13.9126 -13.9040
   -13.8542 -13.8298 -13.7524 -13.7336 -13.6838 -13.6299  -8.3218  -8.2822
    -8.1992  -8.1471  -8.1447  -8.1234  -8.0753  -7.9930  -7.9863  -7.9698
    -7.9257  -7.8456  -7.8256  -7.7797  -7.7393  -7.7282  -7.6998  -7.6647
    -7.6082  -7.5885  -7.5822  -7.4672  -7.4310  -7.2958  -3.6195  -3.3008
    -3.1729  -2.8801  -2.8139  -2.6528  -2.6303  -2.6220  -2.5294  -2.4604
    -2.4526  -2.4432  -2.3289  -2.2229  -2.1884  -2.1498  -2.1438  -2.1248
    -2.1214  -2.0788  -2.0653  -2.0619  -2.0498  -1.9978  -1.9968  -1.9400
    -1.9393  -1.9309  -1.8175  -1.6085  -1.5842  -1.5711  -1.4983  -1.4567
    -1.4522  -1.3569  -1.3193  -1.2443  -1.1908  -1.1606  -1.1422  -1.1037
    -1.0371  -1.0241  -0.9277  -0.8764  -0.8390  -0.8026  -0.7858  -0.7490
    -0.7306  -0.6813  -0.6123  -0.6053  -0.5926  -0.5736  -0.5609  -0.5152
    -0.4927  -0.4533  -0.4109  -0.3935  -0.3916  -0.3675  -0.3500  -0.3002
    -0.2820  -0.2131  -0.1751  -0.1694  -0.1222  -0.0734  -0.0518   0.0148
     0.1379   0.1448   0.2317   0.2792   0.3288   0.3445   0.3832   0.3970
     0.4633   0.4903   0.5282   0.5964   0.6018   0.6206   0.6358   0.6817
     0.7211   0.8120   0.8607   0.9002   0.9361   0.9521   0.9926   1.0292
     1.0552   1.0782   1.0952   1.0995   1.1523   1.1574   1.1745   1.1834
     1.1934   1.2301   1.2551   1.3193   1.3818   1.3846   1.4385   1.4991
     1.5019   1.5181   1.5255   1.5434   1.5524   1.5883   1.6144   1.6280
     1.6333   1.6554   1.6564   1.6959   1.7057   1.7180   1.7286   1.7458
     1.7525   1.7737   1.8424   1.8536   1.9058   1.9482   1.9830   2.0049
     2.0428   2.0771   2.1086   2.1382   2.2161   2.2488   2.2642   2.4231
     2.7949   2.9635   3.1185   3.1405   3.1612   3.1970   3.2544   3.3489
     3.3604   3.5880   3.7147   3.7215   3.7678   3.8311   4.4488   4.7049
     5.7484   6.0591   6.1759   6.3596   6.5824   6.6893   6.7370   6.7436
     6.8088   6.8725   6.9476   7.2029   7.3050   7.3341   7.4114   7.6768
     7.9140   8.0644   8.1638   8.2491   8.3263   8.3623   8.4345   8.5080
     8.5249   8.6456   8.7207   8.8731   9.0004   9.0650   9.0950   9.1576
     9.2162   9.2546

          k = 0.3750 0.7854 0.0000 ( 70364 PWs)   bands (ev):

   -40.6810 -38.0744 -37.9885 -35.6212 -22.7066 -22.6419 -22.6242 -22.5789
   -22.4424 -22.4061 -22.3835 -22.2879 -20.9191 -20.7240 -20.5943 -19.2401
   -19.1513 -19.0412 -18.5672 -18.3152 -18.2320 -17.0015 -16.8727 -16.8058
   -15.5030 -15.2237 -15.1367 -14.7916 -14.7250 -14.6253 -14.6204 -14.5541
   -14.5474 -14.4521 -14.4083 -14.3848 -14.3723 -14.2797 -14.2416 -14.2007
   -14.1752 -14.1212 -14.0336 -13.9792 -13.9438 -13.8803 -13.8785 -13.8777
   -13.8643 -13.8637 -13.8020 -13.7854 -13.7481 -13.7429  -8.5202  -8.4789
    -8.3210  -8.2395  -8.2213  -8.2065  -8.1772  -8.0896  -8.0539  -8.0497
    -8.0341  -7.9686  -7.9392  -7.9125  -7.8970  -7.8524  -7.7679  -7.7398
    -7.7158  -7.7102  -7.6969  -7.6266  -7.5822  -7.4221  -4.0468  -3.6581
    -3.6315  -3.3080  -3.2497  -3.1072  -3.0686  -3.0043  -2.9810  -2.9242
    -2.7553  -2.7301  -2.7288  -2.7134  -2.6478  -2.4777  -2.4045  -2.3919
    -2.2354  -2.2099  -2.1719  -2.1140  -2.1069  -2.0682  -2.0384  -2.0087
    -1.9818  -1.9322  -1.9025  -1.8576  -1.7214  -1.6766  -1.5516  -1.5347
    -1.5072  -1.4913  -1.4526  -1.4443  -1.4155  -1.3119  -1.2918  -1.2781
    -1.2158  -1.0765  -1.0562  -1.0345  -1.0154  -0.9152  -0.9038  -0.8659
    -0.8612  -0.8192  -0.7740  -0.7716  -0.7552  -0.6941  -0.6689  -0.6465
    -0.6333  -0.5928  -0.5918  -0.5616  -0.5536  -0.5456  -0.5339  -0.5144
    -0.4960  -0.3986  -0.2232  -0.1909  -0.1568  -0.1418  -0.0762   0.0608
     0.1631   0.1993   0.3170   0.3514   0.4227   0.4570   0.4671   0.5449
     0.5652   0.5836   0.6269   0.6519   0.6929   0.7491   0.8562   0.9079
     0.9296   0.9775   1.0313   1.0651   1.0900   1.0959   1.1427   1.1596
     1.2298   1.2304   1.2714   1.2969   1.3317   1.3542   1.3831   1.4128
     1.4333   1.4750   1.4828   1.4866   1.5322   1.5382   1.5564   1.5617
     1.6147   1.6349   1.6489   1.6676   1.6786   1.7260   1.7290   1.7527
     1.7973   1.8205   1.8392   1.8424   1.8820   1.8960   1.9109   1.9246
     1.9289   1.9563   1.9813   2.0254   2.0767   2.0805   2.0842   2.1846
     2.2981   2.3103   2.4036   2.4181   2.4894   2.5050   2.5058   2.5684
     2.8956   2.9465   3.0142   3.0199   3.0587   3.1321   3.3635   3.4312
     3.6924   3.9596   4.0168   4.0484   4.1233   4.2090   4.6760   4.8381
     6.0047   6.0605   6.1668   6.2560   6.5501   6.6173   6.6962   6.8264
     6.9523   7.0672   7.1846   7.2550   7.6159   7.7031   7.7538   7.8295
     8.0483   8.1339   8.2351   8.4457   8.7205   8.8028   8.8598   8.8996
     8.9700   9.0289   9.1016   9.2131   9.3532   9.4328   9.4653   9.4953
     9.5178   9.5781

          k = 0.3750-1.0472 0.0000 ( 70342 PWs)   bands (ev):

   -40.6789 -38.0731 -37.9857 -35.6195 -22.6829 -22.6205 -22.5999 -22.5564
   -22.4177 -22.3838 -22.3597 -22.2665 -20.9610 -20.7202 -20.5839 -19.2645
   -19.1489 -19.0341 -18.6478 -18.3082 -18.1849 -17.0521 -16.8667 -16.7692
   -15.4242 -15.1826 -15.1366 -14.8494 -14.7449 -14.6353 -14.5998 -14.5107
   -14.4812 -14.4601 -14.3795 -14.2962 -14.2498 -14.2024 -14.1731 -14.1694
   -14.1096 -14.0598 -14.0445 -14.0259 -14.0082 -13.9422 -13.8903 -13.8521
   -13.8449 -13.8378 -13.8317 -13.8264 -13.7981 -13.7427  -8.5710  -8.5147
    -8.3568  -8.2422  -8.2349  -8.2322  -8.2118  -8.2083  -8.1866  -8.0585
    -8.0449  -8.0317  -7.9707  -7.9464  -7.9283  -7.9114  -7.8419  -7.8352
    -7.7942  -7.7266  -7.7078  -7.6650  -7.6162  -7.4963  -4.2219  -3.8552
    -3.7651  -3.4727  -3.4401  -3.3102  -3.2704  -3.2122  -3.1463  -3.1148
    -2.9890  -2.9620  -2.9587  -2.9457  -2.6081  -2.6057  -2.3967  -2.3266
    -2.2377  -2.2285  -2.2260  -2.1722  -2.1624  -2.1248  -2.0965  -2.0514
[...]
    -0.3236  -0.2191  -0.2092  -0.1698  -0.1695  -0.1444  -0.1108  -0.0882
    -0.0229  -0.0062   0.0082   0.0155   0.0193   0.0288   0.0514   0.0601
     0.0835   0.1421   0.1979   0.2085   0.2437   0.2534   0.2806   0.3271
     0.4050   0.4303   0.4558   0.4607   0.4767   0.4773   0.4794   0.5080
     0.5256   0.5364   0.5487   0.5530   0.5684   0.5886   0.6846   0.7231
     0.7722   0.7740   0.7984   0.9392   1.0110   1.0388   1.0417   1.0829
     1.1213   1.1226   1.1399   1.1504   1.1776   1.2110   1.2382   1.2870
     1.3291   1.3311   1.3454   1.3606   1.3872   1.3959   1.4694   1.4855
     1.5065   1.5088   1.5128   1.5414   1.5505   1.6314   1.6441   1.6657
     1.6764   1.6814   1.6940   1.7034   1.8208   1.8420   1.8592   1.8656
     1.8666   1.8759   2.0213   2.0712   2.1098   2.1337   2.3193   2.3730
     2.5313   2.6321   2.6728   2.7889   2.9044   2.9067   2.9692   2.9813
     2.9928   3.0308   3.0538   3.1136   3.1156   3.1952   4.2322   4.6763
     5.7993   5.9010   6.1433   6.1992   6.1994   6.2168   6.2493   6.3016
     6.4637   6.6654   6.7785   7.1521   7.1796   7.2113   7.3702   7.5077
     7.7543   7.7834   7.8339   7.9420   7.9561   8.0393   8.0525   8.0703
     8.2635   8.3150   8.3508   8.6252   8.6778   8.7999   8.8956   8.9231
     8.9766   9.0460

          k =-0.5000 0.5236 0.0000 ( 70326 PWs)   bands (ev):

   -40.6860 -38.0777 -37.9950 -35.6253 -22.7573 -22.6984 -22.6717 -22.6423
   -22.4853 -22.4748 -22.4361 -22.3428 -20.8171 -20.7326 -20.6178 -19.1806
   -19.1585 -19.0578 -18.3582 -18.3371 -18.3290 -16.8978 -16.8931 -16.8695
   -15.6360 -15.3796 -15.0917 -14.8112 -14.7352 -14.7073 -14.6389 -14.6289
   -14.5955 -14.5826 -14.5762 -14.4948 -14.4476 -14.4231 -14.3540 -14.3029
   -14.1965 -14.1221 -14.0524 -13.9548 -13.9276 -13.9146 -13.9146 -13.9135
   -13.8512 -13.8307 -13.7396 -13.7380 -13.6834 -13.6370  -8.2885  -8.2540
    -8.2482  -8.2191  -8.1613  -8.0883  -8.0759  -8.0623  -7.9924  -7.9371
    -7.9251  -7.9103  -7.8125  -7.7537  -7.7271  -7.6979  -7.6505  -7.6473
    -7.6384  -7.6319  -7.4936  -7.4805  -7.4076  -7.3194  -3.5308  -3.3721
    -3.0482  -2.9708  -2.7038  -2.6833  -2.6503  -2.5423  -2.5361  -2.4827
    -2.4740  -2.4603  -2.2921  -2.2519  -2.1448  -2.1388  -2.1333  -2.1268
    -2.1218  -2.1116  -2.0631  -2.0371  -2.0249  -2.0005  -1.9914  -1.9696
    -1.9577  -1.8547  -1.7978  -1.7576  -1.7540  -1.4828  -1.4607  -1.4261
    -1.3984  -1.3759  -1.3681  -1.3061  -1.2091  -1.1975  -1.1580  -1.1301
    -1.1110  -0.9640  -0.9317  -0.9041  -0.8944  -0.8262  -0.8083  -0.7637
    -0.7261  -0.6797  -0.6133  -0.5866  -0.5844  -0.5827  -0.5688  -0.5432
    -0.4870  -0.4307  -0.4026  -0.3883  -0.3759  -0.3645  -0.3342  -0.3134
    -0.2455  -0.2244  -0.1933  -0.1752  -0.1435  -0.1250  -0.0747   0.0543
     0.1023   0.1497   0.1994   0.2999   0.3101   0.3545   0.3991   0.4391
     0.4534   0.5342   0.5587   0.6038   0.6118   0.6381   0.6706   0.6823
     0.6825   0.8267   0.8463   0.8973   0.9250   0.9568   1.0234   1.0290
     1.0624   1.0680   1.0707   1.0887   1.1281   1.1478   1.1499   1.1640
     1.1674   1.2126   1.2393   1.3676   1.3737   1.4124   1.4662   1.5032
     1.5056   1.5257   1.5313   1.5449   1.5650   1.5700   1.5948   1.6332
     1.6474   1.6576   1.6591   1.6728   1.7013   1.7117   1.7144   1.7667
     1.8147   1.8313   1.8425   1.8562   1.8760   1.9295   2.0274   2.0309
     2.0360   2.0602   2.0784   2.0958   2.1617   2.2577   2.2784   2.4484
     3.0616   3.1277   3.1447   3.1585   3.1886   3.1970   3.3064   3.3588
     3.4610   3.5444   3.5503   3.6591   3.7175   3.7466   4.4575   4.6815
     5.7699   6.0480   6.2241   6.3534   6.5753   6.7158   6.7436   6.7781
     6.7956   6.8859   6.9609   7.2656   7.3074   7.3304   7.3905   7.6225
     7.8725   8.0570   8.1217   8.2662   8.3725   8.3938   8.4612   8.4779
     8.5878   8.7269   8.8437   8.8976   8.8990   9.0252   9.1592   9.1761
     9.1879   9.2867

          k =-0.5000 0.7854 0.0000 ( 70374 PWs)   bands (ev):

   -40.6810 -38.0744 -37.9885 -35.6212 -22.7020 -22.6466 -22.6164 -22.5869
   -22.4297 -22.4190 -22.3805 -22.2911 -20.9191 -20.7234 -20.5944 -19.2401
   -19.1525 -19.0411 -18.5672 -18.3121 -18.2315 -17.0014 -16.8818 -16.8079
   -15.4970 -15.2313 -15.1348 -14.7910 -14.6834 -14.6574 -14.5902 -14.5825
   -14.5074 -14.4361 -14.4025 -14.3841 -14.3771 -14.3217 -14.2293 -14.2125
   -14.1800 -14.1433 -14.0047 -14.0044 -13.9218 -13.9028 -13.8787 -13.8734
   -13.8679 -13.8656 -13.8000 -13.7799 -13.7541 -13.7425  -8.4448  -8.3749
    -8.3364  -8.3343  -8.2138  -8.2055  -8.1833  -8.1220  -8.0315  -8.0258
    -7.9747  -7.9709  -7.9575  -7.8909  -7.8784  -7.8778  -7.7849  -7.7537
    -7.7370  -7.6940  -7.6915  -7.6654  -7.6135  -7.4995  -3.9545  -3.7069
    -3.5602  -3.3801  -3.1604  -3.1288  -3.0154  -3.0060  -2.9952  -2.9681
    -2.7431  -2.7422  -2.7235  -2.7200  -2.6147  -2.4993  -2.3591  -2.3122
    -2.2319  -2.1750  -2.1532  -2.1498  -2.1332  -2.1114  -2.0401  -2.0044
    -2.0027  -1.9621  -1.8557  -1.8273  -1.7280  -1.6846  -1.6673  -1.6060
    -1.6010  -1.4797  -1.4697  -1.4272  -1.3500  -1.3140  -1.2910  -1.2734
    -1.2696  -1.1465  -1.1215  -1.0550  -1.0271  -0.9120  -0.8901  -0.8841
    -0.8263  -0.8228  -0.7772  -0.7744  -0.7550  -0.6871  -0.6725  -0.6647
    -0.6226  -0.5816  -0.5655  -0.5592  -0.5583  -0.5456  -0.5070  -0.4934
    -0.4443  -0.3792  -0.2575  -0.2254  -0.2070  -0.1955  -0.0292   0.1188
     0.1338   0.2577   0.2735   0.3735   0.4040   0.4779   0.4892   0.5377
     0.5908   0.6051   0.6573   0.6932   0.7164   0.7648   0.7661   0.9050
     0.9162   0.9522   1.0621   1.0631   1.0910   1.1095   1.1336   1.1714
     1.1875   1.2062   1.2707   1.3146   1.3152   1.3665   1.3913   1.4526
     1.4544   1.4647   1.5032   1.5113   1.5210   1.5302   1.5503   1.6108
     1.6277   1.6374   1.6443   1.6536   1.6752   1.7034   1.7455   1.7639
     1.7823   1.7955   1.8089   1.8462   1.8561   1.8772   1.8876   1.8958
     1.9169   1.9527   2.0003   2.0355   2.0631   2.0645   2.0936   2.1888
     2.2622   2.3510   2.4418   2.4495   2.4522   2.4752   2.4908   2.5074
     2.9944   3.0197   3.0485   3.0648   3.3053   3.3429   3.5498   3.5950
     3.7398   3.7525   3.7850   3.8660   4.0350   4.0438   4.6731   4.8351
     6.0185   6.1544   6.1853   6.2256   6.5848   6.7440   6.8363   6.8699
     6.9065   7.0154   7.0345   7.1503   7.6246   7.6632   7.7346   7.7663
     8.0321   8.1052   8.2258   8.4481   8.7810   8.7989   8.8751   8.8962
     8.9244   8.9893   9.0125   9.2165   9.3354   9.5233   9.5710   9.6298
     9.6366   9.6999

          k =-0.5000-1.0472 0.0000 ( 70316 PWs)   bands (ev):

   -40.6789 -38.0731 -37.9857 -35.6195 -22.6787 -22.6248 -22.5930 -22.5635
   -22.4061 -22.3955 -22.3571 -22.2693 -20.9610 -20.7196 -20.5840 -19.2645
   -19.1500 -19.0340 -18.6477 -18.3051 -18.1845 -17.0521 -16.8755 -16.7712
   -15.4215 -15.1726 -15.1456 -14.8528 -14.7053 -14.6411 -14.5766 -14.5729
   -14.4803 -14.4055 -14.3596 -14.2966 -14.2516 -14.2147 -14.1999 -14.1954
   -14.0836 -14.0571 -14.0508 -14.0463 -13.9845 -13.9712 -13.8780 -13.8490
   -13.8482 -13.8370 -13.8354 -13.8348 -13.7797 -13.7616  -8.4709  -8.3783
    -8.3354  -8.3276  -8.2156  -8.2115  -8.1779  -8.1224  -8.1175  -8.0532
    -8.0425  -8.0296  -8.0264  -8.0144  -7.9509  -7.9483  -7.8911  -7.8763
    -7.8159  -7.7739  -7.7156  -7.6873  -7.6158  -7.5960  -4.1279  -3.8422
    -3.7616  -3.5411  -3.3569  -3.3238  -3.2130  -3.2060  -3.1877  -3.1494
    -2.9759  -2.9753  -2.9575  -2.9510  -2.5442  -2.5300  -2.4457  -2.3283
    -2.3181  -2.2083  -2.1949  -2.1554  -2.1267  -2.1230  -2.0625  -2.0248
    -1.9817  -1.9347  -1.9063  -1.8759  -1.8063  -1.7810  -1.7268  -1.6161
    -1.6074  -1.5097  -1.4860  -1.4676  -1.4619  -1.4392  -1.3893  -1.3131
    -1.3038  -1.1664  -1.1273  -1.1039  -1.0799  -0.9958  -0.9818  -0.9643
    -0.9239  -0.9128  -0.7964  -0.7955  -0.7478  -0.7453  -0.7434  -0.6812
    -0.6520  -0.6422  -0.6378  -0.6365  -0.6316  -0.5324  -0.5230  -0.5225
    -0.4790  -0.3935  -0.2793  -0.2536  -0.2179  -0.2091   0.0014   0.1350
     0.1450   0.3079   0.3132   0.4032   0.4419   0.4945   0.5171   0.5694
     0.6184   0.6337   0.6348   0.7320   0.7782   0.7925   0.8607   0.9622
     1.0516   1.1060   1.1082   1.1530   1.1676   1.2099   1.2531   1.2651
     1.2857   1.3145   1.3184   1.3446   1.3704   1.3874   1.4054   1.4164
     1.4408   1.4516   1.4769   1.4824   1.5305   1.5314   1.5316   1.5793
     1.6092   1.6628   1.6664   1.7457   1.7514   1.7647   1.8256   1.8367
     1.8781   1.8803   1.9271   1.9353   1.9372   1.9543   1.9759   2.0041
     2.0618   2.1019   2.1130   2.1622   2.2374   2.2735   2.2771   2.2783
     2.2786   2.5073   2.5262   2.6214   2.6300   2.6304   2.6500   2.7060
     2.7922   2.8073   2.8530   2.8644   3.3491   3.3639   3.5643   3.6494
     3.7378   3.7483   3.8252   3.9179   4.0759   4.1187   4.6906   5.0562
     6.0522   6.1279   6.2696   6.2789   6.4478   6.7440   6.7565   6.8052
     6.8537   6.9224   7.0486   7.0742   7.6770   7.6927   7.8097   7.8278
     8.1799   8.3323   8.4215   8.5520   8.8549   9.1614   9.1828   9.2292
     9.2462   9.2608   9.3206   9.4779   9.5466   9.5580   9.6320   9.7136
     9.7393   9.7409

     the Fermi energy is     2.8016 ev

!    total energy              =   -3711.40427118 Ry
     Harris-Foulkes estimate   =   -3711.40427119 Ry
     estimated scf accuracy    <          4.9E-09 Ry

     The total energy is the sum of the following terms:

     one-electron contribution =  -62550.73879160 Ry
     hartree contribution      =   31580.45508989 Ry
     xc contribution           =   -1263.57288020 Ry
     ewald contribution        =   28522.46594786 Ry
     smearing contrib. (-TS)   =      -0.01363713 Ry

     convergence has been achieved in  36 iterations

     negative rho (up, down):  9.135E-02 0.000E+00

     Forces acting on atoms (cartesian axes, Ry/au):

     atom    1 type  4   force =    -0.00000927    0.00000000   -0.00011513
     atom    2 type  4   force =     0.00000927    0.00000000   -0.00011513
     atom    3 type  3   force =    -0.00001606    0.00000000   -0.00007345
     atom    4 type  3   force =     0.00001606    0.00000000   -0.00007345
     atom    5 type  4   force =    -0.00000212    0.00000000   -0.00003293
     atom    6 type  4   force =     0.00000212    0.00000000   -0.00003293
     atom    7 type  1   force =     0.00000000    0.00000000   -0.00009388
     atom    8 type  1   force =     0.00000000    0.00000000   -0.00008462
     atom    9 type  3   force =     0.00000990    0.00000000    0.00005800
     atom   10 type  3   force =    -0.00000990    0.00000000    0.00005800
     atom   11 type  4   force =     0.00000000    0.00000000    0.00007964
     atom   12 type  4   force =    -0.00000524    0.00000000    0.00000789
     atom   13 type  4   force =     0.00000524    0.00000000    0.00000789
     atom   14 type  4   force =     0.00000000    0.00000000    0.00011080
     atom   15 type  2   force =     0.00000000    0.00000000   -0.00035155
     atom   16 type  5   force =     0.00000000    0.00000000   -0.00051973
     atom   17 type  4   force =     0.00007005    0.00000000    0.00052515
     atom   18 type  4   force =    -0.00007005    0.00000000    0.00052515
     atom   19 type  4   force =     0.00000000    0.00000000    0.00057216
     atom   20 type  4   force =     0.00000000    0.00000000    0.00075859
     atom   21 type  3   force =    -0.00003364    0.00000000   -0.00082238
     atom   22 type  3   force =     0.00003364    0.00000000   -0.00082238
     atom   23 type  1   force =     0.00000000    0.00000000   -0.00148033
     atom   24 type  1   force =     0.00000000    0.00000000   -0.00156454
     atom   25 type  4   force =    -0.00015108    0.00000000    0.00311853
     atom   26 type  4   force =     0.00015108    0.00000000    0.00311853
     atom   27 type  4   force =     0.00002818    0.00000000    0.00387379
     atom   28 type  4   force =    -0.00002818    0.00000000    0.00387379
     atom   29 type  3   force =     0.00125182    0.00000000   -0.00713039
     atom   30 type  3   force =    -0.00125182    0.00000000   -0.00713039
     atom   31 type  4   force =     0.00028277    0.00000000    0.00985441
     atom   32 type  4   force =    -0.00028277    0.00000000    0.00985441
     atom   33 type  1   force =     0.00000000    0.00000000   -0.02058224
     atom   34 type  1   force =     0.00000000    0.00000000   -0.01448661
     atom   35 type  3   force =    -0.00307021    0.00000000    0.00386891
     atom   36 type  3   force =     0.00307021    0.00000000    0.00386891
     atom   37 type  4   force =     0.00000000    0.00000000    0.04692750
     atom   38 type  4   force =     0.00000000    0.00000000    0.07447281
     atom   39 type  4   force =     0.01839951    0.00000000    0.06160437
     atom   40 type  4   force =    -0.01839951    0.00000000    0.06160437
     atom   41 type  5   force =     0.00000000    0.00000000   -0.04548718
     atom   42 type  2   force =     0.00000000    0.00000000   -0.01575202
     atom   43 type  4   force =     0.00000000    0.00000000   -0.02905448
     atom   44 type  4   force =    -0.00116927    0.00000000   -0.02316265
     atom   45 type  4   force =     0.00116927    0.00000000   -0.02316265
     atom   46 type  4   force =     0.00000000    0.00000000   -0.00762341
     atom   47 type  3   force =     0.00097301    0.00000000   -0.02040458
     atom   48 type  3   force =    -0.00097301    0.00000000   -0.02040458
     atom   49 type  1   force =     0.00000000    0.00000000   -0.02054103
     atom   50 type  1   force =     0.00000000    0.00000000   -0.02596376
     atom   51 type  4   force =     0.00056562    0.00000000   -0.00081455
     atom   52 type  4   force =    -0.00056562    0.00000000   -0.00081455
     atom   53 type  3   force =    -0.00013083    0.00000000   -0.00035124
     atom   54 type  3   force =     0.00013083    0.00000000   -0.00035124
     atom   55 type  4   force =     0.00002961    0.00000000    0.00032819
     atom   56 type  4   force =    -0.00002961    0.00000000    0.00032819

     Total force =     0.152587     Total SCF correction =     0.000369


     Computing stress (Cartesian axis) and pressure


     negative rho (up, down):  9.135E-02 0.000E+00
          total   stress  (Ry/bohr**3)                   (kbar)     P=       -9.38
  -0.00001147   0.00000000   0.00000000           -1.69        0.00        0.00
   0.00000000   0.00000744   0.00000000            0.00        1.09        0.00
   0.00000000   0.00000000  -0.00018726            0.00        0.00      -27.55

 
     init_run     :     23.84s CPU     25.67s WALL (       1 calls)
     electrons    :   1664.92s CPU   1804.49s WALL (       1 calls)
     forces       :     10.64s CPU     11.52s WALL (       1 calls)
     stress       :    107.33s CPU    109.41s WALL (       1 calls)

     Called by init_run:
     wfcinit      :     19.44s CPU     20.45s WALL (       1 calls)
     potinit      :      0.99s CPU      1.01s WALL (       1 calls)
     hinit0       :      1.62s CPU      1.65s WALL (       1 calls)

     Called by electrons:
     c_bands      :   1378.07s CPU   1457.34s WALL (      36 calls)
     sum_band     :    215.01s CPU    248.91s WALL (      36 calls)
     v_of_rho     :      5.28s CPU      5.36s WALL (      37 calls)
     newd         :     31.58s CPU     57.17s WALL (      37 calls)
     mix_rho      :     35.39s CPU     35.75s WALL (      36 calls)

     Called by c_bands:
     init_us_2    :     15.96s CPU     16.10s WALL (    1875 calls)
     cegterg      :   1309.15s CPU   1362.97s WALL (     900 calls)

     Called by sum_band:
     sum_band:bec :      1.13s CPU      1.14s WALL (     900 calls)
     addusdens    :     35.96s CPU     67.56s WALL (      36 calls)

     Called by *egterg:
     h_psi        :    659.89s CPU    675.17s WALL (    3958 calls)
     s_psi        :    104.90s CPU    105.48s WALL (    3958 calls)
     g_psi        :      2.20s CPU      2.23s WALL (    3033 calls)
     cdiaghg      :    246.00s CPU    246.99s WALL (    3933 calls)

     Called by h_psi:
     h_psi:calbec :    111.78s CPU    112.30s WALL (    3958 calls)
     vloc_psi     :    439.41s CPU    446.15s WALL (    3958 calls)
     add_vuspsi   :    105.53s CPU    106.14s WALL (    3958 calls)

     General routines
     calbec       :    171.27s CPU    172.01s WALL (    4983 calls)
     fft          :      4.69s CPU      4.74s WALL (     504 calls)
     ffts         :     18.18s CPU     18.38s WALL (   19836 calls)
     fftw         :    498.27s CPU    505.69s WALL ( 1274662 calls)
     interpolate  :      0.42s CPU      0.42s WALL (      37 calls)
 
     Parallel routines
     fft_scatt_xy :     60.77s CPU     61.71s WALL ( 1295002 calls)
     fft_scatt_yz :    319.71s CPU    324.48s WALL ( 1295002 calls)
 
     PWSCF        :  30m 7.67s CPU  32m32.16s WALL

 
   This run was terminated on:   0:33:10  28May2021            

=------------------------------------------------------------------------------=
   JOB DONE.
=------------------------------------------------------------------------------=
[1622176390.532580] [holy7c04206:177331:0]          mpool.c:43   UCX  WARN  object 0x4690e80 was not returned to mpool ucp_requests
[1622176390.535891] [holy7c04211:128397:0]          mpool.c:43   UCX  WARN  object 0x302e880 was not returned to mpool ucp_requests
[1622176390.537405] [holy7c04107:184893:0]          mpool.c:43   UCX  WARN  object 0x2866500 was not returned to mpool ucp_requests
[1622176390.537427] [holy7c04107:184893:0]          mpool.c:43   UCX  WARN  object 0x28666c0 was not returned to mpool ucp_requests
[1622176390.571314] [holy7c04102:275025:0]          mpool.c:43   UCX  WARN  object 0x3ec7840 was not returned to mpool ucp_requests
[1622176390.571340] [holy7c04102:275025:0]          mpool.c:43   UCX  WARN  object 0x3ec7d80 was not returned to mpool ucp_requests
[1622176390.587816] [holy7c04102:275033:0]          mpool.c:43   UCX  WARN  object 0x2a8b4c0 was not returned to mpool ucp_requests
[1622176390.589933] [holy7c04102:275023:0]          mpool.c:43   UCX  WARN  object 0x45b5a40 was not returned to mpool ucp_requests
[1622176390.573843] [holy7c04102:275038:0]          mpool.c:43   UCX  WARN  object 0x35989c0 was not returned to mpool ucp_requests
[1622176390.583298] [holy7c04102:275029:0]          mpool.c:43   UCX  WARN  object 0x3768040 was not returned to mpool ucp_requests
[1622176390.577010] [holy7c04102:275024:0]          mpool.c:43   UCX  WARN  object 0x4359d40 was not returned to mpool ucp_requests
[1622176390.577650] [holy7c04102:275037:0]          mpool.c:43   UCX  WARN  object 0x3b69d40 was not returned to mpool ucp_requests
[1622176390.584435] [holy7c04102:275035:0]          mpool.c:43   UCX  WARN  object 0x425f8c0 was not returned to mpool ucp_requests
[1622176390.584456] [holy7c04102:275035:0]          mpool.c:43   UCX  WARN  object 0x425fa80 was not returned to mpool ucp_requests
[1622176390.584459] [holy7c04102:275035:0]          mpool.c:43   UCX  WARN  object 0x425fe00 was not returned to mpool ucp_requests
[1622176390.586045] [holy7c04102:275030:0]          mpool.c:43   UCX  WARN  object 0x3cceb80 was not returned to mpool ucp_requests
[1622176390.586068] [holy7c04102:275030:0]          mpool.c:43   UCX  WARN  object 0x3ccef00 was not returned to mpool ucp_requests
[1622176390.586070] [holy7c04102:275030:0]          mpool.c:43   UCX  WARN  object 0x3ccf0c0 was not returned to mpool ucp_requests
[1622176390.577130] [holy7c04102:275028:0]          mpool.c:43   UCX  WARN  object 0x2f649c0 was not returned to mpool ucp_requests
[1622176390.577150] [holy7c04102:275028:0]          mpool.c:43   UCX  WARN  object 0x2f64f00 was not returned to mpool ucp_requests
[1622176390.579893] [holy7c04102:275034:0]          mpool.c:43   UCX  WARN  object 0x3aeaa40 was not returned to mpool ucp_requests
