
     Program PWSCF v.6.5 starts on 28May2021 at 10: 6:36 

     This program is part of the open-source Quantum ESPRESSO suite
     for quantum simulation of materials; please cite
         "P. Giannozzi et al., J. Phys.:Condens. Matter 21 395502 (2009);
         "P. Giannozzi et al., J. Phys.:Condens. Matter 29 465901 (2017);
          URL http://www.quantum-espresso.org", 
     in publications or presentations arising from this work. More details at
     http://www.quantum-espresso.org/quote

     Parallel version (MPI), running on    32 processors

     MPI processes distributed on     7 nodes
     R & G space division:  proc/nbgrp/npool/nimage =      32
     Reading input from YCBCO50_212_Y_cleave_3.0_sep.pwi
Warning: card &IONS ignored
Warning: card     ION_DYNAMICS = 'BFGS' ignored
Warning: card / ignored
Warning: card &CELL ignored
Warning: card     CELL_DYNAMICS = 'BFGS' ignored
Warning: card     PRESS_CONV_THR = 5 ignored
Warning: card / ignored

     Current dimensions of program PWSCF are:
     Max number of different atomic species (ntypx) = 10
     Max number of k-points (npk) =  40000
     Max angular momentum in pseudopotentials (lmaxx) =  3

     Subspace diagonalization in iterative solution of the eigenvalue problem:
     one sub-group per band group will be used
     scalapack distributed-memory algorithm (size of sub-group:  5*  5 procs)

     Message from routine setup:
     using ibrav=0 with symmetry is DISCOURAGED, use correct ibrav instead
 
     Parallelization info
     --------------------
     sticks:   dense  smooth     PW     G-vecs:    dense   smooth      PW
     Min         188      62     17                94912    18254    2723
     Max         189      63     18                94944    18301    2764
     Sum        6019    2003    565              3037741   584901   87953
 


     bravais-lattice index     =            0
     lattice parameter (alat)  =      14.8133  a.u.
     unit-cell volume          =    9311.2145 (a.u.)^3
     number of atoms/cell      =           56
     number of atomic types    =            5
     number of electrons       =       456.00
     number of Kohn-Sham states=          274
     kinetic-energy cutoff     =      60.0000  Ry
     charge density cutoff     =     720.0000  Ry
     convergence threshold     =      1.0E-08
     mixing beta               =       0.5000
     number of iterations used =           10  local-TF  mixing
     Exchange-correlation= SLA PW PBE PBE
                           (   1   4   3   4   0   0   0)

     celldm(1)=  14.813271  celldm(2)=   0.000000  celldm(3)=   0.000000
     celldm(4)=   0.000000  celldm(5)=   0.000000  celldm(6)=   0.000000

     crystal axes: (cart. coord. in units of alat)
               a(1) = (   1.000000   0.000000   0.000000 )  
               a(2) = (   0.000000   0.477453   0.000000 )  
               a(3) = (   0.000000   0.000000   5.999610 )  

     reciprocal axes: (cart. coord. in units 2 pi/alat)
               b(1) = (  1.000000  0.000000  0.000000 )  
               b(2) = (  0.000000  2.094448  0.000000 )  
               b(3) = (  0.000000  0.000000  0.166677 )  


     PseudoPot. # 1 for Ba read from file:
     ./pseudo/Ba.pbe-nsp-van.UPF
     MD5 check sum: 2b9c31dd849566dd297d80989662b7a0
     Pseudo is Ultrasoft + core correction, Zval = 10.0
     Generated by new atomic code, or converted to UPF format
     Using radial grid of  907 points,  6 beta functions with: 
                l(1) =   0
                l(2) =   0
                l(3) =   1
                l(4) =   1
                l(5) =   2
                l(6) =   2
     Q(r) pseudized with  6 coefficients,  rinner =    1.200   1.200   1.200
                                                       1.200   1.200

     PseudoPot. # 2 for Ca read from file:
     ./pseudo/Ca.pbe-nsp-van.UPF
     MD5 check sum: 6471098428ff4fa451746d08035ff179
     Pseudo is Ultrasoft + core correction, Zval = 10.0
     Generated by new atomic code, or converted to UPF format
     Using radial grid of  845 points,  6 beta functions with: 
                l(1) =   0
                l(2) =   0
                l(3) =   1
                l(4) =   1
                l(5) =   2
                l(6) =   2
     Q(r) pseudized with  6 coefficients,  rinner =    1.200   1.200   1.200
                                                       1.200   1.200

     PseudoPot. # 3 for Cu read from file:
     ./pseudo/Cu.pbe-n-van_ak.UPF
     MD5 check sum: 34e3282627ffb533726feb647e090d62
     Pseudo is Ultrasoft + core correction, Zval = 11.0
     Generated by new atomic code, or converted to UPF format
     Using radial grid of  867 points,  6 beta functions with: 
                l(1) =   0
                l(2) =   0
                l(3) =   1
                l(4) =   1
                l(5) =   2
                l(6) =   2
     Q(r) pseudized with  8 coefficients,  rinner =    1.400   1.400   1.400
                                                       1.400   1.400

     PseudoPot. # 4 for O  read from file:
     ./pseudo/O.pbe-van_ak.UPF
     MD5 check sum: 783ce7fe4c79b6a4916957118fed0856
     Pseudo is Ultrasoft, Zval =  6.0
     Generated by new atomic code, or converted to UPF format
     Using radial grid of  737 points,  4 beta functions with: 
                l(1) =   0
                l(2) =   0
                l(3) =   1
                l(4) =   1
     Q(r) pseudized with  8 coefficients,  rinner =    0.800   0.800   0.800


     PseudoPot. # 5 for Y  read from file:
     ./pseudo/Y.pbe-nsp-van.UPF
     MD5 check sum: 4412fed3ab108fed87a1b7d6a69a4a38
     Pseudo is Ultrasoft + core correction, Zval = 11.0
     Generated by new atomic code, or converted to UPF format
     Using radial grid of  885 points,  6 beta functions with: 
                l(1) =   0
                l(2) =   0
                l(3) =   1
                l(4) =   1
                l(5) =   2
                l(6) =   2
     Q(r) pseudized with  6 coefficients,  rinner =    1.200   1.200   1.200
                                                       1.200   1.200

     atomic species   valence    mass     pseudopotential
        Ba            10.00   137.32700     Ba( 1.00)
        Ca            10.00    40.07800     Ca( 1.00)
        Cu            11.00    63.54600     Cu( 1.00)
        O              6.00    15.99900     O ( 1.00)
        Y             11.00    88.90584     Y ( 1.00)

      4 Sym. Ops. (no inversion) found ( 2 have fractional translation)



   Cartesian axes

     site n.     atom                  positions (alat units)
         1           O   tau(   1) = (  -0.0008343   0.2387265  -0.0222443  )
         2           O   tau(   2) = (   0.5008340   0.2387265  -0.0222443  )
         3           Cu  tau(   3) = (   0.5017257   0.0000000   0.0109608  )
         4           Cu  tau(   4) = (  -0.0017260   0.0000000   0.0109608  )
         5           O   tau(   5) = (  -0.0028933   0.0000000   0.2506504  )
         6           O   tau(   6) = (   0.5028929   0.0000000   0.2506504  )
         7           Ba  tau(   7) = (   0.7499995   0.2387265   0.2749435  )
         8           Ba  tau(   8) = (   0.2499998   0.2387265   0.2755214  )
         9           Cu  tau(   9) = (   0.4980963   0.0000000   0.5208446  )
        10           Cu  tau(  10) = (   0.0019033   0.0000000   0.5208446  )
        11           O   tau(  11) = (   0.2499998   0.0000000   0.5341884  )
        12           O   tau(  12) = (   0.5083351   0.2387265   0.5569851  )
        13           O   tau(  13) = (  -0.0083354   0.2387265   0.5569851  )
        14           O   tau(  14) = (   0.7499995   0.0000000   0.5573831  )
        15           Ca  tau(  15) = (   0.2499998   0.2387265   0.7436937  )
        16           Y   tau(  16) = (   0.7499995   0.2387265   0.7469544  )
        17           O   tau(  17) = (  -0.0063798   0.2387265   0.9248530  )
        18           O   tau(  18) = (   0.5063794   0.2387265   0.9248530  )
        19           O   tau(  19) = (   0.7499995   0.0000000   0.9338544  )
        20           O   tau(  20) = (   0.2499998   0.0000000   0.9461329  )
        21           Cu  tau(  21) = (   0.0015717   0.0000000   0.9686860  )
        22           Cu  tau(  22) = (   0.4984280   0.0000000   0.9686860  )
        23           Ba  tau(  23) = (   0.2499998   0.2387265   1.2085224  )
        24           Ba  tau(  24) = (   0.7499995   0.2387265   1.2233294  )
        25           O   tau(  25) = (   0.0063772   0.0000000   1.2547537  )
        26           O   tau(  26) = (   0.4936224   0.0000000   1.2547537  )
        27           O   tau(  27) = (   0.5384045   0.2387265   1.4952521  )
        28           O   tau(  28) = (  -0.0384049   0.2387265   1.4952521  )
        29           Cu  tau(  29) = (   0.5006120   0.0000000   1.4952546  )
        30           Cu  tau(  30) = (  -0.0006123   0.0000000   1.4952546  )
        31           O   tau(  31) = (   0.4936212   0.0000000   1.7357531  )
        32           O   tau(  32) = (   0.0063785   0.0000000   1.7357531  )
        33           Ba  tau(  33) = (   0.7499995   0.2387265   1.7671824  )
        34           Ba  tau(  34) = (   0.2499998   0.2387265   1.7819920  )
        35           Cu  tau(  35) = (   0.4984280   0.0000000   2.0218232  )
        36           Cu  tau(  36) = (   0.0015717   0.0000000   2.0218232  )
        37           O   tau(  37) = (   0.2499998   0.0000000   2.0443814  )
        38           O   tau(  38) = (   0.7499995   0.0000000   2.0566511  )
        39           O   tau(  39) = (   0.5063781   0.2387265   2.0656562  )
        40           O   tau(  40) = (  -0.0063785   0.2387265   2.0656562  )
        41           Y   tau(  41) = (   0.7499995   0.2387265   2.2435498  )
        42           Ca  tau(  42) = (   0.2499998   0.2387265   2.2468194  )
        43           O   tau(  43) = (   0.7499995   0.0000000   2.8158266  )
        44           O   tau(  44) = (  -0.0083354   0.2387265   2.8162285  )
        45           O   tau(  45) = (   0.5083351   0.2387265   2.8162285  )
        46           O   tau(  46) = (   0.2499998   0.0000000   2.8390265  )
        47           Cu  tau(  47) = (   0.0019059   0.0000000   2.8523601  )
        48           Cu  tau(  48) = (   0.4980938   0.0000000   2.8523601  )
        49           Ba  tau(  49) = (   0.2499998   0.2387265   3.0976998  )
        50           Ba  tau(  50) = (   0.7499995   0.2387265   3.0982420  )
        51           O   tau(  51) = (  -0.0028895   0.0000000   3.1225491  )
        52           O   tau(  52) = (   0.5028891   0.0000000   3.1225491  )
        53           Cu  tau(  53) = (   0.5017844   0.0000000   3.3622336  )
        54           Cu  tau(  54) = (  -0.0017847   0.0000000   3.3622336  )
        55           O   tau(  55) = (   0.5008990   0.2387265   3.3954401  )
        56           O   tau(  56) = (  -0.0008994   0.2387265   3.3954401  )

     number of k points=    25  Gaussian smearing, width (Ry)=  0.0100
                       cart. coord. in units 2pi/alat
        k(    1) = (   0.0000000   0.0000000   0.0000000), wk =   0.0312500
        k(    2) = (   0.0000000   0.2618060   0.0000000), wk =   0.0625000
        k(    3) = (   0.0000000   0.5236121   0.0000000), wk =   0.0625000
        k(    4) = (   0.0000000   0.7854181   0.0000000), wk =   0.0625000
        k(    5) = (   0.0000000  -1.0472241   0.0000000), wk =   0.0312500
        k(    6) = (   0.1250000   0.0000000   0.0000000), wk =   0.0625000
        k(    7) = (   0.1250000   0.2618060   0.0000000), wk =   0.1250000
        k(    8) = (   0.1250000   0.5236121   0.0000000), wk =   0.1250000
        k(    9) = (   0.1250000   0.7854181   0.0000000), wk =   0.1250000
        k(   10) = (   0.1250000  -1.0472241   0.0000000), wk =   0.0625000
        k(   11) = (   0.2500000   0.0000000   0.0000000), wk =   0.0625000
        k(   12) = (   0.2500000   0.2618060   0.0000000), wk =   0.1250000
        k(   13) = (   0.2500000   0.5236121   0.0000000), wk =   0.1250000
        k(   14) = (   0.2500000   0.7854181   0.0000000), wk =   0.1250000
        k(   15) = (   0.2500000  -1.0472241   0.0000000), wk =   0.0625000
        k(   16) = (   0.3750000   0.0000000   0.0000000), wk =   0.0625000
        k(   17) = (   0.3750000   0.2618060   0.0000000), wk =   0.1250000
        k(   18) = (   0.3750000   0.5236121   0.0000000), wk =   0.1250000
        k(   19) = (   0.3750000   0.7854181   0.0000000), wk =   0.1250000
        k(   20) = (   0.3750000  -1.0472241   0.0000000), wk =   0.0625000
        k(   21) = (  -0.5000000   0.0000000   0.0000000), wk =   0.0312500
        k(   22) = (  -0.5000000   0.2618060   0.0000000), wk =   0.0625000
        k(   23) = (  -0.5000000   0.5236121   0.0000000), wk =   0.0625000
        k(   24) = (  -0.5000000   0.7854181   0.0000000), wk =   0.0625000
        k(   25) = (  -0.5000000  -1.0472241   0.0000000), wk =   0.0312500

     Dense  grid:  3037741 G-vectors     FFT dimensions: ( 128,  64, 768)

     Smooth grid:   584901 G-vectors     FFT dimensions: (  80,  36, 450)

     Estimated max dynamical RAM per process >     878.80 MB

     Estimated total dynamical RAM >      27.46 GB

     Initial potential from superposition of free atoms

     starting charge  455.69457, renormalised to  456.00000

     negative rho (up, down):  9.335E-02 0.000E+00
     Starting wfcs are  396 randomized atomic wfcs

     total cpu time spent up to now is       28.1 secs

     Self-consistent Calculation

     iteration #  1     ecut=    60.00 Ry     beta= 0.50
     Davidson diagonalization with overlap
     ethr =  1.00E-02,  avg # of iterations =  2.0

     negative rho (up, down):  8.575E-02 0.000E+00

     total cpu time spent up to now is       76.7 secs

     total energy              =   -3708.32853235 Ry
     Harris-Foulkes estimate   =   -3716.35724752 Ry
     estimated scf accuracy    <      31.10580026 Ry

     iteration #  2     ecut=    60.00 Ry     beta= 0.50
     Davidson diagonalization with overlap
     ethr =  6.82E-03,  avg # of iterations =  2.0

     negative rho (up, down):  8.517E-02 0.000E+00

     total cpu time spent up to now is      124.6 secs

     total energy              =   -3711.05907509 Ry
     Harris-Foulkes estimate   =   -3712.20447757 Ry
     estimated scf accuracy    <      17.31645322 Ry

     iteration #  3     ecut=    60.00 Ry     beta= 0.50
     Davidson diagonalization with overlap
     ethr =  3.80E-03,  avg # of iterations =  1.0

     negative rho (up, down):  8.523E-02 0.000E+00

     total cpu time spent up to now is      168.7 secs

     total energy              =   -3711.29859249 Ry
     Harris-Foulkes estimate   =   -3711.78904413 Ry
     estimated scf accuracy    <      11.25967090 Ry

     iteration #  4     ecut=    60.00 Ry     beta= 0.50
     Davidson diagonalization with overlap
     ethr =  2.47E-03,  avg # of iterations =  1.0

     negative rho (up, down):  8.584E-02 0.000E+00

     total cpu time spent up to now is      213.0 secs

     total energy              =   -3711.20642641 Ry
     Harris-Foulkes estimate   =   -3711.55472739 Ry
     estimated scf accuracy    <       4.84325059 Ry

     iteration #  5     ecut=    60.00 Ry     beta= 0.50
     Davidson diagonalization with overlap
     ethr =  1.06E-03,  avg # of iterations =  2.8

     negative rho (up, down):  8.648E-02 0.000E+00

     total cpu time spent up to now is      262.2 secs

     total energy              =   -3711.22246635 Ry
     Harris-Foulkes estimate   =   -3711.36639220 Ry
     estimated scf accuracy    <       5.98226088 Ry

     iteration #  6     ecut=    60.00 Ry     beta= 0.50
     Davidson diagonalization with overlap
     ethr =  1.06E-03,  avg # of iterations =  2.3

     negative rho (up, down):  8.809E-02 0.000E+00

     total cpu time spent up to now is      309.7 secs

     total energy              =   -3711.06773687 Ry
     Harris-Foulkes estimate   =   -3711.27318521 Ry
     estimated scf accuracy    <       4.24763294 Ry

     iteration #  7     ecut=    60.00 Ry     beta= 0.50
     Davidson diagonalization with overlap
     ethr =  9.31E-04,  avg # of iterations =  5.7

     negative rho (up, down):  8.908E-02 0.000E+00

     total cpu time spent up to now is      369.0 secs

     total energy              =   -3711.04565078 Ry
     Harris-Foulkes estimate   =   -3711.19681925 Ry
     estimated scf accuracy    <       7.17435400 Ry

     iteration #  8     ecut=    60.00 Ry     beta= 0.50
     Davidson diagonalization with overlap
     ethr =  9.31E-04,  avg # of iterations =  2.1

     negative rho (up, down):  8.888E-02 0.000E+00

     total cpu time spent up to now is      417.3 secs

     total energy              =   -3711.08881027 Ry
     Harris-Foulkes estimate   =   -3711.13931053 Ry
     estimated scf accuracy    <       0.55947986 Ry

     iteration #  9     ecut=    60.00 Ry     beta= 0.50
     Davidson diagonalization with overlap
     ethr =  1.23E-04,  avg # of iterations =  5.7

     negative rho (up, down):  8.928E-02 0.000E+00

     total cpu time spent up to now is      476.1 secs

     total energy              =   -3711.10711306 Ry
     Harris-Foulkes estimate   =   -3711.12591595 Ry
     estimated scf accuracy    <       0.70154582 Ry

     iteration # 10     ecut=    60.00 Ry     beta= 0.50
     Davidson diagonalization with overlap
     ethr =  1.23E-04,  avg # of iterations =  1.6

     negative rho (up, down):  8.947E-02 0.000E+00

     total cpu time spent up to now is      522.0 secs

     total energy              =   -3711.10147149 Ry
     Harris-Foulkes estimate   =   -3711.11347709 Ry
     estimated scf accuracy    <       0.30767147 Ry

     iteration # 11     ecut=    60.00 Ry     beta= 0.50
     Davidson diagonalization with overlap
     c_bands:  2 eigenvalues not converged
     ethr =  6.75E-05,  avg # of iterations =  5.8

     negative rho (up, down):  8.935E-02 0.000E+00

     total cpu time spent up to now is      579.4 secs

     total energy              =   -3711.10170288 Ry
     Harris-Foulkes estimate   =   -3711.10669555 Ry
     estimated scf accuracy    <       0.29468466 Ry

     iteration # 12     ecut=    60.00 Ry     beta= 0.50
     Davidson diagonalization with overlap
     ethr =  6.46E-05,  avg # of iterations =  2.0

     negative rho (up, down):  8.923E-02 0.000E+00

     total cpu time spent up to now is      626.0 secs

     total energy              =   -3711.09876466 Ry
     Harris-Foulkes estimate   =   -3711.10313946 Ry
     estimated scf accuracy    <       0.19795168 Ry

     iteration # 13     ecut=    60.00 Ry     beta= 0.50
     Davidson diagonalization with overlap
     ethr =  4.34E-05,  avg # of iterations =  4.5

     negative rho (up, down):  8.914E-02 0.000E+00

     total cpu time spent up to now is      679.3 secs

     total energy              =   -3711.09933323 Ry
     Harris-Foulkes estimate   =   -3711.10057882 Ry
     estimated scf accuracy    <       0.14942665 Ry

     iteration # 14     ecut=    60.00 Ry     beta= 0.50
     Davidson diagonalization with overlap
     c_bands:  1 eigenvalues not converged
     ethr =  3.28E-05,  avg # of iterations =  4.1

     negative rho (up, down):  8.871E-02 0.000E+00

     total cpu time spent up to now is      731.1 secs

     total energy              =   -3711.09608344 Ry
     Harris-Foulkes estimate   =   -3711.09971976 Ry
     estimated scf accuracy    <       0.12765721 Ry

     iteration # 15     ecut=    60.00 Ry     beta= 0.50
     Davidson diagonalization with overlap
     ethr =  2.80E-05,  avg # of iterations =  2.9

     negative rho (up, down):  8.852E-02 0.000E+00

     total cpu time spent up to now is      780.2 secs

     total energy              =   -3711.09532321 Ry
     Harris-Foulkes estimate   =   -3711.09724975 Ry
     estimated scf accuracy    <       0.08355465 Ry

     iteration # 16     ecut=    60.00 Ry     beta= 0.50
     Davidson diagonalization with overlap
     ethr =  1.83E-05,  avg # of iterations =  4.4

     negative rho (up, down):  1.009E-01 0.000E+00

     total cpu time spent up to now is      833.9 secs

     total energy              =   -3711.09228177 Ry
     Harris-Foulkes estimate   =   -3711.09565294 Ry
     estimated scf accuracy    <       0.06279004 Ry

     iteration # 17     ecut=    60.00 Ry     beta= 0.50
     Davidson diagonalization with overlap
     c_bands:  1 eigenvalues not converged
     ethr =  1.38E-05,  avg # of iterations = 12.0

     negative rho (up, down):  1.147E-01 0.000E+00

     total cpu time spent up to now is      909.1 secs

     total energy              =   -3711.09154707 Ry
     Harris-Foulkes estimate   =   -3711.09305432 Ry
     estimated scf accuracy    <       0.03212171 Ry

     iteration # 18     ecut=    60.00 Ry     beta= 0.50
     Davidson diagonalization with overlap
     c_bands:  1 eigenvalues not converged
     ethr =  7.04E-06,  avg # of iterations = 10.7

     negative rho (up, down):  1.101E-01 0.000E+00

     total cpu time spent up to now is      982.1 secs

     total energy              =   -3711.09092749 Ry
     Harris-Foulkes estimate   =   -3711.09187953 Ry
     estimated scf accuracy    <       0.02211962 Ry

     iteration # 19     ecut=    60.00 Ry     beta= 0.50
     Davidson diagonalization with overlap
     ethr =  4.85E-06,  avg # of iterations =  6.2

     negative rho (up, down):  9.982E-02 0.000E+00

     total cpu time spent up to now is     1040.0 secs

     total energy              =   -3711.09042895 Ry
     Harris-Foulkes estimate   =   -3711.09120578 Ry
     estimated scf accuracy    <       0.01914493 Ry

     iteration # 20     ecut=    60.00 Ry     beta= 0.50
     Davidson diagonalization with overlap
     ethr =  4.20E-06,  avg # of iterations =  5.3

     negative rho (up, down):  9.930E-02 0.000E+00

     total cpu time spent up to now is     1096.3 secs

     total energy              =   -3711.09026577 Ry
     Harris-Foulkes estimate   =   -3711.09056619 Ry
     estimated scf accuracy    <       0.01114982 Ry

     iteration # 21     ecut=    60.00 Ry     beta= 0.50
     Davidson diagonalization with overlap
     c_bands:  1 eigenvalues not converged
     ethr =  2.45E-06,  avg # of iterations =  6.8

     negative rho (up, down):  9.025E-02 0.000E+00

     total cpu time spent up to now is     1157.0 secs

     total energy              =   -3711.08992677 Ry
     Harris-Foulkes estimate   =   -3711.09030898 Ry
     estimated scf accuracy    <       0.00500760 Ry

     iteration # 22     ecut=    60.00 Ry     beta= 0.50
     Davidson diagonalization with overlap
     c_bands:  1 eigenvalues not converged
     ethr =  1.10E-06,  avg # of iterations =  8.7

     negative rho (up, down):  9.075E-02 0.000E+00

     total cpu time spent up to now is     1223.3 secs

     total energy              =   -3711.09002054 Ry
     Harris-Foulkes estimate   =   -3711.09004779 Ry
     estimated scf accuracy    <       0.00352137 Ry

     iteration # 23     ecut=    60.00 Ry     beta= 0.50
     Davidson diagonalization with overlap
     ethr =  7.72E-07,  avg # of iterations =  6.8

     negative rho (up, down):  9.013E-02 0.000E+00

     total cpu time spent up to now is     1283.0 secs

     total energy              =   -3711.09003738 Ry
     Harris-Foulkes estimate   =   -3711.09005709 Ry
     estimated scf accuracy    <       0.00092179 Ry

     iteration # 24     ecut=    60.00 Ry     beta= 0.50
     Davidson diagonalization with overlap
     c_bands:  1 eigenvalues not converged
     ethr =  2.02E-07,  avg # of iterations =  7.7

     negative rho (up, down):  9.482E-02 0.000E+00

     total cpu time spent up to now is     1346.3 secs

     total energy              =   -3711.09008688 Ry
     Harris-Foulkes estimate   =   -3711.09006958 Ry
     estimated scf accuracy    <       0.00095048 Ry

     iteration # 25     ecut=    60.00 Ry     beta= 0.50
     Davidson diagonalization with overlap
     ethr =  2.02E-07,  avg # of iterations =  9.9

     negative rho (up, down):  9.060E-02 0.000E+00

     total cpu time spent up to now is     1416.8 secs

     total energy              =   -3711.09004984 Ry
     Harris-Foulkes estimate   =   -3711.09011028 Ry
     estimated scf accuracy    <       0.00017658 Ry

     iteration # 26     ecut=    60.00 Ry     beta= 0.50
     Davidson diagonalization with overlap
     c_bands:  1 eigenvalues not converged
     c_bands:  1 eigenvalues not converged
     c_bands:  1 eigenvalues not converged
     ethr =  3.87E-08,  avg # of iterations =  9.9

     negative rho (up, down):  9.094E-02 0.000E+00

     total cpu time spent up to now is     1486.3 secs

     total energy              =   -3711.09005469 Ry
     Harris-Foulkes estimate   =   -3711.09006011 Ry
     estimated scf accuracy    <       0.00008065 Ry

     iteration # 27     ecut=    60.00 Ry     beta= 0.50
     Davidson diagonalization with overlap
     ethr =  1.77E-08,  avg # of iterations =  2.6

     negative rho (up, down):  9.161E-02 0.000E+00

     total cpu time spent up to now is     1535.4 secs

     total energy              =   -3711.09005849 Ry
     Harris-Foulkes estimate   =   -3711.09005887 Ry
     estimated scf accuracy    <       0.00007932 Ry

     iteration # 28     ecut=    60.00 Ry     beta= 0.50
     Davidson diagonalization with overlap
     ethr =  1.74E-08,  avg # of iterations =  2.6

     negative rho (up, down):  9.156E-02 0.000E+00

     total cpu time spent up to now is     1584.0 secs

     total energy              =   -3711.09005579 Ry
     Harris-Foulkes estimate   =   -3711.09005942 Ry
     estimated scf accuracy    <       0.00003993 Ry

     iteration # 29     ecut=    60.00 Ry     beta= 0.50
     Davidson diagonalization with overlap
     ethr =  8.76E-09,  avg # of iterations =  1.6

     negative rho (up, down):  9.136E-02 0.000E+00

     total cpu time spent up to now is     1629.6 secs

     total energy              =   -3711.09005630 Ry
     Harris-Foulkes estimate   =   -3711.09005664 Ry
     estimated scf accuracy    <       0.00001283 Ry

     iteration # 30     ecut=    60.00 Ry     beta= 0.50
     Davidson diagonalization with overlap
     ethr =  2.81E-09,  avg # of iterations =  1.4

     negative rho (up, down):  9.110E-02 0.000E+00

     total cpu time spent up to now is     1674.5 secs

     total energy              =   -3711.09005677 Ry
     Harris-Foulkes estimate   =   -3711.09005649 Ry
     estimated scf accuracy    <       0.00000497 Ry

     iteration # 31     ecut=    60.00 Ry     beta= 0.50
     Davidson diagonalization with overlap
     ethr =  1.09E-09,  avg # of iterations =  2.3

     negative rho (up, down):  9.117E-02 0.000E+00

     total cpu time spent up to now is     1722.6 secs

     total energy              =   -3711.09005661 Ry
     Harris-Foulkes estimate   =   -3711.09005693 Ry
     estimated scf accuracy    <       0.00000378 Ry

     iteration # 32     ecut=    60.00 Ry     beta= 0.50
     Davidson diagonalization with overlap
     ethr =  8.29E-10,  avg # of iterations =  1.2

     negative rho (up, down):  9.117E-02 0.000E+00

     total cpu time spent up to now is     1766.6 secs

     total energy              =   -3711.09005665 Ry
     Harris-Foulkes estimate   =   -3711.09005671 Ry
     estimated scf accuracy    <       0.00000184 Ry

     iteration # 33     ecut=    60.00 Ry     beta= 0.50
     Davidson diagonalization with overlap
     ethr =  4.04E-10,  avg # of iterations =  1.3

     negative rho (up, down):  9.120E-02 0.000E+00

     total cpu time spent up to now is     1811.2 secs

     total energy              =   -3711.09005661 Ry
     Harris-Foulkes estimate   =   -3711.09005668 Ry
     estimated scf accuracy    <       0.00000084 Ry

     iteration # 34     ecut=    60.00 Ry     beta= 0.50
     Davidson diagonalization with overlap
     ethr =  1.84E-10,  avg # of iterations =  1.5

     negative rho (up, down):  9.121E-02 0.000E+00

     total cpu time spent up to now is     1856.5 secs

     total energy              =   -3711.09005658 Ry
     Harris-Foulkes estimate   =   -3711.09005662 Ry
     estimated scf accuracy    <       0.00000047 Ry

     iteration # 35     ecut=    60.00 Ry     beta= 0.50
     Davidson diagonalization with overlap
     ethr =  1.03E-10,  avg # of iterations =  1.5

     negative rho (up, down):  9.124E-02 0.000E+00

     total cpu time spent up to now is     1901.0 secs

     total energy              =   -3711.09005656 Ry
     Harris-Foulkes estimate   =   -3711.09005660 Ry
     estimated scf accuracy    <       0.00000007 Ry

     iteration # 36     ecut=    60.00 Ry     beta= 0.50
     Davidson diagonalization with overlap
     ethr =  1.62E-11,  avg # of iterations =  3.5

     negative rho (up, down):  9.123E-02 0.000E+00

     total cpu time spent up to now is     1952.0 secs

     total energy              =   -3711.09005656 Ry
     Harris-Foulkes estimate   =   -3711.09005656 Ry
     estimated scf accuracy    <       0.00000009 Ry

     iteration # 37     ecut=    60.00 Ry     beta= 0.50
     Davidson diagonalization with overlap
     ethr =  1.62E-11,  avg # of iterations =  1.1

     negative rho (up, down):  9.122E-02 0.000E+00

     total cpu time spent up to now is     1995.3 secs

     total energy              =   -3711.09005658 Ry
     Harris-Foulkes estimate   =   -3711.09005657 Ry
     estimated scf accuracy    <       0.00000004 Ry

     iteration # 38     ecut=    60.00 Ry     beta= 0.50
     Davidson diagonalization with overlap
     ethr =  8.26E-12,  avg # of iterations =  1.0

     negative rho (up, down):  9.121E-02 0.000E+00

     total cpu time spent up to now is     2038.4 secs

     total energy              =   -3711.09005659 Ry
     Harris-Foulkes estimate   =   -3711.09005658 Ry
     estimated scf accuracy    <       0.00000002 Ry

     iteration # 39     ecut=    60.00 Ry     beta= 0.50
     Davidson diagonalization with overlap
     ethr =  4.65E-12,  avg # of iterations =  1.0

     negative rho (up, down):  9.123E-02 0.000E+00

     total cpu time spent up to now is     2080.7 secs

     End of self-consistent calculation

          k = 0.0000 0.0000 0.0000 ( 73127 PWs)   bands (ev):

   -41.3437 -39.0080 -38.2541 -35.8813 -23.2091 -23.0627 -23.0427 -22.9144
   -22.8074 -22.7195 -22.6538 -22.5908 -21.4485 -21.3820 -21.2229 -20.0920
   -20.0474 -19.9706 -18.7292 -18.6251 -18.2573 -17.2293 -17.0941 -16.9110
   -16.2954 -15.8202 -15.6398 -15.5725 -15.2143 -15.1666 -15.0830 -15.0436
   -15.0041 -14.8864 -14.8075 -14.7847 -14.7079 -14.6802 -14.6165 -14.5442
   -14.3292 -14.3280 -14.2782 -14.2201 -14.2142 -14.2076 -14.1453 -14.1301
   -14.1162 -13.9404 -13.9363 -13.8188 -13.7950 -13.4588  -8.5459  -8.4346
    -8.2807  -8.1833  -8.1723  -8.0922  -8.0753  -8.0686  -7.9972  -7.9808
    -7.9540  -7.8620  -7.8577  -7.8465  -7.8020  -7.8007  -7.7993  -7.7160
    -7.6826  -7.6495  -7.6138  -7.5664  -7.4594  -7.4064  -3.6634  -3.2109
    -3.0425  -3.0183  -2.8675  -2.7416  -2.5992  -2.4559  -2.3995  -2.3914
    -2.3574  -2.3119  -2.2759  -2.2687  -2.2416  -2.1122  -2.0931  -2.0645
    -2.0270  -1.8914  -1.8583  -1.8331  -1.7576  -1.7358  -1.7339  -1.6721
    -1.5924  -1.5566  -1.3936  -1.3891  -1.3637  -1.3436  -1.3317  -1.2498
    -1.1515  -1.1471  -1.1457  -1.1289  -1.1166  -1.1042  -1.1038  -1.0984
    -1.0933  -1.0402  -1.0017  -0.9866  -0.9203  -0.8572  -0.8290  -0.8269
    -0.7747  -0.7334  -0.5492  -0.5402  -0.4808  -0.4708  -0.4139  -0.4103
    -0.4028  -0.3872  -0.3649  -0.3617  -0.3573  -0.2621  -0.2598  -0.2383
    -0.2250  -0.2025  -0.1933  -0.1736  -0.1686  -0.1526  -0.1367  -0.1172
    -0.1108  -0.1057  -0.0490  -0.0486   0.0437   0.0474   0.0773   0.0792
     0.0857   0.0866   0.1180   0.1491   0.1871   0.1883   0.1892   0.2001
     0.2632   0.2880   0.2996   0.3396   0.3527   0.3583   0.3799   0.3812
     0.3847   0.4260   0.4984   0.5406   0.5495   0.5845   0.6646   0.7567
     0.8156   0.8383   0.8581   0.8682   0.8932   0.9240   1.0091   1.0313
     1.0366   1.0450   1.0633   1.0637   1.0646   1.1508   1.1688   1.1755
     1.2310   1.2432   1.2517   1.2550   1.4111   1.4160   1.4643   1.4742
     1.4805   1.5426   1.5758   1.6155   1.6172   1.6267   1.6607   1.7184
     1.7190   1.7522   1.8375   1.8390   1.8697   1.8909   1.9461   2.0498
     2.0863   2.1002   2.1014   2.1031   2.1509   2.1852   2.2784   2.3068
     2.3130   2.4009   2.4099   2.4655   2.5145   2.7007   2.8455   3.2852
     4.0645   4.1095   5.0526   5.1785   5.2466   5.2490   5.4406   5.4731
     5.8840   6.3023   6.4489   6.4669   6.5598   6.6618   6.7299   6.7670
     7.0308   7.1057   7.1371   7.1987   7.2430   7.2543   7.2559   7.3761
     7.5874   7.6270   7.8950   7.9433   7.9727   8.1356   8.1854   8.2985
     8.3289   8.4347

          k = 0.0000 0.2618 0.0000 ( 73115 PWs)   bands (ev):

   -41.3416 -39.0067 -38.2514 -35.8796 -23.1857 -23.0438 -23.0182 -22.8953
   -22.7838 -22.6945 -22.6350 -22.5717 -21.4433 -21.3782 -21.2638 -20.0882
   -20.0452 -19.9932 -18.6906 -18.6178 -18.3682 -17.1998 -17.0897 -16.9771
   -16.2440 -15.7828 -15.5650 -15.5337 -15.1559 -15.1008 -15.0993 -14.9886
   -14.9596 -14.8478 -14.7829 -14.7726 -14.6713 -14.6213 -14.5968 -14.5065
   -14.3251 -14.2852 -14.2777 -14.2441 -14.2111 -14.1981 -14.1543 -14.1518
   -14.1118 -13.9932 -13.9437 -13.8549 -13.8155 -13.4885  -8.5551  -8.4251
    -8.2740  -8.1854  -8.1663  -8.1176  -8.0941  -8.0864  -8.0705  -8.0485
    -7.9968  -7.9895  -7.9688  -7.9232  -7.8479  -7.8155  -7.7864  -7.7640
    -7.7250  -7.7029  -7.6920  -7.6850  -7.6723  -7.6126  -3.7945  -3.3111
    -3.2017  -3.1043  -2.8695  -2.7735  -2.6942  -2.5381  -2.5157  -2.4379
    -2.4117  -2.3561  -2.3344  -2.2868  -2.2752  -2.2727  -2.2436  -2.2079
    -2.1089  -2.0936  -2.0715  -1.9642  -1.9288  -1.8565  -1.8379  -1.7382
    -1.6828  -1.6657  -1.5926  -1.5742  -1.5605  -1.5559  -1.5471  -1.5138
    -1.4770  -1.4635  -1.4573  -1.2570  -1.1956  -1.1653  -1.0974  -1.0739
    -1.0279  -1.0166  -1.0046  -0.9324  -0.9258  -0.8723  -0.8720  -0.7989
    -0.7352  -0.6813  -0.6766  -0.6746  -0.5727  -0.5465  -0.5238  -0.4969
    -0.4869  -0.4611  -0.4404  -0.4074  -0.3918  -0.3667  -0.3477  -0.3234
    -0.2653  -0.2412  -0.1927  -0.1895  -0.1742  -0.1636  -0.1253  -0.0729
    -0.0161  -0.0045   0.0120   0.0122   0.0177   0.0240   0.0823   0.1026
     0.1106   0.1126   0.1556   0.1602   0.1644   0.1847   0.1898   0.2155
     0.2288   0.2607   0.2955   0.3052   0.3322   0.3669   0.4670   0.4915
     0.5267   0.5352   0.5385   0.6133   0.6700   0.7343   0.7673   0.8231
     0.8320   0.8353   0.8916   0.9261   0.9711   0.9925   1.0149   1.0377
     1.0913   1.1404   1.1485   1.1541   1.2068   1.2272   1.2394   1.2669
     1.2880   1.2938   1.3273   1.3561   1.3815   1.3900   1.3903   1.4251
     1.4809   1.5190   1.5444   1.5985   1.6031   1.6100   1.6631   1.7254
     1.7472   1.7572   1.8159   1.8166   1.8219   1.8907   2.0206   2.0793
     2.1912   2.2045   2.2466   2.3276   2.3465   2.4873   2.6337   2.6834
     2.7475   2.7871   2.7933   2.8329   2.8385   3.0233   3.1334   3.3687
     4.0828   4.2423   5.1014   5.3014   5.4355   5.5057   5.5676   5.6195
     6.0940   6.2538   6.2897   6.5210   6.7816   6.7846   6.9394   6.9800
     7.0657   7.0909   7.1874   7.2652   7.3272   7.4172   7.5698   7.5933
     7.6156   7.7688   7.7887   8.0734   8.1388   8.2888   8.3557   8.5203
     8.5295   8.6591

          k = 0.0000 0.5236 0.0000 ( 73047 PWs)   bands (ev):

   -41.3366 -39.0034 -38.2449 -35.8755 -23.1280 -22.9975 -22.9576 -22.8485
   -22.7258 -22.6329 -22.5888 -22.5249 -21.4511 -21.3691 -21.3393 -20.0921
   -20.0398 -20.0340 -18.6084 -18.6003 -18.5909 -17.1297 -17.1169 -17.0793
   -16.1066 -15.6902 -15.5583 -15.2934 -15.1549 -15.0039 -14.9166 -14.8482
   -14.8446 -14.8309 -14.7704 -14.7543 -14.6683 -14.4853 -14.4495 -14.4140
   -14.3940 -14.3191 -14.2453 -14.1852 -14.1790 -14.1631 -14.1476 -14.1333
   -14.1306 -14.0736 -13.9847 -13.9683 -13.8122 -13.5735  -8.6325  -8.4946
    -8.4616  -8.4152  -8.3968  -8.3021  -8.2373  -8.2102  -8.1989  -8.1665
    -8.1492  -8.0696  -8.0608  -8.0446  -8.0153  -7.9785  -7.9335  -7.9316
    -7.8126  -7.8085  -7.7934  -7.7545  -7.6377  -7.6334  -4.2259  -3.7030
    -3.5327  -3.3494  -3.0051  -2.9978  -2.9254  -2.8927  -2.7906  -2.7295
    -2.7266  -2.6718  -2.6305  -2.5091  -2.4799  -2.4473  -2.4058  -2.3600
    -2.3547  -2.3259  -2.3162  -2.2733  -2.2632  -2.2529  -2.2451  -2.1872
    -2.1660  -2.1428  -1.9582  -1.8841  -1.8479  -1.8031  -1.7750  -1.7523
    -1.5669  -1.4900  -1.4033  -1.3983  -1.3656  -1.2510  -1.2128  -1.1536
    -1.1392  -1.1036  -1.0350  -1.0274  -1.0209  -1.0104  -0.9448  -0.9276
    -0.8839  -0.8742  -0.8531  -0.8295  -0.7816  -0.7395  -0.7351  -0.7123
    -0.7051  -0.6859  -0.6856  -0.6320  -0.5959  -0.5950  -0.5645  -0.5151
    -0.5034  -0.4742  -0.4431  -0.3937  -0.3509  -0.3201  -0.1166  -0.1022
    -0.0569  -0.0545   0.0305   0.0387   0.0716   0.1007   0.1354   0.1374
     0.1495   0.1622   0.2013   0.2179   0.2408   0.3663   0.4041   0.4243
     0.4599   0.5422   0.6184   0.6628   0.7471   0.7540   0.7777   0.8424
     0.8502   0.8760   0.9016   0.9107   0.9518   0.9851   0.9956   0.9971
     1.0189   1.0611   1.0817   1.0875   1.1117   1.1318   1.1625   1.1838
     1.2138   1.2180   1.2266   1.2322   1.2398   1.2769   1.2771   1.3215
     1.3691   1.4113   1.4716   1.4852   1.4988   1.5187   1.5290   1.5763
     1.6340   1.6515   1.6630   1.6716   1.6811   1.7116   1.7646   1.7814
     1.7964   1.8166   1.9059   1.9366   1.9540   1.9670   2.0077   2.0628
     2.2515   2.3022   2.3441   2.5149   2.6386   2.9068   2.9455   3.0198
     3.0999   3.2882   3.3471   3.4299   3.5860   3.6569   3.7800   4.0056
     4.1366   4.5571   4.8329   5.2382   5.6984   5.8267   5.9182   6.3390
     6.4281   6.4580   6.5111   6.5947   6.6075   6.7906   6.8796   6.9320
     7.1554   7.5585   7.6377   7.7407   7.8914   7.9727   7.9767   8.1048
     8.2199   8.2560   8.3535   8.4373   8.4707   8.5522   8.6583   8.6884
     8.8299   8.9130

          k = 0.0000 0.7854 0.0000 ( 73014 PWs)   bands (ev):

   -41.3316 -39.0001 -38.2384 -35.8714 -23.0686 -22.9500 -22.8953 -22.8005
   -22.6663 -22.5692 -22.5415 -22.4771 -21.5166 -21.3600 -21.3533 -20.1318
   -20.0377 -20.0344 -18.8173 -18.5829 -18.4849 -17.2518 -17.0689 -17.0434
   -15.9290 -15.5940 -15.5902 -15.2291 -15.0778 -14.9454 -14.8554 -14.8223
   -14.7424 -14.6847 -14.6775 -14.6715 -14.6479 -14.5149 -14.3446 -14.3326
   -14.3216 -14.2953 -14.2658 -14.2281 -14.1345 -14.1316 -14.1022 -14.0758
   -14.0734 -14.0669 -14.0455 -14.0018 -13.8370 -13.6918  -8.9850  -8.8566
    -8.6975  -8.5971  -8.5909  -8.5638  -8.5478  -8.3716  -8.3080  -8.2855
    -8.2802  -8.2409  -8.1720  -8.1299  -8.0910  -7.9167  -7.9084  -7.8775
    -7.8482  -7.8189  -7.8105  -7.7672  -7.5273  -7.5096  -4.6929  -4.1874
    -3.8164  -3.7529  -3.4237  -3.3880  -3.2986  -3.2660  -3.1524  -3.0674
    -3.0355  -3.0219  -3.0213  -2.9562  -2.8997  -2.8743  -2.7762  -2.6072
    -2.5109  -2.4836  -2.4791  -2.3971  -2.3700  -2.3570  -2.3029  -2.2979
    -2.2976  -2.2096  -2.0477  -1.9821  -1.8520  -1.8473  -1.8238  -1.7924
    -1.7086  -1.6643  -1.6403  -1.6389  -1.5835  -1.3608  -1.3588  -1.3239
    -1.2702  -1.1857  -1.1836  -1.1565  -1.1351  -1.1329  -1.0949  -1.0714
    -1.0508  -1.0324  -0.9965  -0.9608  -0.9606  -0.9572  -0.9428  -0.9036
    -0.8829  -0.8679  -0.8579  -0.8339  -0.7940  -0.7805  -0.7639  -0.7191
    -0.7170  -0.7016  -0.5016  -0.3756  -0.3491  -0.3022  -0.2972  -0.1540
    -0.1047   0.0269   0.0561   0.1205   0.1298   0.1571   0.1758   0.1932
     0.2159   0.3402   0.3596   0.3647   0.4245   0.5032   0.6127   0.6236
     0.6933   0.6988   0.8204   0.8374   0.8514   0.8778   0.9056   0.9449
     0.9756   1.0104   1.0332   1.0381   1.0924   1.1270   1.1646   1.1854
     1.2003   1.2060   1.2201   1.2504   1.2943   1.2971   1.3378   1.3745
     1.4040   1.4520   1.4655   1.4676   1.4914   1.4987   1.5134   1.5705
     1.5924   1.5942   1.5997   1.6368   1.6560   1.6601   1.6855   1.7361
     1.7657   1.7834   1.8056   1.8144   1.8672   1.8793   1.8857   2.0425
     2.0746   2.0835   2.0869   2.0988   2.1071   2.1545   2.2634   2.2821
     2.2990   2.3103   2.3666   2.7545   2.8064   2.8575   2.8737   2.9419
     3.0415   3.3700   3.7709   3.9214   3.9573   4.2968   4.3028   4.3676
     4.6129   4.6579   4.8096   5.1395   5.4459   5.6317   5.9274   6.0660
     6.1313   6.5811   6.8301   6.9441   7.1474   7.2696   7.3708   7.3912
     7.6572   7.7795   7.8473   8.1405   8.2253   8.2937   8.4116   8.5381
     8.6045   8.6287   8.6494   8.6903   8.7828   8.8799   8.9180   8.9840
     9.0346   9.0660

          k = 0.0000-1.0472 0.0000 ( 73146 PWs)   bands (ev):

   -41.3295 -38.9988 -38.2357 -35.8697 -23.0436 -22.9300 -22.8689 -22.7803
   -22.6411 -22.5422 -22.5215 -22.4570 -21.5532 -21.3563 -21.3485 -20.1533
   -20.0338 -20.0322 -18.8979 -18.5757 -18.4376 -17.3022 -17.0646 -17.0077
   -15.8090 -15.6510 -15.5530 -15.2635 -15.0848 -14.9028 -14.8826 -14.8039
   -14.7190 -14.6572 -14.5973 -14.5691 -14.5273 -14.4860 -14.4444 -14.3594
   -14.3390 -14.2855 -14.2150 -14.1631 -14.1030 -14.1014 -14.0903 -14.0844
   -14.0572 -14.0226 -14.0135 -13.9850 -13.9375 -13.7403  -9.1380  -9.0099
    -8.8146  -8.7398  -8.7158  -8.7007  -8.5798  -8.4256  -8.3848  -8.3532
    -8.3169  -8.2465  -8.1658  -8.1575  -8.1011  -7.9261  -7.8863  -7.8627
    -7.8562  -7.8488  -7.7578  -7.7549  -7.4789  -7.4555  -4.8813  -4.3896
    -3.9393  -3.9312  -3.6128  -3.5589  -3.4964  -3.4756  -3.2996  -3.2543
    -3.2476  -3.1863  -3.1705  -3.1311  -3.0689  -3.0349  -2.8049  -2.6361
    -2.6299  -2.5219  -2.4071  -2.3923  -2.3729  -2.3662  -2.3221  -2.2901
    -2.2111  -2.1996  -2.1098  -2.0704  -2.0640  -1.8930  -1.8885  -1.8215
    -1.7794  -1.7515  -1.7380  -1.6190  -1.4874  -1.4584  -1.4286  -1.3642
    -1.2977  -1.2960  -1.2367  -1.2243  -1.2202  -1.2140  -1.1898  -1.1894
    -1.0671  -1.0659  -1.0599  -1.0581  -1.0415  -1.0286  -0.9956  -0.9744
    -0.9714  -0.9686  -0.9399  -0.9049  -0.8941  -0.8530  -0.8041  -0.7385
    -0.7085  -0.6459  -0.5337  -0.3971  -0.3588  -0.3368  -0.2780  -0.2309
    -0.1650   0.0461   0.0672   0.1130   0.1200   0.1633   0.1840   0.1995
     0.2526   0.4087   0.4269   0.4376   0.4651   0.6140   0.7066   0.7313
     0.7375   0.7418   0.8410   0.8508   0.8561   0.8735   0.8933   1.0426
     1.0598   1.0808   1.1124   1.1240   1.1791   1.1851   1.1943   1.2032
     1.2372   1.2398   1.2615   1.2642   1.2696   1.3486   1.3512   1.4036
     1.4680   1.4719   1.5526   1.5614   1.5867   1.5974   1.6162   1.6387
     1.6718   1.6718   1.7498   1.7573   1.7578   1.7976   1.8271   1.8293
     1.9582   1.9591   2.0066   2.0211   2.0300   2.0322   2.0594   2.0704
     2.1213   2.1600   2.1740   2.1876   2.2121   2.2601   2.2892   2.3320
     2.3415   2.4736   2.5225   2.5227   2.6495   2.6888   2.8724   2.9572
     3.0720   3.3542   3.8213   4.0528   4.1579   4.5097   4.5170   4.5616
     4.5784   4.6772   4.8466   5.1888   5.3368   5.5251   5.6879   5.8458
     6.2609   6.4689   6.9686   7.1521   7.3608   7.4981   7.6664   7.7483
     7.8126   7.8429   8.0697   8.0896   8.2328   8.2372   8.4441   8.4867
     8.6256   8.6720   8.7932   8.8492   8.8738   8.9779   9.0407   9.0482
     9.0862   9.2486

          k = 0.1250 0.0000 0.0000 ( 73173 PWs)   bands (ev):

   -41.3437 -39.0080 -38.2541 -35.8813 -23.2058 -23.0663 -23.0383 -22.9192
   -22.8041 -22.7149 -22.6574 -22.5959 -21.4486 -21.3812 -21.2229 -20.0919
   -20.0487 -19.9706 -18.7285 -18.6219 -18.2573 -17.2323 -17.1061 -16.9110
   -16.2858 -15.8458 -15.6124 -15.5542 -15.1997 -15.1590 -15.0832 -15.0291
   -15.0081 -14.8787 -14.8018 -14.7973 -14.7549 -14.6880 -14.6226 -14.5110
   -14.3503 -14.3247 -14.2666 -14.2240 -14.2141 -14.2082 -14.1472 -14.1351
   -14.1211 -13.9556 -13.9342 -13.8015 -13.7992 -13.4643  -8.5480  -8.4400
    -8.2830  -8.1770  -8.1727  -8.0784  -8.0729  -8.0680  -8.0028  -7.9848
    -7.9457  -7.8702  -7.8642  -7.8546  -7.8102  -7.7844  -7.7786  -7.7254
    -7.6751  -7.6408  -7.6156  -7.5716  -7.4679  -7.4163  -3.6406  -3.1761
    -3.0134  -3.0098  -2.9033  -2.7062  -2.5792  -2.4825  -2.3994  -2.3958
    -2.3569  -2.3305  -2.2655  -2.2651  -2.2482  -2.1343  -2.0831  -2.0621
    -2.0413  -1.9003  -1.8989  -1.7867  -1.7560  -1.7360  -1.7265  -1.6729
    -1.5992  -1.5563  -1.4083  -1.3618  -1.3487  -1.3157  -1.2762  -1.2381
    -1.1597  -1.1451  -1.1441  -1.1416  -1.1333  -1.1231  -1.1174  -1.1030
    -1.0942  -1.0789  -1.0084  -0.9488  -0.9002  -0.8435  -0.8376  -0.8095
    -0.7545  -0.7440  -0.6057  -0.5442  -0.5328  -0.5293  -0.4901  -0.4199
    -0.4109  -0.3804  -0.3767  -0.3678  -0.3285  -0.2868  -0.2813  -0.2582
    -0.1965  -0.1899  -0.1781  -0.1673  -0.1590  -0.1396  -0.1377  -0.1367
    -0.1117  -0.1090  -0.0487   0.0031   0.0452   0.0458   0.0492   0.0797
     0.0807   0.0830   0.0859   0.1161   0.1462   0.1949   0.2154   0.2258
     0.2778   0.2971   0.3036   0.3259   0.3396   0.3531   0.3858   0.4014
     0.4294   0.4639   0.4940   0.5327   0.5498   0.5635   0.6856   0.7393
     0.7779   0.8129   0.8665   0.8805   0.8966   0.9171   0.9660   0.9886
     1.0101   1.0535   1.0651   1.0896   1.1040   1.1349   1.1677   1.2261
     1.2536   1.2588   1.2661   1.2733   1.3648   1.4056   1.4694   1.4857
     1.5470   1.5586   1.5704   1.6096   1.6281   1.6424   1.6788   1.7009
     1.7142   1.7195   1.8324   1.8492   1.8525   1.8776   1.9481   2.0338
     2.0608   2.0765   2.0850   2.1157   2.1822   2.2024   2.2770   2.3099
     2.3114   2.4041   2.4181   2.4640   2.5328   2.6948   2.8469   3.2117
     4.1214   4.1521   5.1027   5.2191   5.2427   5.2526   5.4292   5.5105
     5.9213   6.2973   6.4249   6.5202   6.5760   6.6017   6.7398   6.7891
     6.8203   6.8294   7.0758   7.1377   7.2473   7.3792   7.5603   7.5988
     7.6550   7.6717   7.8739   7.9694   7.9739   8.1685   8.2182   8.3299
     8.3564   8.4528

          k = 0.1250 0.2618 0.0000 ( 73095 PWs)   bands (ev):

   -41.3416 -39.0067 -38.2514 -35.8796 -23.1825 -23.0472 -23.0139 -22.8998
   -22.7807 -22.6901 -22.6384 -22.5765 -21.4433 -21.3775 -21.2638 -20.0881
   -20.0465 -19.9932 -18.6899 -18.6146 -18.3682 -17.2026 -17.1011 -16.9770
   -16.2348 -15.8076 -15.5477 -15.5070 -15.1429 -15.1033 -15.0899 -14.9766
   -14.9634 -14.8411 -14.7889 -14.7706 -14.6810 -14.6754 -14.5977 -14.4679
   -14.3207 -14.3065 -14.2804 -14.2350 -14.2116 -14.1999 -14.1578 -14.1513
   -14.1164 -14.0037 -13.9439 -13.8583 -13.7987 -13.4932  -8.5565  -8.4286
    -8.2760  -8.2135  -8.1913  -8.1670  -8.1045  -8.0844  -8.0466  -8.0317
    -8.0221  -7.9753  -7.9337  -7.8767  -7.8591  -7.8302  -7.8225  -7.8006
    -7.7722  -7.7222  -7.6505  -7.6280  -7.6279  -7.5738  -3.7690  -3.2751
    -3.2127  -3.0690  -2.8767  -2.7369  -2.7218  -2.5318  -2.5157  -2.4376
    -2.4035  -2.3599  -2.3311  -2.2934  -2.2824  -2.2594  -2.2128  -2.2084
    -2.1239  -2.0938  -2.0706  -1.9615  -1.9553  -1.9216  -1.8305  -1.7355
    -1.6690  -1.6671  -1.5883  -1.5629  -1.5623  -1.5461  -1.5419  -1.5151
    -1.5107  -1.4517  -1.3870  -1.2684  -1.1972  -1.1739  -1.1267  -1.1056
    -1.0706  -1.0150  -0.9914  -0.9304  -0.9023  -0.8925  -0.8418  -0.8402
    -0.8051  -0.7611  -0.7307  -0.6703  -0.6020  -0.5444  -0.5338  -0.5085
    -0.4720  -0.4712  -0.4528  -0.3915  -0.3799  -0.3427  -0.3286  -0.3098
    -0.2538  -0.2366  -0.1970  -0.1833  -0.1711  -0.1659  -0.1174  -0.0969
    -0.0135  -0.0092  -0.0054   0.0009   0.0062   0.0324   0.0794   0.0820
     0.1230   0.1279   0.1445   0.1615   0.1675   0.1749   0.1851   0.2136
     0.2266   0.2667   0.3026   0.3080   0.3198   0.3686   0.4348   0.4712
     0.5147   0.5338   0.6160   0.6265   0.6866   0.7593   0.7664   0.7948
     0.8480   0.8700   0.9080   0.9194   0.9443   0.9841   1.0106   1.0590
     1.0815   1.1123   1.1202   1.1243   1.2125   1.2256   1.2353   1.2418
     1.3007   1.3129   1.3251   1.3630   1.3827   1.3927   1.4246   1.4430
     1.5178   1.5362   1.5422   1.6031   1.6051   1.6121   1.6357   1.6980
     1.7233   1.7578   1.8120   1.8328   1.9230   1.9780   1.9982   2.0292
     2.1051   2.2508   2.2997   2.3052   2.4446   2.4778   2.6301   2.6873
     2.7515   2.7870   2.7954   2.8329   2.8379   3.0151   3.1247   3.3067
     4.1570   4.2614   5.1008   5.3001   5.4732   5.5024   5.5872   5.6454
     6.1275   6.2441   6.2892   6.5288   6.7299   6.7735   6.8361   6.8905
     7.0089   7.1281   7.1986   7.2512   7.3521   7.4692   7.5952   7.7193
     7.7603   7.8139   7.8505   8.0868   8.1522   8.3202   8.3861   8.5097
     8.5655   8.6649

          k = 0.1250 0.5236 0.0000 ( 73044 PWs)   bands (ev):

   -41.3366 -39.0034 -38.2449 -35.8755 -23.1252 -23.0005 -22.9539 -22.8524
   -22.7231 -22.6289 -22.5917 -22.5291 -21.4512 -21.3684 -21.3393 -20.0920
   -20.0411 -20.0339 -18.6084 -18.5972 -18.5903 -17.1314 -17.1178 -17.0893
   -16.0988 -15.7120 -15.5448 -15.2690 -15.1531 -14.9963 -14.9134 -14.8468
   -14.8402 -14.8326 -14.7709 -14.7488 -14.6683 -14.5063 -14.4775 -14.4281
   -14.3515 -14.3203 -14.2439 -14.1963 -14.1837 -14.1621 -14.1493 -14.1331
   -14.1285 -14.0765 -13.9896 -13.9665 -13.8029 -13.5758  -8.6471  -8.5133
    -8.4954  -8.3967  -8.3568  -8.2723  -8.2569  -8.2253  -8.2221  -8.1890
    -8.1730  -8.1290  -8.0691  -7.9996  -7.9501  -7.9461  -7.9299  -7.8797
    -7.8677  -7.8492  -7.8022  -7.7866  -7.6001  -7.5799  -4.1950  -3.6674
    -3.5474  -3.3124  -3.0146  -2.9982  -2.8898  -2.8897  -2.7876  -2.7311
    -2.7125  -2.6918  -2.6254  -2.5110  -2.4774  -2.4483  -2.4054  -2.3626
    -2.3501  -2.3205  -2.3129  -2.2639  -2.2631  -2.2519  -2.2423  -2.1860
    -2.1654  -2.1099  -1.9982  -1.8733  -1.8504  -1.8292  -1.7972  -1.7465
    -1.5701  -1.5211  -1.4084  -1.3753  -1.3528  -1.3235  -1.2712  -1.1700
    -1.1425  -1.1081  -1.0997  -1.0595  -1.0269  -0.9987  -0.9872  -0.9353
    -0.8847  -0.8783  -0.8533  -0.8312  -0.7937  -0.7777  -0.7667  -0.7023
    -0.6986  -0.6792  -0.6306  -0.6179  -0.6029  -0.5961  -0.5610  -0.5271
    -0.5083  -0.4839  -0.4372  -0.4305  -0.3403  -0.3130  -0.1366  -0.0747
    -0.0619  -0.0535  -0.0130   0.0574   0.0616   0.0839   0.1200   0.1384
     0.1446   0.1595   0.2166   0.2490   0.2636   0.3600   0.3901   0.4166
     0.5033   0.5474   0.6140   0.6753   0.7001   0.7087   0.7590   0.8362
     0.8572   0.8595   0.9171   0.9297   0.9585   0.9792   0.9872   1.0136
     1.0349   1.0708   1.0720   1.1111   1.1126   1.1277   1.1510   1.1586
     1.1922   1.2018   1.2378   1.2682   1.2879   1.3016   1.3083   1.3095
     1.3874   1.4041   1.4469   1.4736   1.4955   1.5221   1.5322   1.5713
     1.6141   1.6573   1.6596   1.6865   1.6941   1.7298   1.7439   1.8008
     1.8627   1.8966   1.9447   1.9477   1.9553   1.9877   2.0223   2.1015
     2.1527   2.4000   2.4439   2.5258   2.6616   2.9079   2.9466   3.0225
     3.1039   3.2700   3.3128   3.4315   3.5455   3.6248   3.7510   3.9750
     4.2042   4.5689   4.8374   5.2425   5.7008   5.8211   5.9041   6.3545
     6.4443   6.4657   6.5166   6.5974   6.6148   6.8093   6.8467   6.9551
     7.1502   7.4000   7.6869   7.7934   7.9329   8.0155   8.0885   8.1730
     8.2434   8.2471   8.3522   8.3801   8.4578   8.5729   8.6711   8.7122
     8.8040   8.9212

          k = 0.1250 0.7854 0.0000 ( 73046 PWs)   bands (ev):

   -41.3316 -39.0001 -38.2384 -35.8714 -23.0663 -22.9525 -22.8921 -22.8038
   -22.6640 -22.5658 -22.5439 -22.4806 -21.5166 -21.3593 -21.3533 -20.1318
   -20.0380 -20.0353 -18.8173 -18.5799 -18.4844 -17.2518 -17.0782 -17.0455
   -15.9235 -15.6135 -15.5760 -15.2287 -15.0620 -14.9286 -14.8485 -14.8225
   -14.7375 -14.6847 -14.6841 -14.6710 -14.6485 -14.5150 -14.3592 -14.3475
   -14.3305 -14.2893 -14.2591 -14.2200 -14.1384 -14.1333 -14.1031 -14.0812
   -14.0730 -14.0660 -14.0473 -14.0054 -13.8357 -13.6918  -8.9729  -8.8469
    -8.6639  -8.5787  -8.5571  -8.5549  -8.5393  -8.3747  -8.3224  -8.2644
    -8.2473  -8.2397  -8.1770  -8.1728  -8.0920  -7.9523  -7.9191  -7.8898
    -7.8836  -7.8292  -7.8254  -7.7694  -7.5441  -7.5246  -4.6568  -4.1506
    -3.8368  -3.7182  -3.4332  -3.3897  -3.2704  -3.2683  -3.1610  -3.0512
    -3.0231  -3.0208  -3.0194  -2.9587  -2.9010  -2.8765  -2.7624  -2.5961
    -2.5377  -2.4817  -2.4673  -2.3919  -2.3716  -2.3602  -2.3018  -2.2974
    -2.2679  -2.2028  -2.0414  -1.9635  -1.8896  -1.8767  -1.8237  -1.7986
    -1.7534  -1.7221  -1.6446  -1.6223  -1.6019  -1.3900  -1.3619  -1.3022
    -1.2605  -1.2240  -1.1857  -1.1638  -1.1576  -1.1363  -1.1133  -1.0982
    -1.0913  -1.0585  -0.9975  -0.9784  -0.9408  -0.9337  -0.9017  -0.8986
    -0.8770  -0.8710  -0.8536  -0.8205  -0.8034  -0.7827  -0.7674  -0.7199
    -0.6905  -0.6835  -0.6252  -0.3855  -0.3351  -0.3091  -0.2894  -0.1002
    -0.0445   0.0129   0.0226   0.0900   0.0998   0.1549   0.1879   0.1987
     0.2830   0.3331   0.3444   0.4088   0.4169   0.4974   0.5563   0.5927
     0.7088   0.7272   0.7988   0.8303   0.8401   0.9064   0.9378   0.9591
     0.9614   0.9904   1.0258   1.0290   1.0818   1.1143   1.1298   1.1546
     1.1979   1.2354   1.2399   1.2546   1.2791   1.3244   1.3483   1.3744
     1.3808   1.3901   1.4477   1.4865   1.5059   1.5378   1.5471   1.5848
     1.5981   1.6168   1.6269   1.6559   1.6572   1.6771   1.7128   1.7548
     1.7813   1.7997   1.8028   1.8277   1.8761   1.8762   1.9605   1.9950
     2.0738   2.0855   2.0938   2.0953   2.1604   2.1640   2.2394   2.3015
     2.3348   2.3470   2.4420   2.7564   2.7764   2.8626   2.8792   2.9506
     3.0546   3.3633   3.7677   3.8793   3.9133   4.2385   4.3092   4.3417
     4.5673   4.6578   4.8284   5.1362   5.4816   5.6046   5.9826   6.0853
     6.1512   6.6087   6.7975   6.9445   7.1178   7.2364   7.3539   7.3608
     7.6011   7.6513   7.8131   8.1785   8.2460   8.3814   8.4366   8.5635
     8.6266   8.6413   8.6700   8.7191   8.8137   8.9051   8.9444   9.0020
     9.0439   9.0878

          k = 0.1250-1.0472 0.0000 ( 73102 PWs)   bands (ev):

   -41.3295 -38.9988 -38.2357 -35.8697 -23.0415 -22.9323 -22.8659 -22.7833
   -22.6391 -22.5391 -22.5237 -22.4602 -21.5532 -21.3556 -21.3485 -20.1533
   -20.0345 -20.0326 -18.8979 -18.5727 -18.4371 -17.3022 -17.0737 -17.0097
   -15.8062 -15.6472 -15.5560 -15.2670 -15.0735 -14.8924 -14.8588 -14.8022
   -14.7061 -14.6787 -14.6105 -14.5620 -14.5276 -14.4855 -14.4375 -14.3522
   -14.3502 -14.3030 -14.2275 -14.1674 -14.1025 -14.0992 -14.0877 -14.0854
   -14.0558 -14.0236 -14.0162 -13.9890 -13.9328 -13.7439  -9.1083  -8.9796
    -8.7849  -8.7106  -8.6853  -8.6709  -8.5779  -8.3947  -8.3734  -8.3491
    -8.3379  -8.2428  -8.1925  -8.1687  -8.1022  -7.9584  -7.9175  -7.8914
    -7.8716  -7.8460  -7.8016  -7.7575  -7.5184  -7.4998  -4.8433  -4.3517
    -3.9541  -3.9049  -3.6137  -3.5713  -3.4778  -3.4697  -3.3102  -3.2525
    -3.2460  -3.1890  -3.1510  -3.1327  -3.0735  -3.0250  -2.7881  -2.6155
    -2.6102  -2.5016  -2.4227  -2.3947  -2.3713  -2.3592  -2.3224  -2.2910
    -2.2520  -2.1940  -2.1552  -2.1051  -2.0361  -1.8958  -1.8806  -1.7916
    -1.7473  -1.7399  -1.7293  -1.6386  -1.5964  -1.5221  -1.4393  -1.3631
    -1.3323  -1.2940  -1.2632  -1.2311  -1.2222  -1.2159  -1.1951  -1.1900
    -1.0995  -1.0835  -1.0458  -1.0357  -1.0347  -0.9936  -0.9772  -0.9613
    -0.9605  -0.9479  -0.9469  -0.8951  -0.8881  -0.8580  -0.8078  -0.7434
    -0.6981  -0.6821  -0.6204  -0.3685  -0.3519  -0.3360  -0.2892  -0.1407
    -0.1185   0.0179   0.0424   0.0917   0.0924   0.1416   0.1917   0.2373
     0.3071   0.4260   0.4346   0.4445   0.4770   0.5753   0.5994   0.6907
     0.7575   0.7905   0.8531   0.8634   0.8715   0.8820   0.8866   1.0485
     1.0499   1.0518   1.1139   1.1177   1.1239   1.1247   1.1842   1.2158
     1.2307   1.2536   1.2674   1.2730   1.3004   1.3438   1.4011   1.4374
     1.4690   1.4752   1.5345   1.5619   1.6011   1.6102   1.6122   1.6803
     1.6822   1.7297   1.7472   1.7546   1.7918   1.8088   1.8250   1.8592
     1.9396   2.0092   2.0117   2.0343   2.0419   2.0608   2.0651   2.1125
     2.1158   2.1330   2.1637   2.1873   2.2461   2.2561   2.2959   2.3386
     2.3515   2.4663   2.5164   2.5268   2.6616   2.6996   2.8850   2.9280
     3.0804   3.3574   3.8184   4.0262   4.1013   4.4308   4.5045   4.5174
     4.5952   4.7073   4.7755   5.1777   5.3755   5.4996   5.7560   5.9139
     6.2431   6.4993   6.9277   7.1678   7.2560   7.4619   7.5740   7.7245
     7.7411   7.8481   8.0562   8.0616   8.0672   8.1627   8.5459   8.6014
     8.6836   8.7331   8.8648   8.9138   8.9490   8.9749   9.0595   9.1118
     9.1241   9.2225

          k = 0.2500 0.0000 0.0000 ( 73081 PWs)   bands (ev):

   -41.3437 -39.0080 -38.2541 -35.8813 -23.1968 -23.0759 -23.0256 -22.9326
   -22.7954 -22.7015 -22.6668 -22.6100 -21.4487 -21.3794 -21.2229 -20.0917
   -20.0519 -19.9706 -18.7268 -18.6140 -18.2573 -17.2394 -17.1344 -16.9111
   -16.2593 -15.9026 -15.5386 -15.5176 -15.1634 -15.1396 -15.0830 -15.0200
   -14.9884 -14.8756 -14.8562 -14.7997 -14.7939 -14.7071 -14.6315 -14.4643
   -14.4086 -14.3109 -14.2383 -14.2293 -14.2191 -14.2066 -14.1515 -14.1435
   -14.1319 -13.9918 -13.9359 -13.8166 -13.7550 -13.4794  -8.5530  -8.4514
    -8.2878  -8.1842  -8.1484  -8.0832  -8.0469  -8.0453  -8.0160  -7.9927
    -7.9221  -7.8932  -7.8833  -7.8655  -7.8175  -7.7516  -7.7505  -7.7441
    -7.6537  -7.6216  -7.6158  -7.5866  -7.4914  -7.4441  -3.5785  -3.0754
    -3.0006  -2.9871  -2.9155  -2.6095  -2.5420  -2.5393  -2.4197  -2.4113
    -2.3698  -2.3586  -2.2757  -2.2560  -2.2205  -2.1916  -2.1294  -2.0577
    -2.0556  -1.9365  -1.9173  -1.7841  -1.7290  -1.6938  -1.6808  -1.6683
    -1.6412  -1.4775  -1.4030  -1.3806  -1.3567  -1.2762  -1.2347  -1.2091
    -1.1958  -1.1754  -1.1655  -1.1425  -1.1413  -1.1383  -1.1008  -1.0937
    -1.0790  -1.0451  -0.9932  -0.9241  -0.8668  -0.8411  -0.8156  -0.8011
    -0.7743  -0.7614  -0.7003  -0.6229  -0.6195  -0.5406  -0.5234  -0.4907
    -0.4401  -0.4277  -0.4127  -0.3593  -0.3462  -0.3386  -0.3357  -0.3085
    -0.2778  -0.2081  -0.1874  -0.1663  -0.1586  -0.1509  -0.1448  -0.1225
    -0.1146  -0.0404  -0.0125   0.0087   0.0210   0.0516   0.0702   0.0751
     0.0847   0.0922   0.1030   0.1113   0.1388   0.2119   0.2269   0.2925
     0.2963   0.3002   0.3030   0.3126   0.3360   0.3414   0.3954   0.4351
     0.4813   0.4844   0.5128   0.5142   0.5454   0.6346   0.6868   0.7028
     0.7433   0.7912   0.8282   0.8388   0.8618   0.8883   0.9196   0.9582
     1.0081   1.0292   1.0784   1.1157   1.1388   1.1524   1.2050   1.2162
     1.2699   1.2839   1.3128   1.3650   1.3848   1.3999   1.4321   1.5178
     1.5236   1.5363   1.5887   1.6264   1.6322   1.6336   1.6521   1.7031
     1.7148   1.7213   1.8061   1.8295   1.8421   1.9119   1.9234   1.9732
     2.0371   2.0382   2.0713   2.1585   2.2185   2.2736   2.2772   2.3028
     2.3252   2.4139   2.4401   2.4598   2.5830   2.6724   2.8410   3.0525
     4.1545   4.3447   5.1945   5.2434   5.2613   5.3279   5.4005   5.6288
     6.0307   6.2947   6.3550   6.3811   6.4386   6.5420   6.6011   6.6847
     6.9380   6.9761   7.0320   7.1391   7.2534   7.3722   7.6334   7.7219
     7.8135   7.9206   7.9638   7.9768   8.0815   8.1912   8.2571   8.3125
     8.3689   8.5442

          k = 0.2500 0.2618 0.0000 ( 73072 PWs)   bands (ev):

   -41.3416 -39.0067 -38.2514 -35.8796 -23.1740 -23.0563 -23.0019 -22.9126
   -22.7725 -22.6773 -22.6472 -22.5900 -21.4434 -21.3757 -21.2638 -20.0879
   -20.0496 -19.9932 -18.6882 -18.6069 -18.3682 -17.2094 -17.1282 -16.9768
   -16.2095 -15.8621 -15.5144 -15.4349 -15.1117 -15.1016 -15.0720 -14.9749
   -14.9432 -14.8289 -14.8150 -14.7728 -14.7669 -14.6900 -14.5922 -14.4219
   -14.3617 -14.3097 -14.2857 -14.2157 -14.2097 -14.2040 -14.1638 -14.1497
   -14.1251 -14.0314 -13.9482 -13.8652 -13.7610 -13.5058  -8.5601  -8.4405
    -8.2824  -8.2636  -8.2210  -8.2115  -8.1581  -8.0947  -8.0767  -8.0047
    -7.9768  -7.9638  -7.8955  -7.8780  -7.8616  -7.8589  -7.8179  -7.8165
    -7.8118  -7.7475  -7.5894  -7.5666  -7.5559  -7.5177  -3.6982  -3.2505
    -3.1711  -2.9692  -2.8901  -2.7728  -2.6368  -2.5642  -2.5066  -2.4350
    -2.3839  -2.3656  -2.3304  -2.3074  -2.3024  -2.2232  -2.2160  -2.1720
    -2.1181  -2.0867  -2.0678  -2.0593  -2.0120  -1.9454  -1.8235  -1.7286
    -1.6820  -1.6334  -1.5824  -1.5780  -1.5656  -1.5440  -1.5207  -1.5186
    -1.4623  -1.3761  -1.3577  -1.3166  -1.2897  -1.1950  -1.1796  -1.1509
    -1.1202  -1.0718  -1.0288  -0.9407  -0.9363  -0.9077  -0.8584  -0.8406
    -0.8387  -0.7680  -0.7627  -0.7197  -0.6723  -0.6103  -0.5481  -0.5234
    -0.4744  -0.4722  -0.4599  -0.4585  -0.3577  -0.3294  -0.3038  -0.2753
    -0.2384  -0.2246  -0.2144  -0.1925  -0.1868  -0.1594  -0.1518  -0.0774
    -0.0683  -0.0348  -0.0185   0.0018   0.0119   0.0258   0.0678   0.0811
     0.1230   0.1500   0.1554   0.1577   0.1711   0.2003   0.2026   0.2212
     0.2353   0.2785   0.3040   0.3189   0.3630   0.3706   0.4162   0.4303
     0.4673   0.5376   0.5961   0.7061   0.7329   0.7699   0.7788   0.8531
     0.8586   0.8905   0.9210   0.9359   0.9606   0.9721   0.9851   1.0135
     1.0468   1.0684   1.0803   1.1107   1.1638   1.2237   1.2325   1.2525
     1.2718   1.3383   1.3537   1.3589   1.4222   1.4430   1.4773   1.4957
     1.5068   1.5085   1.5484   1.5659   1.5835   1.6139   1.6312   1.6933
     1.7546   1.7630   1.8012   1.9071   1.9148   2.0060   2.0243   2.0588
     2.1540   2.2329   2.3413   2.3746   2.4559   2.6165   2.6287   2.6981
     2.7626   2.7805   2.8037   2.8297   2.8367   2.9841   3.0652   3.2048
     4.2431   4.3872   5.0892   5.2716   5.4710   5.5816   5.6792   5.7210
     6.2100   6.2272   6.3120   6.4908   6.5434   6.5900   6.6605   6.9944
     7.0403   7.1051   7.2773   7.3052   7.3250   7.5316   7.6975   7.8866
     7.9106   7.9750   8.0233   8.1127   8.2481   8.3825   8.4386   8.4824
     8.5500   8.6969

          k = 0.2500 0.5236 0.0000 ( 73026 PWs)   bands (ev):

   -41.3366 -39.0034 -38.2449 -35.8755 -23.1178 -23.0083 -22.9434 -22.8634
   -22.7161 -22.6177 -22.5992 -22.5409 -21.4512 -21.3666 -21.3394 -20.0919
   -20.0442 -20.0338 -18.6083 -18.5897 -18.5889 -17.1361 -17.1201 -17.1126
   -16.0774 -15.7577 -15.5212 -15.2027 -15.1488 -14.9795 -14.9044 -14.8471
   -14.8344 -14.8284 -14.7735 -14.7345 -14.6685 -14.6015 -14.4541 -14.4368
   -14.3332 -14.3219 -14.2411 -14.2314 -14.1796 -14.1598 -14.1539 -14.1329
   -14.1229 -14.0837 -14.0001 -13.9641 -13.7822 -13.5816  -8.6653  -8.5308
    -8.5259  -8.3970  -8.3881  -8.2777  -8.2708  -8.2405  -8.2275  -8.2245
    -8.1779  -8.0969  -8.0754  -8.0010  -7.9753  -7.9509  -7.9226  -7.8452
    -7.8395  -7.8324  -7.8011  -7.7725  -7.5623  -7.5321  -4.1085  -3.5954
    -3.5668  -3.2106  -3.0484  -2.9988  -2.8863  -2.7954  -2.7952  -2.7567
    -2.7261  -2.6354  -2.6084  -2.5183  -2.4670  -2.4527  -2.4034  -2.3645
    -2.3454  -2.3108  -2.3011  -2.2712  -2.2487  -2.2348  -2.2283  -2.1815
    -2.1581  -2.0937  -2.0251  -2.0069  -1.8603  -1.7886  -1.7795  -1.7304
    -1.6348  -1.5796  -1.5439  -1.4398  -1.3564  -1.3164  -1.2568  -1.2504
    -1.2231  -1.1635  -1.1020  -1.0943  -1.0840  -1.0688  -1.0313  -0.9931
    -0.9593  -0.9122  -0.8685  -0.8330  -0.8033  -0.7752  -0.7566  -0.7259
    -0.6802  -0.6609  -0.6365  -0.6089  -0.5844  -0.5730  -0.5688  -0.5282
    -0.5216  -0.4860  -0.4306  -0.4270  -0.3124  -0.2964  -0.2068  -0.1163
    -0.0935  -0.0571  -0.0372  -0.0014   0.0305   0.0762   0.0941   0.1796
     0.1853   0.2319   0.2478   0.3214   0.3287   0.3562   0.3652   0.4015
     0.5500   0.5964   0.6067   0.6301   0.6563   0.7081   0.7096   0.7957
     0.8215   0.8893   0.9003   0.9183   0.9273   0.9497   0.9683   0.9774
     1.0382   1.0478   1.0574   1.0788   1.1073   1.1457   1.2028   1.2298
     1.2404   1.2528   1.2691   1.2919   1.3090   1.3247   1.3656   1.3667
     1.3905   1.3985   1.4264   1.4388   1.4968   1.5340   1.5351   1.5571
     1.5749   1.5916   1.6718   1.6916   1.7242   1.7972   1.8019   1.8723
     1.9076   1.9182   1.9295   1.9372   1.9739   2.0342   2.0695   2.1875
     2.3688   2.3708   2.6065   2.6683   2.8120   2.9107   2.9526   3.0287
     3.1261   3.1966   3.2189   3.4340   3.4831   3.5269   3.6604   3.8844
     4.3391   4.6044   4.8470   5.2367   5.6852   5.8417   5.8729   6.3951
     6.4834   6.4879   6.5244   6.6039   6.6281   6.7870   6.8661   7.0106
     7.1186   7.1879   7.8230   7.9167   8.0216   8.0494   8.1430   8.1957
     8.2482   8.3308   8.3361   8.4519   8.5100   8.6106   8.6829   8.7563
     8.7935   8.9420

          k = 0.2500 0.7854 0.0000 ( 73086 PWs)   bands (ev):

   -41.3316 -39.0001 -38.2384 -35.8714 -23.0602 -22.9590 -22.8832 -22.8130
   -22.6582 -22.5563 -22.5500 -22.4906 -21.5166 -21.3577 -21.3533 -20.1318
   -20.0394 -20.0366 -18.8172 -18.5725 -18.4831 -17.2517 -17.1006 -17.0507
   -15.9090 -15.6388 -15.5649 -15.2276 -15.0222 -14.8784 -14.8341 -14.8291
   -14.7222 -14.7029 -14.6802 -14.6699 -14.6474 -14.5156 -14.4296 -14.3794
   -14.3148 -14.2726 -14.2401 -14.2173 -14.1571 -14.1298 -14.1058 -14.1037
   -14.0668 -14.0641 -14.0508 -14.0136 -13.8328 -13.6917  -8.9298  -8.8070
    -8.5902  -8.5491  -8.5141  -8.5013  -8.4458  -8.4367  -8.3653  -8.3041
    -8.2245  -8.1798  -8.1618  -8.1523  -8.0912  -8.0491  -8.0012  -7.9754
    -7.8945  -7.8815  -7.8259  -7.7751  -7.5994  -7.5811  -4.5556  -4.0480
    -3.9003  -3.6242  -3.4750  -3.3866  -3.2746  -3.1987  -3.1885  -3.0233
    -3.0211  -3.0123  -2.9658  -2.9634  -2.9044  -2.8831  -2.7182  -2.6591
    -2.5581  -2.4207  -2.4004  -2.3924  -2.3781  -2.3609  -2.2974  -2.2971
    -2.2072  -2.1718  -2.0841  -2.0384  -1.9684  -1.9427  -1.8826  -1.8093
    -1.7768  -1.7315  -1.6345  -1.5893  -1.5724  -1.5383  -1.4066  -1.3742
    -1.2926  -1.2627  -1.2491  -1.2415  -1.1895  -1.1521  -1.1356  -1.1210
    -1.1120  -1.0462  -0.9924  -0.9779  -0.9305  -0.9279  -0.9220  -0.9019
    -0.8628  -0.8365  -0.8360  -0.8022  -0.7912  -0.7788  -0.7718  -0.7065
    -0.6982  -0.6523  -0.6515  -0.4193  -0.3266  -0.3159  -0.2612  -0.1559
    -0.0426  -0.0195   0.0147   0.0927   0.1520   0.1998   0.2181   0.2207
     0.2698   0.3033   0.3892   0.4396   0.4691   0.5131   0.5302   0.5335
     0.7343   0.7537   0.7850   0.8133   0.8337   0.9057   0.9209   0.9484
     0.9724   0.9927   1.0081   1.0241   1.0579   1.0788   1.1536   1.1615
     1.1897   1.2319   1.2486   1.2500   1.3129   1.3193   1.3285   1.3453
     1.3846   1.4138   1.4602   1.4689   1.5165   1.5372   1.5638   1.5855
     1.5968   1.6152   1.6196   1.6358   1.6723   1.7088   1.7126   1.7228
     1.7575   1.8140   1.8479   1.8535   1.8690   1.9061   2.0374   2.0430
     2.0509   2.1200   2.1366   2.1866   2.2135   2.2377   2.2781   2.3307
     2.3535   2.5775   2.6457   2.7298   2.7624   2.8914   2.8979   2.9721
     3.1273   3.3399   3.6963   3.7754   3.8634   4.0492   4.1391   4.3962
     4.4342   4.6817   4.8778   5.1220   5.5125   5.6184   6.0527   6.1391
     6.2976   6.6664   6.7419   6.9115   7.0206   7.1243   7.2553   7.2730
     7.4445   7.5966   7.8269   8.0438   8.3496   8.4344   8.5024   8.5927
     8.6241   8.6959   8.7545   8.8463   8.8750   8.9944   9.0074   9.0625
     9.0953   9.1154

          k = 0.2500-1.0472 0.0000 ( 73056 PWs)   bands (ev):

   -41.3295 -38.9988 -38.2357 -35.8697 -23.0359 -22.9382 -22.8578 -22.7918
   -22.6338 -22.5303 -22.5293 -22.4694 -21.5532 -21.3539 -21.3485 -20.1534
   -20.0368 -20.0330 -18.8978 -18.5654 -18.4360 -17.3022 -17.0953 -17.0145
   -15.7994 -15.6367 -15.5645 -15.2757 -15.0412 -14.8624 -14.8080 -14.7942
   -14.7165 -14.6713 -14.6473 -14.5533 -14.5284 -14.4841 -14.4183 -14.3813
   -14.3526 -14.3318 -14.2595 -14.1848 -14.1010 -14.0894 -14.0879 -14.0803
   -14.0524 -14.0267 -14.0233 -14.0008 -13.9206 -13.7536  -9.0240  -8.8929
    -8.6997  -8.6274  -8.5966  -8.5852  -8.5720  -8.4394  -8.3675  -8.3049
    -8.2907  -8.2718  -8.2323  -8.1772  -8.1079  -8.0492  -8.0129  -7.9897
    -7.9219  -7.8802  -7.8384  -7.7655  -7.6253  -7.6207  -4.7367  -4.2466
    -4.0236  -3.8121  -3.6412  -3.5875  -3.4835  -3.4017  -3.3437  -3.2462
    -3.2428  -3.1967  -3.1368  -3.0938  -3.0867  -2.9927  -2.7350  -2.5714
    -2.5346  -2.4925  -2.4728  -2.4458  -2.4019  -2.3700  -2.3218  -2.3013
    -2.2903  -2.1997  -2.1653  -2.0909  -1.9501  -1.9167  -1.8631  -1.8393
    -1.7839  -1.7384  -1.6905  -1.6836  -1.6426  -1.6415  -1.6055  -1.4611
    -1.3667  -1.2943  -1.2719  -1.2636  -1.2306  -1.2190  -1.1870  -1.1601
    -1.1398  -1.0923  -1.0587  -1.0076  -1.0027  -1.0003  -0.9961  -0.9857
    -0.9443  -0.9269  -0.8829  -0.8714  -0.8639  -0.8613  -0.8041  -0.7602
    -0.7413  -0.6532  -0.6179  -0.3954  -0.3341  -0.3210  -0.2735  -0.1661
    -0.0460   0.0014   0.0214   0.0620   0.1735   0.1882   0.2091   0.2244
     0.3503   0.4032   0.4319   0.4747   0.5258   0.5663   0.5912   0.6175
     0.7958   0.8294   0.8582   0.8783   0.8823   0.9033   0.9621   0.9876
     0.9934   1.0601   1.0681   1.0732   1.0874   1.1113   1.1298   1.2285
     1.2460   1.2629   1.2676   1.3226   1.3704   1.3854   1.3905   1.4222
     1.4301   1.4885   1.4985   1.5013   1.5321   1.5990   1.6033   1.6335
     1.6954   1.7363   1.7438   1.7559   1.7775   1.8091   1.8950   1.9773
     2.0172   2.0263   2.0299   2.0338   2.0401   2.0490   2.0583   2.0881
     2.1023   2.1380   2.2486   2.2634   2.3152   2.3609   2.3799   2.4458
     2.4467   2.4999   2.5201   2.5409   2.6904   2.7772   2.8477   2.9554
     3.1165   3.3623   3.7906   3.8732   4.0464   4.2030   4.2923   4.5397
     4.5587   4.6563   4.7870   5.1502   5.4019   5.5241   5.9487   6.1076
     6.1963   6.5795   6.8678   6.9865   7.0873   7.3254   7.4812   7.4816
     7.7461   7.7837   7.8839   8.0284   8.0331   8.1324   8.6627   8.6853
     8.7330   8.8380   8.9833   9.0488   9.0650   9.1165   9.1389   9.1699
     9.2471   9.2765

          k = 0.3750 0.0000 0.0000 ( 73116 PWs)   bands (ev):

   -41.3437 -39.0081 -38.2541 -35.8813 -23.1861 -23.0872 -23.0075 -22.9515
   -22.7852 -22.6815 -22.6777 -22.6309 -21.4487 -21.3776 -21.2229 -20.0914
   -20.0551 -19.9706 -18.7250 -18.6060 -18.2573 -17.2465 -17.1620 -16.9111
   -16.2254 -15.9604 -15.4870 -15.4435 -15.1338 -15.1248 -15.0795 -15.0392
   -14.9416 -14.9297 -14.8704 -14.8111 -14.8077 -14.7295 -14.6156 -14.4831
   -14.4354 -14.2946 -14.2338 -14.2268 -14.2171 -14.1822 -14.1553 -14.1494
   -14.1406 -14.0452 -13.9390 -13.8305 -13.7118 -13.4982  -8.5582  -8.4613
    -8.2919  -8.1897  -8.1219  -8.0936  -8.0278  -8.0163  -8.0052  -8.0018
    -7.9258  -7.9120  -7.8872  -7.8714  -7.8243  -7.7891  -7.7157  -7.7080
    -7.6318  -7.6232  -7.6087  -7.5778  -7.5242  -7.4849  -3.4990  -3.0788
    -2.9858  -2.9202  -2.7791  -2.5903  -2.5460  -2.5174  -2.4864  -2.4481
    -2.3913  -2.3412  -2.3158  -2.2684  -2.2461  -2.2259  -2.1270  -2.0472
    -2.0358  -1.9367  -1.9330  -1.8044  -1.7256  -1.7079  -1.6842  -1.6592
    -1.6489  -1.4733  -1.3998  -1.3657  -1.3511  -1.2475  -1.2088  -1.1668
    -1.1645  -1.1594  -1.1404  -1.1369  -1.1109  -1.0979  -1.0970  -1.0934
    -1.0496  -1.0157  -1.0128  -0.9692  -0.9049  -0.8894  -0.8432  -0.7862
    -0.7544  -0.7408  -0.7032  -0.6649  -0.6407  -0.6199  -0.6164  -0.5606
    -0.5459  -0.5216  -0.4402  -0.4187  -0.4128  -0.3653  -0.3459  -0.3021
    -0.2503  -0.2421  -0.2072  -0.1958  -0.1510  -0.1480  -0.1290  -0.1245
    -0.1169  -0.0652   0.0061   0.0139   0.0277   0.0582   0.0720   0.0907
     0.1050   0.1305   0.1675   0.1699   0.1768   0.2371   0.2503   0.2595
     0.2830   0.3016   0.3103   0.3186   0.3502   0.3816   0.3892   0.4176
     0.4631   0.4873   0.5322   0.5357   0.5626   0.6324   0.6727   0.6973
     0.7472   0.7699   0.7867   0.8167   0.8373   0.8562   0.9533   0.9682
     1.0036   1.0058   1.0657   1.1260   1.1714   1.1921   1.1943   1.2397
     1.2854   1.3232   1.3259   1.3542   1.3664   1.3707   1.4763   1.4976
     1.5115   1.5527   1.5659   1.5976   1.6384   1.6404   1.6651   1.6898
     1.7361   1.7425   1.7481   1.7652   1.7964   1.8073   1.9680   1.9781
     2.0017   2.0655   2.1116   2.2087   2.2474   2.2701   2.2962   2.3300
     2.3595   2.4272   2.4855   2.4892   2.6267   2.6533   2.8126   2.8768
     4.1873   4.5647   5.0698   5.2703   5.3389   5.4480   5.5449   5.7695
     6.0078   6.0908   6.1810   6.3252   6.3454   6.5633   6.6179   6.8917
     6.9299   7.0249   7.1404   7.1614   7.2247   7.5097   7.6507   7.6923
     7.8124   7.8661   7.9576   7.9796   8.0134   8.2264   8.2881   8.3855
     8.4719   8.6319

          k = 0.3750 0.2618 0.0000 ( 73114 PWs)   bands (ev):

   -41.3416 -39.0067 -38.2514 -35.8796 -23.1639 -23.0670 -22.9847 -22.9304
   -22.7629 -22.6582 -22.6575 -22.6098 -21.4435 -21.3738 -21.2638 -20.0876
   -20.0528 -19.9932 -18.6865 -18.5989 -18.3682 -17.2162 -17.1545 -16.9766
   -16.1775 -15.9169 -15.4874 -15.3406 -15.1040 -15.0834 -15.0492 -14.9938
   -14.8951 -14.8784 -14.8473 -14.7952 -14.7769 -14.7066 -14.5637 -14.4325
   -14.3959 -14.3007 -14.2902 -14.2151 -14.2110 -14.1774 -14.1637 -14.1468
   -14.1330 -14.0707 -13.9561 -13.8702 -13.7246 -13.5210  -8.5635  -8.4576
    -8.2924  -8.2854  -8.2591  -8.2369  -8.1847  -8.1065  -8.0994  -8.0244
    -7.9423  -7.9333  -7.9325  -7.9125  -7.8688  -7.8404  -7.8126  -7.8082
    -7.7770  -7.7584  -7.5469  -7.5223  -7.5031  -7.4788  -3.6014  -3.3180
    -3.0125  -2.8971  -2.8228  -2.8156  -2.6586  -2.5398  -2.5094  -2.4313
    -2.3770  -2.3639  -2.3413  -2.3376  -2.3065  -2.2386  -2.2280  -2.1916
    -2.1212  -2.0879  -2.0724  -2.0520  -1.9729  -1.9070  -1.8181  -1.7205
    -1.6985  -1.6509  -1.6022  -1.5854  -1.5764  -1.5703  -1.5337  -1.5238
    -1.4932  -1.4308  -1.3822  -1.3256  -1.2567  -1.2358  -1.1709  -1.1567
    -1.1469  -1.0932  -1.0447  -1.0260  -0.9923  -0.9031  -0.8999  -0.8441
    -0.8387  -0.8306  -0.7677  -0.7047  -0.6683  -0.6327  -0.5801  -0.5594
    -0.5487  -0.4961  -0.4584  -0.4312  -0.3850  -0.3310  -0.3224  -0.2881
    -0.2581  -0.2396  -0.2314  -0.2170  -0.2054  -0.1771  -0.1354  -0.1245
    -0.0524  -0.0349  -0.0320   0.0218   0.0279   0.0373   0.0680   0.1122
     0.1307   0.1630   0.1712   0.1956   0.2003   0.2106   0.2312   0.2461
     0.2557   0.3011   0.3032   0.3490   0.3559   0.3758   0.4063   0.4136
     0.4574   0.5053   0.5516   0.6713   0.7475   0.7768   0.8283   0.8621
     0.8761   0.8815   0.9025   0.9411   0.9519   0.9825   1.0155   1.0365
     1.0472   1.0750   1.0775   1.1076   1.1481   1.2065   1.2393   1.2574
     1.3063   1.3390   1.3636   1.3977   1.4122   1.4389   1.4635   1.4679
     1.4793   1.4878   1.5244   1.5487   1.5824   1.6150   1.6212   1.7109
     1.7533   1.7774   1.8232   1.8423   1.9876   2.0131   2.0614   2.1146
     2.1507   2.3265   2.3373   2.5100   2.5377   2.5869   2.7142   2.7526
     2.7615   2.7811   2.8163   2.8297   2.8535   2.9207   2.9394   3.1365
     4.2737   4.5995   5.0208   5.2200   5.4404   5.7485   5.8165   5.8392
     6.1743   6.2125   6.3021   6.3264   6.4013   6.5615   6.6526   6.9155
     7.0966   7.1012   7.2510   7.4808   7.5146   7.7160   7.7560   7.8809
     7.9770   8.0286   8.0577   8.1381   8.2712   8.3630   8.4356   8.4769
     8.5493   8.6801

          k = 0.3750 0.5236 0.0000 ( 73039 PWs)   bands (ev):

   -41.3366 -39.0034 -38.2449 -35.8755 -23.1093 -23.0173 -22.9285 -22.8787
   -22.7080 -22.6078 -22.6010 -22.5581 -21.4512 -21.3648 -21.3394 -20.0917
   -20.0472 -20.0338 -18.6082 -18.5874 -18.5820 -17.1416 -17.1376 -17.1193
   -16.0512 -15.8022 -15.5038 -15.1444 -15.1157 -14.9714 -14.8910 -14.8567
   -14.8297 -14.8130 -14.7800 -14.7243 -14.6857 -14.6693 -14.4434 -14.4154
   -14.3575 -14.3073 -14.2992 -14.2142 -14.1752 -14.1592 -14.1568 -14.1325
   -14.1148 -14.0929 -14.0106 -13.9626 -13.7629 -13.5882  -8.6554  -8.5434
    -8.5290  -8.4847  -8.3969  -8.3914  -8.2466  -8.2397  -8.2264  -8.1725
    -8.1407  -8.1159  -8.0909  -8.0691  -7.9860  -7.9514  -7.9188  -7.8353
    -7.8127  -7.8011  -7.7373  -7.6848  -7.5654  -7.5347  -3.9865  -3.6802
    -3.4219  -3.1286  -3.0661  -2.9986  -2.8948  -2.8323  -2.7798  -2.7356
    -2.6815  -2.5759  -2.5370  -2.5070  -2.4696  -2.4384  -2.3964  -2.3662
    -2.3419  -2.3074  -2.3026  -2.2927  -2.2433  -2.2088  -2.2010  -2.1899
    -2.1846  -2.1767  -2.0953  -1.9690  -1.8587  -1.8439  -1.7590  -1.7175
    -1.6478  -1.6127  -1.6012  -1.5697  -1.4965  -1.3911  -1.3001  -1.2774
    -1.2231  -1.1982  -1.1768  -1.1397  -1.1307  -1.0934  -1.0572  -1.0281
    -0.9586  -0.8832  -0.8673  -0.8668  -0.8370  -0.8343  -0.7484  -0.7215
    -0.6654  -0.6412  -0.6389  -0.5997  -0.5974  -0.5817  -0.5511  -0.5096
    -0.5081  -0.4629  -0.4290  -0.4223  -0.3291  -0.2739  -0.2647  -0.1571
    -0.1401  -0.1352  -0.0833  -0.0016   0.0221   0.0785   0.1461   0.2247
     0.2389   0.2886   0.3084   0.3261   0.3497   0.3538   0.4324   0.4505
     0.5444   0.5703   0.5868   0.6364   0.6523   0.6769   0.7441   0.7452
     0.8062   0.8462   0.8689   0.9048   0.9106   0.9203   0.9441   0.9565
     0.9927   0.9978   1.0044   1.0851   1.1313   1.1749   1.2087   1.2178
     1.2536   1.2886   1.3239   1.3446   1.3539   1.3834   1.3998   1.4011
     1.4221   1.4349   1.4484   1.4526   1.4572   1.4857   1.5173   1.5576
     1.5841   1.6436   1.6491   1.7352   1.7494   1.7759   1.8280   1.8594
     1.8647   1.9164   1.9612   1.9688   1.9778   2.0096   2.1367   2.2407
     2.4531   2.7157   2.7374   2.8696   2.9143   2.9910   3.0049   3.0264
     3.0338   3.1157   3.2497   3.3398   3.4354   3.4563   3.5064   3.7290
     4.4532   4.6650   4.8493   5.1963   5.6719   5.8140   5.9183   6.4432
     6.4970   6.5216   6.5453   6.6138   6.6279   6.7574   6.9511   6.9602
     7.0589   7.1399   7.9115   8.0021   8.0615   8.0985   8.1878   8.1944
     8.3156   8.3278   8.4135   8.5312   8.5993   8.6515   8.6931   8.8279
     8.9305   8.9345

          k = 0.3750 0.7854 0.0000 ( 73096 PWs)   bands (ev):

   -41.3316 -39.0001 -38.2384 -35.8714 -23.0532 -22.9663 -22.8710 -22.8256
   -22.6516 -22.5569 -22.5422 -22.5050 -21.5166 -21.3559 -21.3534 -20.1318
   -20.0417 -20.0371 -18.8171 -18.5650 -18.4818 -17.2517 -17.1227 -17.0559
   -15.8925 -15.6619 -15.5579 -15.2267 -14.9722 -14.8675 -14.8045 -14.8000
   -14.7314 -14.7015 -14.6751 -14.6682 -14.6374 -14.5340 -14.4909 -14.4247
   -14.2888 -14.2477 -14.2314 -14.2110 -14.1839 -14.1366 -14.1245 -14.1103
   -14.0613 -14.0601 -14.0542 -14.0220 -13.8303 -13.6917  -8.8499  -8.7256
    -8.5734  -8.5621  -8.4682  -8.4532  -8.4210  -8.4178  -8.3546  -8.3006
    -8.2155  -8.1895  -8.1856  -8.1518  -8.1385  -8.0583  -8.0029  -7.9972
    -7.9864  -7.8986  -7.8192  -7.7827  -7.6926  -7.6855  -4.4149  -4.0038
    -3.9067  -3.5566  -3.5017  -3.3820  -3.2817  -3.2361  -3.1168  -3.0287
    -3.0016  -2.9877  -2.9764  -2.9075  -2.8925  -2.8637  -2.7673  -2.6389
    -2.4924  -2.4265  -2.4178  -2.3672  -2.3648  -2.3212  -2.2991  -2.2851
    -2.2574  -2.1514  -2.1191  -2.0789  -2.0782  -1.9463  -1.8397  -1.8225
    -1.7895  -1.7467  -1.7273  -1.6392  -1.5816  -1.5684  -1.4956  -1.4666
    -1.4129  -1.3102  -1.2674  -1.2531  -1.1959  -1.1813  -1.1533  -1.1393
    -1.1114  -1.0692  -1.0454  -0.9689  -0.9506  -0.9287  -0.9049  -0.8900
    -0.8857  -0.8463  -0.8094  -0.7995  -0.7616  -0.7493  -0.7479  -0.6796
    -0.6487  -0.6146  -0.5276  -0.4701  -0.3961  -0.3369  -0.2180  -0.1827
    -0.1252  -0.0774   0.0505   0.0834   0.1760   0.2094   0.2182   0.2609
     0.3330   0.3550   0.3700   0.4394   0.4590   0.5356   0.5913   0.6643
     0.6860   0.7461   0.7707   0.8122   0.8306   0.8475   0.9038   0.9488
     0.9708   0.9822   0.9837   0.9898   1.0974   1.1192   1.1305   1.1816
     1.2000   1.2317   1.2499   1.2801   1.2855   1.3083   1.3400   1.3728
     1.3810   1.4311   1.4602   1.4959   1.5159   1.5375   1.5417   1.5455
     1.5776   1.5964   1.6206   1.6372   1.6454   1.6643   1.6890   1.7220
     1.7255   1.8208   1.8297   1.8587   1.9008   1.9036   1.9850   2.0040
     2.0121   2.1572   2.2167   2.2196   2.2433   2.2718   2.3091   2.5447
     2.5604   2.6997   2.7674   2.8618   2.8834   2.9048   2.9941   3.1137
     3.2700   3.3809   3.4671   3.7072   3.7805   3.8373   3.8739   4.1196
[...]
    -1.7167  -1.6808  -1.6475  -1.5959  -1.5887  -1.5744  -1.5721  -1.5302
    -1.5299  -1.4626  -1.4027  -1.2432  -1.2307  -1.2153  -1.1401  -1.1257
    -1.1023  -1.0944  -1.0818  -1.0816  -1.0485  -0.9963  -0.9422  -0.8839
    -0.8345  -0.7776  -0.7685  -0.6543  -0.6233  -0.6211  -0.6210  -0.5791
    -0.5770  -0.5634  -0.4609  -0.4286  -0.4032  -0.3636  -0.2803  -0.2797
    -0.2725  -0.2725  -0.2500  -0.2389  -0.1902  -0.1676  -0.1634  -0.1091
    -0.0557  -0.0385  -0.0219   0.0322   0.0345   0.0398   0.0780   0.1112
     0.1119   0.1808   0.1905   0.1991   0.2180   0.2523   0.2590   0.2656
     0.2870   0.2892   0.2941   0.3360   0.3590   0.3768   0.3989   0.4072
     0.4373   0.4906   0.5491   0.6600   0.7544   0.7839   0.7921   0.8512
     0.8736   0.8802   0.9033   0.9295   0.9520   0.9568   0.9857   1.0629
     1.0730   1.0967   1.1311   1.1451   1.1947   1.2462   1.2531   1.2535
     1.2569   1.3018   1.3804   1.3962   1.4120   1.4184   1.4230   1.4271
     1.4752   1.5076   1.5345   1.5550   1.6103   1.6105   1.6125   1.6504
     1.7634   1.7753   1.7865   1.8534   2.0298   2.0559   2.0704   2.0884
     2.2042   2.2564   2.4250   2.5397   2.5972   2.6539   2.7328   2.7413
     2.7433   2.7680   2.8328   2.8353   2.8513   2.8713   2.9198   3.0916
     4.2846   4.7586   4.9083   5.2031   5.4289   5.8666   5.9535   5.9709
     6.0412   6.0561   6.1553   6.3411   6.5087   6.5779   6.7008   6.8031
     6.9606   7.1033   7.5328   7.5874   7.6581   7.7612   7.7920   7.8099
     7.8224   7.9868   8.0148   8.1093   8.2168   8.3729   8.4340   8.5507
     8.6924   8.7097

          k =-0.5000 0.5236 0.0000 ( 73038 PWs)   bands (ev):

   -41.3366 -39.0034 -38.2449 -35.8755 -23.1052 -23.0215 -22.9184 -22.8891
   -22.7042 -22.6118 -22.5860 -22.5733 -21.4513 -21.3641 -21.3394 -20.0917
   -20.0484 -20.0338 -18.6081 -18.5868 -18.5788 -17.1478 -17.1432 -17.1197
   -16.0378 -15.8220 -15.4977 -15.1425 -15.0596 -14.9823 -14.8790 -14.8675
   -14.8250 -14.8025 -14.7868 -14.7485 -14.6949 -14.6719 -14.4453 -14.3746
   -14.3706 -14.3476 -14.3023 -14.2071 -14.1740 -14.1612 -14.1554 -14.1322
   -14.1080 -14.1002 -14.0152 -13.9621 -13.7552 -13.5912  -8.6172  -8.5967
    -8.5065  -8.4950  -8.4659  -8.3970  -8.2393  -8.2107  -8.1891  -8.1834
    -8.1719  -8.1691  -8.0892  -8.0791  -7.9541  -7.9266  -7.8959  -7.8851
    -7.8075  -7.8029  -7.6767  -7.5984  -7.5893  -7.5824  -3.8958  -3.7561
    -3.2972  -3.2195  -2.9984  -2.9611  -2.9346  -2.8560  -2.7876  -2.7387
    -2.6144  -2.5631  -2.5389  -2.4989  -2.4207  -2.3966  -2.3752  -2.3628
    -2.3510  -2.3424  -2.2977  -2.2927  -2.2634  -2.2379  -2.2151  -2.2043
    -2.1867  -2.1757  -2.1407  -1.9764  -1.8577  -1.8122  -1.7516  -1.6781
    -1.6623  -1.6604  -1.6293  -1.5845  -1.5544  -1.4677  -1.4126  -1.2677
    -1.2636  -1.1814  -1.1804  -1.1584  -1.0928  -1.0656  -1.0524  -1.0133
    -0.9855  -0.9566  -0.8738  -0.8671  -0.8562  -0.8444  -0.7416  -0.6816
    -0.6753  -0.6593  -0.6225  -0.6112  -0.5919  -0.5783  -0.5088  -0.4973
    -0.4867  -0.4749  -0.4374  -0.4354  -0.3932  -0.2399  -0.2301  -0.2217
    -0.1779  -0.1336  -0.1123  -0.0079   0.0344   0.0719   0.1886   0.2644
     0.2740   0.2832   0.3035   0.3276   0.3305   0.4242   0.4310   0.5342
     0.5542   0.5545   0.5586   0.5671   0.6662   0.6768   0.7306   0.7754
     0.8149   0.8197   0.8418   0.8798   0.9014   0.9017   0.9422   0.9426
     0.9765   0.9805   0.9875   1.0804   1.1493   1.2090   1.2108   1.2120
     1.2723   1.2908   1.3131   1.3265   1.3678   1.3769   1.3896   1.4026
     1.4370   1.4394   1.4514   1.4805   1.4839   1.5010   1.5414   1.5852
     1.5917   1.6533   1.6807   1.7379   1.7505   1.7796   1.7895   1.8193
     1.8806   1.9065   1.9602   1.9690   1.9925   2.0490   2.1406   2.1618
     2.7375   2.7518   2.8194   2.8808   2.9115   3.0196   3.0365   3.0584
     3.0664   3.1108   3.2114   3.2952   3.4359   3.4470   3.4630   3.5550
     4.4934   4.7125   4.8399   5.1651   5.6753   5.7893   5.9530   6.4693
     6.4974   6.5160   6.5895   6.6073   6.6204   6.7706   6.8638   7.0134
     7.0599   7.1322   7.8696   8.0134   8.1265   8.1400   8.1566   8.2858
     8.3034   8.4080   8.5136   8.5260   8.6025   8.6960   8.7439   8.7643
     8.8892   8.9016

          k =-0.5000 0.7854 0.0000 ( 73054 PWs)   bands (ev):

   -41.3316 -39.0001 -38.2384 -35.8714 -23.0499 -22.9697 -22.8631 -22.8336
   -22.6486 -22.5601 -22.5300 -22.5173 -21.5166 -21.3551 -21.3535 -20.1318
   -20.0428 -20.0372 -18.8171 -18.5619 -18.4813 -17.2516 -17.1318 -17.0580
   -15.8847 -15.6718 -15.5556 -15.2263 -14.9307 -14.9042 -14.7684 -14.7628
   -14.7581 -14.6855 -14.6763 -14.6667 -14.6306 -14.5807 -14.4787 -14.4622
   -14.2595 -14.2577 -14.2225 -14.2091 -14.1812 -14.1680 -14.1200 -14.1146
   -14.0590 -14.0567 -14.0566 -14.0258 -13.8293 -13.6917  -8.7689  -8.6759
    -8.6216  -8.5831  -8.5570  -8.4089  -8.3482  -8.3089  -8.3026  -8.3018
    -8.2907  -8.2188  -8.2047  -8.1921  -8.1251  -8.1245  -8.0713  -7.9350
    -7.8848  -7.8589  -7.8456  -7.7923  -7.7776  -7.7713  -4.3196  -4.0840
    -3.8088  -3.6288  -3.4126  -3.3984  -3.2823  -3.2764  -3.0618  -3.0521
    -2.9894  -2.9885  -2.9556  -2.9083  -2.8979  -2.8661  -2.7284  -2.5591
    -2.5413  -2.4789  -2.4228  -2.4080  -2.3461  -2.3034  -2.3008  -2.2654
    -2.2537  -2.2164  -2.1069  -2.0362  -1.9778  -1.9480  -1.8800  -1.8652
    -1.8635  -1.7487  -1.7352  -1.7081  -1.6337  -1.6120  -1.5225  -1.4212
    -1.4083  -1.3049  -1.2826  -1.2564  -1.2426  -1.2390  -1.1662  -1.1567
    -1.1115  -1.0527  -1.0158  -0.9513  -0.9361  -0.9345  -0.9330  -0.9142
    -0.8903  -0.8446  -0.8086  -0.8068  -0.7456  -0.7393  -0.6952  -0.6452
    -0.6299  -0.6062  -0.5056  -0.4751  -0.4413  -0.3120  -0.2730  -0.1592
    -0.1454  -0.0286  -0.0080   0.1044   0.1175   0.1577   0.2883   0.3064
     0.3121   0.3523   0.4066   0.4360   0.5040   0.5582   0.6486   0.6607
     0.7007   0.7202   0.7341   0.8087   0.8341   0.8527   0.8853   0.9243
     0.9710   0.9752   1.0009   1.0379   1.0380   1.1156   1.1415   1.1810
     1.1946   1.2283   1.2311   1.2628   1.3166   1.3639   1.3842   1.3988
     1.4086   1.4163   1.4359   1.4609   1.5045   1.5202   1.5396   1.5417
     1.5679   1.5864   1.5868   1.6221   1.6293   1.6628   1.6988   1.7322
     1.7327   1.8108   1.8320   1.8533   1.9058   1.9387   1.9526   1.9716
     1.9759   2.1952   2.2058   2.2183   2.2567   2.2576   2.3372   2.4806
     2.7477   2.7726   2.8930   2.9025   2.9227   2.9525   3.0881   3.3016
     3.3431   3.3691   3.4909   3.5125   3.7359   3.7598   3.7821   3.8440
     4.5878   4.6693   4.9945   5.0568   5.4255   5.8838   5.9883   6.4607
     6.6176   6.6588   6.7751   6.8167   6.8314   6.8720   6.9010   7.1652
     7.4077   7.4209   7.8960   7.9626   8.4864   8.5393   8.5494   8.5963
     8.6185   8.7159   8.7378   8.7891   8.9135   8.9881   9.0516   9.1341
     9.1460   9.2626

          k =-0.5000-1.0472 0.0000 ( 73020 PWs)   bands (ev):

   -41.3295 -38.9988 -38.2357 -35.8697 -23.0265 -22.9479 -22.8398 -22.8102
   -22.6252 -22.5383 -22.5064 -22.4937 -21.5532 -21.3513 -21.3488 -20.1534
   -20.0404 -20.0333 -18.8976 -18.5549 -18.4343 -17.3023 -17.1255 -17.0213
   -15.7893 -15.6135 -15.5848 -15.2883 -14.9534 -14.8880 -14.7599 -14.7593
   -14.7289 -14.6542 -14.6073 -14.5512 -14.5303 -14.4821 -14.4640 -14.4477
   -14.3586 -14.3387 -14.2736 -14.2410 -14.0953 -14.0945 -14.0618 -14.0562
   -14.0501 -14.0357 -14.0341 -14.0340 -13.9002 -13.7706  -8.7906  -8.6812
    -8.6250  -8.5744  -8.5645  -8.4589  -8.3918  -8.3653  -8.3284  -8.3050
    -8.2999  -8.2952  -8.2876  -8.2765  -8.1977  -8.1951  -8.0905  -8.0466
    -7.9916  -7.9890  -7.8865  -7.8697  -7.8215  -7.7706  -4.4921  -4.2164
    -4.0100  -3.7900  -3.6102  -3.5973  -3.4879  -3.4443  -3.2791  -3.2538
    -3.2223  -3.2216  -3.1399  -3.1178  -2.9387  -2.8504  -2.7868  -2.7367
    -2.5650  -2.4559  -2.4317  -2.4049  -2.3689  -2.3157  -2.3127  -2.2790
    -2.2372  -2.1930  -2.1570  -2.1239  -2.0378  -2.0059  -1.9757  -1.9265
    -1.8928  -1.7559  -1.7454  -1.6832  -1.6608  -1.6503  -1.5561  -1.5428
    -1.5387  -1.3550  -1.3324  -1.3010  -1.2834  -1.2708  -1.2644  -1.2533
    -1.1479  -1.0804  -1.0248  -1.0245  -1.0032  -0.9969  -0.9946  -0.9288
    -0.9127  -0.8991  -0.8858  -0.8150  -0.8117  -0.8082  -0.7306  -0.6705
    -0.6442  -0.6328  -0.5268  -0.5033  -0.3959  -0.3367  -0.2897  -0.1414
    -0.1316   0.0223   0.0407   0.1344   0.1701   0.1712   0.3134   0.3205
     0.3226   0.3663   0.3852   0.5358   0.5437   0.7024   0.7367   0.7525
     0.7809   0.7868   0.7981   0.8720   0.9082   0.9573   0.9686   1.0025
     1.0168   1.0386   1.0745   1.1335   1.1458   1.1757   1.1781   1.2004
     1.2006   1.2062   1.2280   1.2435   1.2608   1.2803   1.2830   1.3581
     1.4162   1.4708   1.4902   1.5357   1.5534   1.6017   1.6079   1.6507
     1.6707   1.6990   1.7112   1.7231   1.7542   1.7866   1.8014   1.8329
     1.8520   1.9021   1.9597   2.0272   2.0310   2.0384   2.0496   2.0844
     2.0944   2.2401   2.3751   2.3840   2.4205   2.4289   2.4918   2.5455
     2.5603   2.6780   2.7101   2.7317   2.9649   2.9863   3.1367   3.3166
     3.3996   3.4662   3.4992   3.5945   3.7320   3.8174   3.8656   4.0400
     4.5956   4.7229   4.9056   5.1082   5.2827   5.8327   6.1205   6.4480
     6.5588   6.6057   6.7223   6.7975   6.8086   6.8230   6.9313   7.4420
     7.6086   7.7460   7.9609   7.9839   8.0380   8.0809   8.6403   8.7624
     8.7827   8.9421   9.0500   9.2302   9.2721   9.2938   9.3121   9.3495
     9.3913   9.4120

     the Fermi energy is     2.5554 ev

!    total energy              =   -3711.09005656 Ry
     Harris-Foulkes estimate   =   -3711.09005659 Ry
     estimated scf accuracy    <          4.8E-09 Ry

     The total energy is the sum of the following terms:

     one-electron contribution =  -60153.07064248 Ry
     hartree contribution      =   30377.16310503 Ry
     xc contribution           =   -1263.28441890 Ry
     ewald contribution        =   27328.11591544 Ry
     smearing contrib. (-TS)   =      -0.01401566 Ry

     convergence has been achieved in  39 iterations

     negative rho (up, down):  9.123E-02 0.000E+00

     Forces acting on atoms (cartesian axes, Ry/au):

     atom    1 type  4   force =    -0.00000493    0.00000000   -0.00012449
     atom    2 type  4   force =     0.00000493    0.00000000   -0.00012449
     atom    3 type  3   force =    -0.00001712    0.00000000   -0.00005888
     atom    4 type  3   force =     0.00001712    0.00000000   -0.00005888
     atom    5 type  4   force =     0.00000025    0.00000000   -0.00005533
     atom    6 type  4   force =    -0.00000025    0.00000000   -0.00005533
     atom    7 type  1   force =     0.00000000    0.00000000   -0.00011797
     atom    8 type  1   force =     0.00000000    0.00000000   -0.00010774
     atom    9 type  3   force =     0.00002781    0.00000000    0.00003510
     atom   10 type  3   force =    -0.00002781    0.00000000    0.00003510
     atom   11 type  4   force =     0.00000000    0.00000000    0.00012533
     atom   12 type  4   force =    -0.00000318    0.00000000    0.00005625
     atom   13 type  4   force =     0.00000318    0.00000000    0.00005625
     atom   14 type  4   force =     0.00000000    0.00000000    0.00018276
     atom   15 type  2   force =     0.00000000    0.00000000   -0.00050670
     atom   16 type  5   force =     0.00000000    0.00000000   -0.00075919
     atom   17 type  4   force =     0.00008770    0.00000000    0.00081387
     atom   18 type  4   force =    -0.00008770    0.00000000    0.00081387
     atom   19 type  4   force =     0.00000000    0.00000000    0.00089368
     atom   20 type  4   force =     0.00000000    0.00000000    0.00115112
     atom   21 type  3   force =    -0.00004825    0.00000000   -0.00116246
     atom   22 type  3   force =     0.00004825    0.00000000   -0.00116246
     atom   23 type  1   force =     0.00000000    0.00000000   -0.00211834
     atom   24 type  1   force =     0.00000000    0.00000000   -0.00221818
     atom   25 type  4   force =    -0.00023825    0.00000000    0.00395441
     atom   26 type  4   force =     0.00023825    0.00000000    0.00395441
     atom   27 type  4   force =    -0.00044313    0.00000000    0.00463650
     atom   28 type  4   force =     0.00044313    0.00000000    0.00463650
     atom   29 type  3   force =     0.00174043    0.00000000   -0.00905843
     atom   30 type  3   force =    -0.00174043    0.00000000   -0.00905843
     atom   31 type  4   force =    -0.00066140    0.00000000    0.01350166
     atom   32 type  4   force =     0.00066140    0.00000000    0.01350166
     atom   33 type  1   force =     0.00000000    0.00000000   -0.02358696
     atom   34 type  1   force =     0.00000000    0.00000000   -0.01812377
     atom   35 type  3   force =     0.00032057    0.00000000    0.00848007
     atom   36 type  3   force =    -0.00032057    0.00000000    0.00848007
     atom   37 type  4   force =     0.00000000    0.00000000    0.05525286
     atom   38 type  4   force =     0.00000000    0.00000000    0.06739823
     atom   39 type  4   force =     0.02021521    0.00000000    0.06579883
     atom   40 type  4   force =    -0.02021521    0.00000000    0.06579883
     atom   41 type  5   force =     0.00000000    0.00000000   -0.13820769
     atom   42 type  2   force =     0.00000000    0.00000000   -0.08082067
     atom   43 type  4   force =     0.00000000    0.00000000    0.02156474
     atom   44 type  4   force =    -0.00202491    0.00000000    0.01065891
     atom   45 type  4   force =     0.00202491    0.00000000    0.01065891
     atom   46 type  4   force =     0.00000000    0.00000000    0.01909549
     atom   47 type  3   force =    -0.00128871    0.00000000   -0.01761457
     atom   48 type  3   force =     0.00128871    0.00000000   -0.01761457
     atom   49 type  1   force =     0.00000000    0.00000000   -0.02380956
     atom   50 type  1   force =     0.00000000    0.00000000   -0.02930609
     atom   51 type  4   force =     0.00129354    0.00000000   -0.00349972
     atom   52 type  4   force =    -0.00129354    0.00000000   -0.00349972
     atom   53 type  3   force =    -0.00027028    0.00000000    0.00089319
     atom   54 type  3   force =     0.00027028    0.00000000    0.00089319
     atom   55 type  4   force =     0.00010230    0.00000000   -0.00024560
     atom   56 type  4   force =    -0.00010230    0.00000000   -0.00024560

     Total force =     0.217957     Total SCF correction =     0.000338


     Computing stress (Cartesian axis) and pressure


     negative rho (up, down):  9.123E-02 0.000E+00
          total   stress  (Ry/bohr**3)                   (kbar)     P=       -7.97
  -0.00002848   0.00000000   0.00000000           -4.19        0.00        0.00
   0.00000000  -0.00001149   0.00000000            0.00       -1.69        0.00
   0.00000000   0.00000000  -0.00012256            0.00        0.00      -18.03

 
     init_run     :     26.25s CPU     26.83s WALL (       1 calls)
     electrons    :   2005.79s CPU   2052.58s WALL (       1 calls)
     forces       :     10.94s CPU     11.24s WALL (       1 calls)
     stress       :     99.82s CPU    100.78s WALL (       1 calls)

     Called by init_run:
     wfcinit      :     21.35s CPU     21.63s WALL (       1 calls)
     potinit      :      1.06s CPU      1.08s WALL (       1 calls)
     hinit0       :      1.73s CPU      1.75s WALL (       1 calls)

     Called by electrons:
     c_bands      :   1650.12s CPU   1675.68s WALL (      39 calls)
     sum_band     :    263.81s CPU    275.37s WALL (      39 calls)
     v_of_rho     :      5.98s CPU      6.04s WALL (      40 calls)
     newd         :     46.01s CPU     55.44s WALL (      40 calls)
     mix_rho      :     40.32s CPU     40.67s WALL (      39 calls)

     Called by c_bands:
     init_us_2    :      9.55s CPU      9.60s WALL (    2025 calls)
     cegterg      :   1564.69s CPU   1589.38s WALL (     975 calls)

     Called by sum_band:
     sum_band:bec :      1.11s CPU      1.12s WALL (     975 calls)
     addusdens    :     43.00s CPU     52.33s WALL (      39 calls)

     Called by *egterg:
     h_psi        :    771.49s CPU    783.47s WALL (    4917 calls)
     s_psi        :    112.31s CPU    112.74s WALL (    4917 calls)
     g_psi        :      1.66s CPU      1.67s WALL (    3917 calls)
     cdiaghg      :    346.33s CPU    347.66s WALL (    4892 calls)

     Called by h_psi:
     h_psi:calbec :    122.99s CPU    123.44s WALL (    4917 calls)
     vloc_psi     :    533.00s CPU    540.08s WALL (    4917 calls)
     add_vuspsi   :    112.97s CPU    113.40s WALL (    4917 calls)

     General routines
     calbec       :    210.44s CPU    211.18s WALL (    6017 calls)
     fft          :      5.72s CPU      5.76s WALL (     543 calls)
     ffts         :     23.11s CPU     23.31s WALL (   21531 calls)
     fftw         :    614.46s CPU    622.56s WALL ( 1375622 calls)
     interpolate  :      0.53s CPU      0.53s WALL (      40 calls)
 
     Parallel routines
     fft_scatt_xy :     70.96s CPU     71.96s WALL ( 1397696 calls)
     fft_scatt_yz :    397.88s CPU    403.11s WALL ( 1397696 calls)
 
     PWSCF        :  35m44.15s CPU  36m32.84s WALL

 
   This run was terminated on:  10:43: 9  28May2021            

=------------------------------------------------------------------------------=
   JOB DONE.
=------------------------------------------------------------------------------=
[1622212989.301932] [holy7c06308:167708:0]          mpool.c:43   UCX  WARN  object 0x4577f80 was not returned to mpool ucp_requests
[1622212989.301950] [holy7c06308:167708:0]          mpool.c:43   UCX  WARN  object 0x45784c0 was not returned to mpool ucp_requests
[1622212989.306623] [holy7c06302:116032:0]          mpool.c:43   UCX  WARN  object 0x426f7c0 was not returned to mpool ucp_requests
[1622212989.307321] [holy7c06301:259148:0]          mpool.c:43   UCX  WARN  object 0x34f83c0 was not returned to mpool ucp_requests
[1622212989.325338] [holy7c06212:64790:0]          mpool.c:43   UCX  WARN  object 0x2ae88c0 was not returned to mpool ucp_requests
[1622212989.317159] [holy7c06303:251525:0]          mpool.c:43   UCX  WARN  object 0x3463b00 was not returned to mpool ucp_requests
[1622212989.320069] [holy7c06311:230204:0]          mpool.c:43   UCX  WARN  object 0x2c72100 was not returned to mpool ucp_requests
[1622212989.321186] [holy7c06311:230203:0]          mpool.c:43   UCX  WARN  object 0x304d1c0 was not returned to mpool ucp_requests
[1622212989.324336] [holy7c06212:64792:0]          mpool.c:43   UCX  WARN  object 0x3204200 was not returned to mpool ucp_requests
[1622212989.324364] [holy7c06212:64792:0]          mpool.c:43   UCX  WARN  object 0x3204580 was not returned to mpool ucp_requests
[1622212989.320546] [holy7c06212:64796:0]          mpool.c:43   UCX  WARN  object 0x333ef80 was not returned to mpool ucp_requests
[1622212989.332200] [holy7c06212:64797:0]          mpool.c:43   UCX  WARN  object 0x3546500 was not returned to mpool ucp_requests
[1622212989.332220] [holy7c06212:64797:0]          mpool.c:43   UCX  WARN  object 0x3546880 was not returned to mpool ucp_requests
[1622212989.334620] [holy7c06212:64791:0]          mpool.c:43   UCX  WARN  object 0x45c6200 was not returned to mpool ucp_requests
[1622212989.315845] [holy7c06303:251523:0]          mpool.c:43   UCX  WARN  object 0x441ba40 was not returned to mpool ucp_requests
[1622212989.315870] [holy7c06303:251523:0]          mpool.c:43   UCX  WARN  object 0x441c140 was not returned to mpool ucp_requests
[1622212989.315999] [holy7c06303:251526:0]          mpool.c:43   UCX  WARN  object 0x47395c0 was not returned to mpool ucp_requests
[1622212989.328166] [holy7c06212:64795:0]          mpool.c:43   UCX  WARN  object 0x3176bc0 was not returned to mpool ucp_requests
[1622212989.328190] [holy7c06212:64795:0]          mpool.c:43   UCX  WARN  object 0x3176d80 was not returned to mpool ucp_requests
