
     Program PWSCF v.6.5 starts on 25May2021 at 14:24:53 

     This program is part of the open-source Quantum ESPRESSO suite
     for quantum simulation of materials; please cite
         "P. Giannozzi et al., J. Phys.:Condens. Matter 21 395502 (2009);
         "P. Giannozzi et al., J. Phys.:Condens. Matter 29 465901 (2017);
          URL http://www.quantum-espresso.org", 
     in publications or presentations arising from this work. More details at
     http://www.quantum-espresso.org/quote

     Parallel version (MPI), running on    32 processors

     MPI processes distributed on     8 nodes
     R & G space division:  proc/nbgrp/npool/nimage =      32
     Reading input from YCBCO50_212_BaO_cleave_1.5_sep.pwi
Warning: card &IONS ignored
Warning: card     ION_DYNAMICS = 'BFGS' ignored
Warning: card / ignored
Warning: card &CELL ignored
Warning: card     CELL_DYNAMICS = 'BFGS' ignored
Warning: card     PRESS_CONV_THR = 5 ignored
Warning: card / ignored

     Current dimensions of program PWSCF are:
     Max number of different atomic species (ntypx) = 10
     Max number of k-points (npk) =  40000
     Max angular momentum in pseudopotentials (lmaxx) =  3

     Subspace diagonalization in iterative solution of the eigenvalue problem:
     one sub-group per band group will be used
     scalapack distributed-memory algorithm (size of sub-group:  5*  5 procs)

     Message from routine setup:
     using ibrav=0 with symmetry is DISCOURAGED, use correct ibrav instead
 
     Parallelization info
     --------------------
     sticks:   dense  smooth     PW     G-vecs:    dense   smooth      PW
     Min         188      62     17                91886    17674    2637
     Max         189      63     18                91916    17721    2676
     Sum        6019    2003    565              2940889   566335   85181
 


     bravais-lattice index     =            0
     lattice parameter (alat)  =      14.8133  a.u.
     unit-cell volume          =    9014.2378 (a.u.)^3
     number of atoms/cell      =           56
     number of atomic types    =            5
     number of electrons       =       456.00
     number of Kohn-Sham states=          274
     kinetic-energy cutoff     =      60.0000  Ry
     charge density cutoff     =     720.0000  Ry
     convergence threshold     =      1.0E-08
     mixing beta               =       0.5000
     number of iterations used =           10  local-TF  mixing
     Exchange-correlation= SLA PW PBE PBE
                           (   1   4   3   4   0   0   0)

     celldm(1)=  14.813271  celldm(2)=   0.000000  celldm(3)=   0.000000
     celldm(4)=   0.000000  celldm(5)=   0.000000  celldm(6)=   0.000000

     crystal axes: (cart. coord. in units of alat)
               a(1) = (   1.000000   0.000000   0.000000 )  
               a(2) = (   0.000000   0.477453   0.000000 )  
               a(3) = (   0.000000   0.000000   5.808256 )  

     reciprocal axes: (cart. coord. in units 2 pi/alat)
               b(1) = (  1.000000  0.000000  0.000000 )  
               b(2) = (  0.000000  2.094448  0.000000 )  
               b(3) = (  0.000000  0.000000  0.172169 )  


     PseudoPot. # 1 for Ba read from file:
     ./pseudo/Ba.pbe-nsp-van.UPF
     MD5 check sum: 2b9c31dd849566dd297d80989662b7a0
     Pseudo is Ultrasoft + core correction, Zval = 10.0
     Generated by new atomic code, or converted to UPF format
     Using radial grid of  907 points,  6 beta functions with: 
                l(1) =   0
                l(2) =   0
                l(3) =   1
                l(4) =   1
                l(5) =   2
                l(6) =   2
     Q(r) pseudized with  6 coefficients,  rinner =    1.200   1.200   1.200
                                                       1.200   1.200

     PseudoPot. # 2 for Ca read from file:
     ./pseudo/Ca.pbe-nsp-van.UPF
     MD5 check sum: 6471098428ff4fa451746d08035ff179
     Pseudo is Ultrasoft + core correction, Zval = 10.0
     Generated by new atomic code, or converted to UPF format
     Using radial grid of  845 points,  6 beta functions with: 
                l(1) =   0
                l(2) =   0
                l(3) =   1
                l(4) =   1
                l(5) =   2
                l(6) =   2
     Q(r) pseudized with  6 coefficients,  rinner =    1.200   1.200   1.200
                                                       1.200   1.200

     PseudoPot. # 3 for Cu read from file:
     ./pseudo/Cu.pbe-n-van_ak.UPF
     MD5 check sum: 34e3282627ffb533726feb647e090d62
     Pseudo is Ultrasoft + core correction, Zval = 11.0
     Generated by new atomic code, or converted to UPF format
     Using radial grid of  867 points,  6 beta functions with: 
                l(1) =   0
                l(2) =   0
                l(3) =   1
                l(4) =   1
                l(5) =   2
                l(6) =   2
     Q(r) pseudized with  8 coefficients,  rinner =    1.400   1.400   1.400
                                                       1.400   1.400

     PseudoPot. # 4 for O  read from file:
     ./pseudo/O.pbe-van_ak.UPF
     MD5 check sum: 783ce7fe4c79b6a4916957118fed0856
     Pseudo is Ultrasoft, Zval =  6.0
     Generated by new atomic code, or converted to UPF format
     Using radial grid of  737 points,  4 beta functions with: 
                l(1) =   0
                l(2) =   0
                l(3) =   1
                l(4) =   1
     Q(r) pseudized with  8 coefficients,  rinner =    0.800   0.800   0.800


     PseudoPot. # 5 for Y  read from file:
     ./pseudo/Y.pbe-nsp-van.UPF
     MD5 check sum: 4412fed3ab108fed87a1b7d6a69a4a38
     Pseudo is Ultrasoft + core correction, Zval = 11.0
     Generated by new atomic code, or converted to UPF format
     Using radial grid of  885 points,  6 beta functions with: 
                l(1) =   0
                l(2) =   0
                l(3) =   1
                l(4) =   1
                l(5) =   2
                l(6) =   2
     Q(r) pseudized with  6 coefficients,  rinner =    1.200   1.200   1.200
                                                       1.200   1.200

     atomic species   valence    mass     pseudopotential
        Ba            10.00   137.32700     Ba( 1.00)
        Ca            10.00    40.07800     Ca( 1.00)
        Cu            11.00    63.54600     Cu( 1.00)
        O              6.00    15.99900     O ( 1.00)
        Y             11.00    88.90584     Y ( 1.00)

      4 Sym. Ops. (no inversion) found ( 2 have fractional translation)



   Cartesian axes

     site n.     atom                  positions (alat units)
         1           O   tau(   1) = (  -0.0008343   0.2387265  -0.0222443  )
         2           O   tau(   2) = (   0.5008340   0.2387265  -0.0222443  )
         3           Cu  tau(   3) = (   0.5017257   0.0000000   0.0109608  )
         4           Cu  tau(   4) = (  -0.0017260   0.0000000   0.0109608  )
         5           O   tau(   5) = (  -0.0028933   0.0000000   0.2506504  )
         6           O   tau(   6) = (   0.5028929   0.0000000   0.2506504  )
         7           Ba  tau(   7) = (   0.7499995   0.2387265   0.2749435  )
         8           Ba  tau(   8) = (   0.2499998   0.2387265   0.2755214  )
         9           Cu  tau(   9) = (   0.4980963   0.0000000   0.5208446  )
        10           Cu  tau(  10) = (   0.0019033   0.0000000   0.5208446  )
        11           O   tau(  11) = (   0.2499998   0.0000000   0.5341884  )
        12           O   tau(  12) = (   0.5083351   0.2387265   0.5569851  )
        13           O   tau(  13) = (  -0.0083354   0.2387265   0.5569851  )
        14           O   tau(  14) = (   0.7499995   0.0000000   0.5573831  )
        15           Ca  tau(  15) = (   0.2499998   0.2387265   0.7436937  )
        16           Y   tau(  16) = (   0.7499995   0.2387265   0.7469544  )
        17           O   tau(  17) = (  -0.0063798   0.2387265   0.9248530  )
        18           O   tau(  18) = (   0.5063794   0.2387265   0.9248530  )
        19           O   tau(  19) = (   0.7499995   0.0000000   0.9338544  )
        20           O   tau(  20) = (   0.2499998   0.0000000   0.9461329  )
        21           Cu  tau(  21) = (   0.0015717   0.0000000   0.9686860  )
        22           Cu  tau(  22) = (   0.4984280   0.0000000   0.9686860  )
        23           Ba  tau(  23) = (   0.2499998   0.2387265   1.2085224  )
        24           Ba  tau(  24) = (   0.7499995   0.2387265   1.2233294  )
        25           O   tau(  25) = (   0.0063772   0.0000000   1.2547537  )
        26           O   tau(  26) = (   0.4936224   0.0000000   1.2547537  )
        27           O   tau(  27) = (   0.5384045   0.2387265   1.4952521  )
        28           O   tau(  28) = (  -0.0384049   0.2387265   1.4952521  )
        29           Cu  tau(  29) = (   0.5006120   0.0000000   1.4952546  )
        30           Cu  tau(  30) = (  -0.0006123   0.0000000   1.4952546  )
        31           O   tau(  31) = (   0.4936212   0.0000000   1.7357531  )
        32           O   tau(  32) = (   0.0063785   0.0000000   1.7357531  )
        33           Ba  tau(  33) = (   0.7499995   0.2387265   1.7671824  )
        34           Ba  tau(  34) = (   0.2499998   0.2387265   1.7819920  )
        35           Cu  tau(  35) = (   0.4984280   0.0000000   2.2131780  )
        36           Cu  tau(  36) = (   0.0015717   0.0000000   2.2131780  )
        37           O   tau(  37) = (   0.2499998   0.0000000   2.2357361  )
        38           O   tau(  38) = (   0.7499995   0.0000000   2.2480058  )
        39           O   tau(  39) = (   0.5063781   0.2387265   2.2570109  )
        40           O   tau(  40) = (  -0.0063785   0.2387265   2.2570109  )
        41           Y   tau(  41) = (   0.7499995   0.2387265   2.4349045  )
        42           Ca  tau(  42) = (   0.2499998   0.2387265   2.4381741  )
        43           O   tau(  43) = (   0.7499995   0.0000000   2.6244719  )
        44           O   tau(  44) = (  -0.0083354   0.2387265   2.6248738  )
        45           O   tau(  45) = (   0.5083351   0.2387265   2.6248738  )
        46           O   tau(  46) = (   0.2499998   0.0000000   2.6476718  )
        47           Cu  tau(  47) = (   0.0019059   0.0000000   2.6610054  )
        48           Cu  tau(  48) = (   0.4980938   0.0000000   2.6610054  )
        49           Ba  tau(  49) = (   0.2499998   0.2387265   2.9063451  )
        50           Ba  tau(  50) = (   0.7499995   0.2387265   2.9068873  )
        51           O   tau(  51) = (  -0.0028895   0.0000000   2.9311944  )
        52           O   tau(  52) = (   0.5028891   0.0000000   2.9311944  )
        53           Cu  tau(  53) = (   0.5017844   0.0000000   3.1708789  )
        54           Cu  tau(  54) = (  -0.0017847   0.0000000   3.1708789  )
        55           O   tau(  55) = (   0.5008990   0.2387265   3.2040854  )
        56           O   tau(  56) = (  -0.0008994   0.2387265   3.2040854  )

     number of k points=    25  Gaussian smearing, width (Ry)=  0.0100
                       cart. coord. in units 2pi/alat
        k(    1) = (   0.0000000   0.0000000   0.0000000), wk =   0.0312500
        k(    2) = (   0.0000000   0.2618060   0.0000000), wk =   0.0625000
        k(    3) = (   0.0000000   0.5236121   0.0000000), wk =   0.0625000
        k(    4) = (   0.0000000   0.7854181   0.0000000), wk =   0.0625000
        k(    5) = (   0.0000000  -1.0472241   0.0000000), wk =   0.0312500
        k(    6) = (   0.1250000   0.0000000   0.0000000), wk =   0.0625000
        k(    7) = (   0.1250000   0.2618060   0.0000000), wk =   0.1250000
        k(    8) = (   0.1250000   0.5236121   0.0000000), wk =   0.1250000
        k(    9) = (   0.1250000   0.7854181   0.0000000), wk =   0.1250000
        k(   10) = (   0.1250000  -1.0472241   0.0000000), wk =   0.0625000
        k(   11) = (   0.2500000   0.0000000   0.0000000), wk =   0.0625000
        k(   12) = (   0.2500000   0.2618060   0.0000000), wk =   0.1250000
        k(   13) = (   0.2500000   0.5236121   0.0000000), wk =   0.1250000
        k(   14) = (   0.2500000   0.7854181   0.0000000), wk =   0.1250000
        k(   15) = (   0.2500000  -1.0472241   0.0000000), wk =   0.0625000
        k(   16) = (   0.3750000   0.0000000   0.0000000), wk =   0.0625000
        k(   17) = (   0.3750000   0.2618060   0.0000000), wk =   0.1250000
        k(   18) = (   0.3750000   0.5236121   0.0000000), wk =   0.1250000
        k(   19) = (   0.3750000   0.7854181   0.0000000), wk =   0.1250000
        k(   20) = (   0.3750000  -1.0472241   0.0000000), wk =   0.0625000
        k(   21) = (  -0.5000000   0.0000000   0.0000000), wk =   0.0312500
        k(   22) = (  -0.5000000   0.2618060   0.0000000), wk =   0.0625000
        k(   23) = (  -0.5000000   0.5236121   0.0000000), wk =   0.0625000
        k(   24) = (  -0.5000000   0.7854181   0.0000000), wk =   0.0625000
        k(   25) = (  -0.5000000  -1.0472241   0.0000000), wk =   0.0312500

     Dense  grid:  2940889 G-vectors     FFT dimensions: ( 128,  64, 750)

     Smooth grid:   566335 G-vectors     FFT dimensions: (  80,  36, 432)

     Estimated max dynamical RAM per process >     852.05 MB

     Estimated total dynamical RAM >      26.63 GB

     Initial potential from superposition of free atoms

     starting charge  455.69457, renormalised to  456.00000

     negative rho (up, down):  9.341E-02 0.000E+00
     Starting wfcs are  396 randomized atomic wfcs

     total cpu time spent up to now is       26.4 secs

     Self-consistent Calculation

     iteration #  1     ecut=    60.00 Ry     beta= 0.50
     Davidson diagonalization with overlap
     ethr =  1.00E-02,  avg # of iterations =  2.0

     negative rho (up, down):  8.639E-02 0.000E+00

     total cpu time spent up to now is       72.5 secs

     total energy              =   -3708.29622097 Ry
     Harris-Foulkes estimate   =   -3716.52076652 Ry
     estimated scf accuracy    <      31.88062601 Ry

     iteration #  2     ecut=    60.00 Ry     beta= 0.50
     Davidson diagonalization with overlap
     ethr =  6.99E-03,  avg # of iterations =  2.0

     negative rho (up, down):  8.616E-02 0.000E+00

     total cpu time spent up to now is      118.1 secs

     total energy              =   -3711.06009113 Ry
     Harris-Foulkes estimate   =   -3712.40324449 Ry
     estimated scf accuracy    <       7.78014883 Ry

     iteration #  3     ecut=    60.00 Ry     beta= 0.50
     Davidson diagonalization with overlap
     ethr =  1.71E-03,  avg # of iterations =  1.8

     negative rho (up, down):  8.662E-02 0.000E+00

     total cpu time spent up to now is      162.3 secs

     total energy              =   -3711.66673229 Ry
     Harris-Foulkes estimate   =   -3711.97914486 Ry
     estimated scf accuracy    <       7.30911786 Ry

     iteration #  4     ecut=    60.00 Ry     beta= 0.50
     Davidson diagonalization with overlap
     ethr =  1.60E-03,  avg # of iterations =  1.0

     negative rho (up, down):  8.734E-02 0.000E+00

     total cpu time spent up to now is      204.2 secs

     total energy              =   -3711.72098595 Ry
     Harris-Foulkes estimate   =   -3711.81890306 Ry
     estimated scf accuracy    <       2.34485202 Ry

     iteration #  5     ecut=    60.00 Ry     beta= 0.50
     Davidson diagonalization with overlap
     ethr =  5.14E-04,  avg # of iterations =  1.2

     negative rho (up, down):  8.871E-02 0.000E+00

     total cpu time spent up to now is      246.8 secs

     total energy              =   -3711.66558499 Ry
     Harris-Foulkes estimate   =   -3711.79169606 Ry
     estimated scf accuracy    <       3.57173671 Ry

     iteration #  6     ecut=    60.00 Ry     beta= 0.50
     Davidson diagonalization with overlap
     ethr =  5.14E-04,  avg # of iterations =  1.3

     negative rho (up, down):  8.945E-02 0.000E+00

     total cpu time spent up to now is      289.3 secs

     total energy              =   -3711.69079611 Ry
     Harris-Foulkes estimate   =   -3711.71500504 Ry
     estimated scf accuracy    <       1.07544464 Ry

     iteration #  7     ecut=    60.00 Ry     beta= 0.50
     Davidson diagonalization with overlap
     ethr =  2.36E-04,  avg # of iterations =  6.0

     negative rho (up, down):  9.023E-02 0.000E+00

     total cpu time spent up to now is      346.1 secs

     total energy              =   -3711.68753742 Ry
     Harris-Foulkes estimate   =   -3711.70525939 Ry
     estimated scf accuracy    <       0.62632150 Ry

     iteration #  8     ecut=    60.00 Ry     beta= 0.50
     Davidson diagonalization with overlap
     ethr =  1.37E-04,  avg # of iterations =  6.4

     negative rho (up, down):  9.070E-02 0.000E+00

     total cpu time spent up to now is      403.6 secs

     total energy              =   -3711.68442713 Ry
     Harris-Foulkes estimate   =   -3711.69872877 Ry
     estimated scf accuracy    <       0.64763153 Ry

     iteration #  9     ecut=    60.00 Ry     beta= 0.50
     Davidson diagonalization with overlap
     ethr =  1.37E-04,  avg # of iterations =  1.2

     negative rho (up, down):  9.072E-02 0.000E+00

     total cpu time spent up to now is      445.7 secs

     total energy              =   -3711.67679539 Ry
     Harris-Foulkes estimate   =   -3711.68942879 Ry
     estimated scf accuracy    <       0.28034422 Ry

     iteration # 10     ecut=    60.00 Ry     beta= 0.50
     Davidson diagonalization with overlap
     ethr =  6.15E-05,  avg # of iterations =  8.0

     negative rho (up, down):  9.048E-02 0.000E+00

     total cpu time spent up to now is      508.2 secs

     total energy              =   -3711.67108532 Ry
     Harris-Foulkes estimate   =   -3711.68036293 Ry
     estimated scf accuracy    <       0.15512977 Ry

     iteration # 11     ecut=    60.00 Ry     beta= 0.50
     Davidson diagonalization with overlap
     ethr =  3.40E-05,  avg # of iterations =  7.6

     negative rho (up, down):  9.010E-02 0.000E+00

     total cpu time spent up to now is      569.9 secs

     total energy              =   -3711.67053286 Ry
     Harris-Foulkes estimate   =   -3711.67324925 Ry
     estimated scf accuracy    <       0.05416170 Ry

     iteration # 12     ecut=    60.00 Ry     beta= 0.50
     Davidson diagonalization with overlap
     c_bands:  1 eigenvalues not converged
     c_bands:  1 eigenvalues not converged
     ethr =  1.19E-05,  avg # of iterations =  8.9

     negative rho (up, down):  8.980E-02 0.000E+00

     total cpu time spent up to now is      634.2 secs

     total energy              =   -3711.66989386 Ry
     Harris-Foulkes estimate   =   -3711.67127096 Ry
     estimated scf accuracy    <       0.05146002 Ry

     iteration # 13     ecut=    60.00 Ry     beta= 0.50
     Davidson diagonalization with overlap
     ethr =  1.13E-05,  avg # of iterations =  1.2

     negative rho (up, down):  8.982E-02 0.000E+00

     total cpu time spent up to now is      676.1 secs

     total energy              =   -3711.66832357 Ry
     Harris-Foulkes estimate   =   -3711.67021648 Ry
     estimated scf accuracy    <       0.05481171 Ry

     iteration # 14     ecut=    60.00 Ry     beta= 0.50
     Davidson diagonalization with overlap
     c_bands:  1 eigenvalues not converged
     ethr =  1.13E-05,  avg # of iterations =  3.7

     negative rho (up, down):  9.101E-02 0.000E+00

     total cpu time spent up to now is      724.8 secs

     total energy              =   -3711.66727111 Ry
     Harris-Foulkes estimate   =   -3711.66857059 Ry
     estimated scf accuracy    <       0.05311631 Ry

     iteration # 15     ecut=    60.00 Ry     beta= 0.50
     Davidson diagonalization with overlap
     ethr =  1.13E-05,  avg # of iterations =  2.1

     negative rho (up, down):  9.803E-02 0.000E+00

     total cpu time spent up to now is      769.6 secs

     total energy              =   -3711.66487290 Ry
     Harris-Foulkes estimate   =   -3711.66737260 Ry
     estimated scf accuracy    <       0.04607550 Ry

     iteration # 16     ecut=    60.00 Ry     beta= 0.50
     Davidson diagonalization with overlap
     ethr =  1.01E-05,  avg # of iterations =  7.6

     negative rho (up, down):  1.018E-01 0.000E+00

     total cpu time spent up to now is      829.7 secs

     total energy              =   -3711.66354487 Ry
     Harris-Foulkes estimate   =   -3711.66507999 Ry
     estimated scf accuracy    <       0.03848363 Ry

     iteration # 17     ecut=    60.00 Ry     beta= 0.50
     Davidson diagonalization with overlap
     ethr =  8.44E-06,  avg # of iterations =  7.4

     negative rho (up, down):  1.153E-01 0.000E+00

     total cpu time spent up to now is      889.0 secs

     total energy              =   -3711.66199475 Ry
     Harris-Foulkes estimate   =   -3711.66364944 Ry
     estimated scf accuracy    <       0.02949819 Ry

     iteration # 18     ecut=    60.00 Ry     beta= 0.50
     Davidson diagonalization with overlap
     ethr =  6.47E-06,  avg # of iterations = 10.7

     negative rho (up, down):  1.102E-01 0.000E+00

     total cpu time spent up to now is      960.8 secs

     total energy              =   -3711.66159393 Ry
     Harris-Foulkes estimate   =   -3711.66220923 Ry
     estimated scf accuracy    <       0.01322788 Ry

     iteration # 19     ecut=    60.00 Ry     beta= 0.50
     Davidson diagonalization with overlap
     ethr =  2.90E-06,  avg # of iterations =  9.5

     negative rho (up, down):  1.016E-01 0.000E+00

     total cpu time spent up to now is     1026.8 secs

     total energy              =   -3711.66123537 Ry
     Harris-Foulkes estimate   =   -3711.66170041 Ry
     estimated scf accuracy    <       0.00489072 Ry

     iteration # 20     ecut=    60.00 Ry     beta= 0.50
     Davidson diagonalization with overlap
     c_bands:  1 eigenvalues not converged
     c_bands:  1 eigenvalues not converged
     c_bands:  1 eigenvalues not converged
     ethr =  1.07E-06,  avg # of iterations =  9.3

     negative rho (up, down):  9.229E-02 0.000E+00

     total cpu time spent up to now is     1092.4 secs

     total energy              =   -3711.66121550 Ry
     Harris-Foulkes estimate   =   -3711.66138140 Ry
     estimated scf accuracy    <       0.00318344 Ry

     iteration # 21     ecut=    60.00 Ry     beta= 0.50
     Davidson diagonalization with overlap
     c_bands:  1 eigenvalues not converged
     c_bands:  1 eigenvalues not converged
     c_bands:  2 eigenvalues not converged
     c_bands:  1 eigenvalues not converged
     c_bands:  1 eigenvalues not converged
     c_bands:  1 eigenvalues not converged
     c_bands:  1 eigenvalues not converged
     c_bands:  2 eigenvalues not converged
     ethr =  6.98E-07,  avg # of iterations = 13.4

     negative rho (up, down):  9.439E-02 0.000E+00

     total cpu time spent up to now is     1170.9 secs

     total energy              =   -3711.66125102 Ry
     Harris-Foulkes estimate   =   -3711.66129127 Ry
     estimated scf accuracy    <       0.00112373 Ry

     iteration # 22     ecut=    60.00 Ry     beta= 0.50
     Davidson diagonalization with overlap
     ethr =  2.46E-07,  avg # of iterations =  8.0

     negative rho (up, down):  9.510E-02 0.000E+00

     total cpu time spent up to now is     1232.3 secs

     total energy              =   -3711.66130232 Ry
     Harris-Foulkes estimate   =   -3711.66127189 Ry
     estimated scf accuracy    <       0.00040209 Ry

     iteration # 23     ecut=    60.00 Ry     beta= 0.50
     Davidson diagonalization with overlap
     ethr =  8.82E-08,  avg # of iterations =  3.0

     negative rho (up, down):  9.354E-02 0.000E+00

     total cpu time spent up to now is     1279.3 secs

     total energy              =   -3711.66126876 Ry
     Harris-Foulkes estimate   =   -3711.66130956 Ry
     estimated scf accuracy    <       0.00023031 Ry

     iteration # 24     ecut=    60.00 Ry     beta= 0.50
     Davidson diagonalization with overlap
     c_bands:  1 eigenvalues not converged
     ethr =  5.05E-08,  avg # of iterations =  5.5

     negative rho (up, down):  9.277E-02 0.000E+00

     total cpu time spent up to now is     1332.9 secs

     total energy              =   -3711.66125624 Ry
     Harris-Foulkes estimate   =   -3711.66127278 Ry
     estimated scf accuracy    <       0.00012350 Ry

     iteration # 25     ecut=    60.00 Ry     beta= 0.50
     Davidson diagonalization with overlap
     c_bands:  1 eigenvalues not converged
     ethr =  2.71E-08,  avg # of iterations =  5.1

     negative rho (up, down):  9.226E-02 0.000E+00

     total cpu time spent up to now is     1385.0 secs

     total energy              =   -3711.66125277 Ry
     Harris-Foulkes estimate   =   -3711.66125856 Ry
     estimated scf accuracy    <       0.00004887 Ry

     iteration # 26     ecut=    60.00 Ry     beta= 0.50
     Davidson diagonalization with overlap
     ethr =  1.07E-08,  avg # of iterations =  2.0

     negative rho (up, down):  9.232E-02 0.000E+00

     total cpu time spent up to now is     1430.2 secs

     total energy              =   -3711.66125377 Ry
     Harris-Foulkes estimate   =   -3711.66125509 Ry
     estimated scf accuracy    <       0.00000971 Ry

     iteration # 27     ecut=    60.00 Ry     beta= 0.50
     Davidson diagonalization with overlap
     ethr =  2.13E-09,  avg # of iterations =  2.3

     negative rho (up, down):  9.209E-02 0.000E+00

     total cpu time spent up to now is     1475.3 secs

     total energy              =   -3711.66125440 Ry
     Harris-Foulkes estimate   =   -3711.66125443 Ry
     estimated scf accuracy    <       0.00000490 Ry

     iteration # 28     ecut=    60.00 Ry     beta= 0.50
     Davidson diagonalization with overlap
     ethr =  1.08E-09,  avg # of iterations =  1.6

     negative rho (up, down):  9.214E-02 0.000E+00

     total cpu time spent up to now is     1517.9 secs

     total energy              =   -3711.66125444 Ry
     Harris-Foulkes estimate   =   -3711.66125460 Ry
     estimated scf accuracy    <       0.00000158 Ry

     iteration # 29     ecut=    60.00 Ry     beta= 0.50
     Davidson diagonalization with overlap
     ethr =  3.46E-10,  avg # of iterations =  2.4

     negative rho (up, down):  9.216E-02 0.000E+00

     total cpu time spent up to now is     1563.7 secs

     total energy              =   -3711.66125448 Ry
     Harris-Foulkes estimate   =   -3711.66125451 Ry
     estimated scf accuracy    <       0.00000069 Ry

     iteration # 30     ecut=    60.00 Ry     beta= 0.50
     Davidson diagonalization with overlap
     ethr =  1.52E-10,  avg # of iterations =  2.0

     negative rho (up, down):  9.217E-02 0.000E+00

     total cpu time spent up to now is     1607.8 secs

     total energy              =   -3711.66125449 Ry
     Harris-Foulkes estimate   =   -3711.66125450 Ry
     estimated scf accuracy    <       0.00000054 Ry

     iteration # 31     ecut=    60.00 Ry     beta= 0.50
     Davidson diagonalization with overlap
     ethr =  1.19E-10,  avg # of iterations =  1.0

     negative rho (up, down):  9.219E-02 0.000E+00

     total cpu time spent up to now is     1649.1 secs

     total energy              =   -3711.66125448 Ry
     Harris-Foulkes estimate   =   -3711.66125450 Ry
     estimated scf accuracy    <       0.00000023 Ry

     iteration # 32     ecut=    60.00 Ry     beta= 0.50
     Davidson diagonalization with overlap
     ethr =  4.94E-11,  avg # of iterations =  1.6

     negative rho (up, down):  9.222E-02 0.000E+00

     total cpu time spent up to now is     1691.8 secs

     total energy              =   -3711.66125444 Ry
     Harris-Foulkes estimate   =   -3711.66125449 Ry
     estimated scf accuracy    <       0.00000008 Ry

     iteration # 33     ecut=    60.00 Ry     beta= 0.50
     Davidson diagonalization with overlap
     ethr =  1.77E-11,  avg # of iterations =  2.6

     negative rho (up, down):  9.220E-02 0.000E+00

     total cpu time spent up to now is     1737.7 secs

     total energy              =   -3711.66125446 Ry
     Harris-Foulkes estimate   =   -3711.66125445 Ry
     estimated scf accuracy    <       0.00000001 Ry

     iteration # 34     ecut=    60.00 Ry     beta= 0.50
     Davidson diagonalization with overlap
     ethr =  3.01E-12,  avg # of iterations =  3.1

     negative rho (up, down):  9.220E-02 0.000E+00

     total cpu time spent up to now is     1791.5 secs

     total energy              =   -3711.66125446 Ry
     Harris-Foulkes estimate   =   -3711.66125446 Ry
     estimated scf accuracy    <       0.00000002 Ry

     iteration # 35     ecut=    60.00 Ry     beta= 0.50
     Davidson diagonalization with overlap
     ethr =  3.01E-12,  avg # of iterations =  1.0

     negative rho (up, down):  9.220E-02 0.000E+00

     total cpu time spent up to now is     1833.1 secs

     total energy              =   -3711.66125447 Ry
     Harris-Foulkes estimate   =   -3711.66125446 Ry
     estimated scf accuracy    <       0.00000001 Ry

     iteration # 36     ecut=    60.00 Ry     beta= 0.50
     Davidson diagonalization with overlap
     ethr =  2.50E-12,  avg # of iterations =  1.0

     negative rho (up, down):  9.217E-02 0.000E+00

     total cpu time spent up to now is     1874.0 secs

     End of self-consistent calculation

          k = 0.0000 0.0000 0.0000 ( 70809 PWs)   bands (ev):

   -38.1234 -37.8672 -35.7511 -35.4608 -23.9115 -23.5770 -22.9065 -22.8868
   -22.7782 -22.7589 -22.7247 -22.5752 -18.5986 -18.4943 -18.3135 -18.2559
   -18.1265 -17.8789 -17.0991 -16.9637 -16.7808 -16.7796 -16.6933 -16.5021
   -15.5087 -15.3003 -15.1504 -15.0646 -15.0306 -14.9972 -14.7568 -14.6539
   -14.6233 -14.5770 -14.5593 -14.5443 -14.4158 -14.4109 -14.2793 -14.1965
   -14.1355 -14.1103 -14.1056 -14.0831 -14.0825 -14.0717 -14.0542 -14.0348
   -13.9868 -13.8529 -13.7470 -13.7101 -13.7008 -13.4907  -9.2468  -8.8527
    -8.6998  -8.6495  -8.3987  -8.3461  -8.1447  -8.1208  -8.0377  -8.0155
    -7.9993  -7.9559  -7.9381  -7.9094  -7.8178  -7.7986  -7.7215  -7.7196
    -7.7035  -7.5993  -7.5798  -7.5606  -7.5352  -7.3775  -3.0756  -3.0395
    -2.9122  -2.5697  -2.2627  -2.2524  -2.1755  -2.1701  -2.1362  -2.0898
    -2.0681  -2.0273  -1.9741  -1.9332  -1.8982  -1.8532  -1.7587  -1.7583
    -1.7265  -1.7014  -1.6588  -1.6545  -1.6508  -1.6258  -1.5353  -1.4236
    -1.3716  -1.3008  -1.2624  -1.1982  -1.1592  -1.1105  -1.0573  -1.0404
    -1.0111  -1.0106  -1.0102  -1.0087  -0.9751  -0.9356  -0.9270  -0.8501
    -0.8276  -0.8119  -0.7835  -0.7788  -0.7731  -0.7627  -0.6633  -0.6183
    -0.6072  -0.5072  -0.4292  -0.3596  -0.3441  -0.3400  -0.2799  -0.2547
    -0.2250  -0.2207  -0.2197  -0.2162  -0.1641  -0.1346  -0.1301  -0.0907
    -0.0571  -0.0447  -0.0324  -0.0317  -0.0243   0.0023   0.0339   0.0866
     0.0876   0.0956   0.1204   0.1250   0.1283   0.1477   0.1830   0.1845
     0.2218   0.2237   0.2379   0.2855   0.3162   0.3261   0.3438   0.4039
     0.4552   0.4599   0.4948   0.5012   0.5075   0.5141   0.5167   0.5176
     0.6295   0.6299   0.6401   0.7330   0.7901   0.9213   0.9386   0.9523
     0.9688   1.0001   1.0014   1.0480   1.0651   1.0687   1.1173   1.1378
     1.1738   1.1877   1.1947   1.2489   1.2661   1.2683   1.2713   1.3178
     1.3185   1.3568   1.3780   1.3804   1.3939   1.4278   1.5448   1.5539
     1.5944   1.6792   1.6837   1.7046   1.7537   1.7626   1.7817   1.7984
     1.8023   1.8282   1.8614   1.8790   1.8860   2.0173   2.0248   2.0329
     2.0461   2.1643   2.1943   2.2192   2.2506   2.2732   2.3499   2.3841
     2.5433   2.5452   2.5497   2.5949   2.8291   2.8313   4.9028   5.1923
     5.2270   5.6383   5.8180   6.0367   6.5344   6.5953   6.6230   6.7024
     6.8035   7.2411   7.2552   7.3348   7.3360   7.3579   7.5602   7.7705
     7.9162   8.0343   8.0695   8.1040   8.1735   8.2058   8.2911   8.3210
     8.4210   8.4600   8.5160   8.6121   8.6167   8.9245   8.9391   8.9708
     9.0950   9.1494

          k = 0.0000 0.2618 0.0000 ( 70825 PWs)   bands (ev):

   -38.1207 -37.8645 -35.7494 -35.4591 -23.8924 -23.5591 -22.8820 -22.8622
   -22.7591 -22.7399 -22.7011 -22.5565 -18.5599 -18.4870 -18.2746 -18.2486
   -18.2374 -17.9899 -17.0696 -16.9593 -16.8468 -16.7498 -16.6888 -16.5681
   -15.4026 -15.2038 -15.0817 -15.0080 -14.9738 -14.9497 -14.7181 -14.6518
   -14.5879 -14.5641 -14.5363 -14.4897 -14.3780 -14.3454 -14.2591 -14.1921
   -14.1461 -14.1206 -14.0962 -14.0770 -14.0753 -14.0608 -14.0549 -14.0253
   -14.0065 -13.8551 -13.8013 -13.7705 -13.7474 -13.5059  -9.2326  -8.8432
    -8.7257  -8.7153  -8.5084  -8.4658  -8.1380  -8.1146  -8.0500  -8.0290
    -8.0110  -7.9123  -7.8989  -7.8947  -7.8601  -7.8532  -7.8404  -7.8350
    -7.7870  -7.7683  -7.7026  -7.6409  -7.6293  -7.5912  -3.1766  -3.1218
    -2.9740  -2.6182  -2.3821  -2.3478  -2.2979  -2.2751  -2.2623  -2.1521
    -2.1374  -2.1207  -2.1013  -2.0675  -2.0337  -2.0250  -1.9952  -1.9611
    -1.9518  -1.8358  -1.7900  -1.7295  -1.7060  -1.6357  -1.5872  -1.5509
    -1.4576  -1.4559  -1.4442  -1.4346  -1.4252  -1.4236  -1.3957  -1.3585
    -1.3520  -1.3473  -1.1872  -1.0981  -0.9916  -0.9216  -0.8736  -0.8260
    -0.8058  -0.7945  -0.7293  -0.7108  -0.6999  -0.6983  -0.6108  -0.6036
    -0.5718  -0.5326  -0.4362  -0.4350  -0.4296  -0.4132  -0.3881  -0.3631
    -0.3593  -0.3279  -0.3046  -0.2360  -0.2118  -0.1816  -0.1803  -0.1524
    -0.1215  -0.0964  -0.0507  -0.0283  -0.0267   0.0443   0.0620   0.0941
     0.1206   0.1265   0.1316   0.1509   0.1706   0.2253   0.2469   0.2483
     0.2840   0.2868   0.3475   0.3479   0.3526   0.3531   0.3806   0.3954
     0.4219   0.4259   0.5371   0.5410   0.5695   0.5987   0.6066   0.6279
     0.6282   0.7450   0.7719   0.8082   0.8404   0.9037   0.9272   0.9409
     0.9809   0.9847   1.0746   1.1004   1.1243   1.1423   1.1445   1.1796
     1.1968   1.2009   1.2256   1.2752   1.3045   1.3250   1.3583   1.3599
     1.3868   1.4005   1.4269   1.4321   1.4345   1.4876   1.4886   1.5167
     1.5229   1.6510   1.6658   1.6917   1.7020   1.7074   1.7859   1.7943
     1.8063   1.8253   1.8612   1.8813   1.9150   1.9485   2.0051   2.0506
     2.1381   2.1996   2.2800   2.3869   2.7668   2.7687   2.7858   2.8425
     2.8529   2.8817   2.9387   2.9907   3.1463   3.2403   5.1717   5.5749
     5.5871   5.9244   6.0438   6.2075   6.6952   6.7186   6.8996   6.9254
     7.0249   7.0765   7.0871   7.4419   7.5371   7.5505   7.6174   7.7270
     7.8118   7.8771   8.1225   8.1751   8.2115   8.2854   8.3673   8.4350
     8.5898   8.6581   8.7162   8.7767   8.8308   8.8610   8.8821   9.0782
     9.1363   9.2480

          k = 0.0000 0.5236 0.0000 ( 70701 PWs)   bands (ev):

   -38.1142 -37.8580 -35.7453 -35.4550 -23.8458 -23.5154 -22.8214 -22.8016
   -22.7123 -22.6931 -22.6431 -22.5104 -18.4776 -18.4696 -18.4601 -18.2316
   -18.2310 -18.1732 -16.9998 -16.9864 -16.9489 -16.7166 -16.6780 -16.6700
   -15.1619 -14.9979 -14.8968 -14.8557 -14.8235 -14.8225 -14.7101 -14.6243
   -14.6193 -14.5352 -14.5056 -14.3147 -14.2854 -14.2773 -14.2662 -14.2398
   -14.1850 -14.1217 -14.0879 -14.0488 -14.0445 -14.0154 -14.0122 -13.9940
   -13.9617 -13.9315 -13.8999 -13.8798 -13.7746 -13.5335  -9.1940  -9.1098
    -8.9036  -8.7871  -8.6785  -8.4722  -8.3254  -8.3058  -8.1658  -8.1481
    -8.1303  -8.1011  -8.0779  -8.0305  -8.0103  -7.9699  -7.9418  -7.9245
    -7.9056  -7.8638  -7.7954  -7.7772  -7.7261  -7.5595  -3.5701  -3.4653
    -3.2189  -2.8716  -2.8530  -2.8237  -2.7895  -2.6874  -2.6595  -2.4947
    -2.4656  -2.3797  -2.3474  -2.3105  -2.3060  -2.2687  -2.2682  -2.1359
    -2.1264  -2.1243  -2.1163  -2.1109  -2.0779  -2.0676  -2.0116  -1.8938
    -1.8251  -1.7427  -1.7238  -1.7092  -1.6390  -1.5874  -1.5392  -1.5221
    -1.4340  -1.2897  -1.2727  -1.1788  -1.0265  -1.0007  -0.9615  -0.9613
    -0.9227  -0.9181  -0.8872  -0.8764  -0.8724  -0.7691  -0.7487  -0.6936
    -0.6770  -0.6359  -0.6296  -0.6006  -0.5756  -0.5596  -0.5493  -0.5491
    -0.4985  -0.4816  -0.4705  -0.4623  -0.4323  -0.3787  -0.3781  -0.3655
    -0.3350  -0.3136  -0.2901  -0.2708  -0.1942   0.0170   0.0750   0.1061
     0.1465   0.1613   0.1769   0.1793   0.1857   0.2238   0.2568   0.2816
     0.3295   0.3735   0.4941   0.5073   0.5446   0.5646   0.5896   0.6406
     0.6739   0.7410   0.7479   0.7988   0.7994   0.8210   0.8975   0.9036
     0.9913   1.0049   1.0256   1.0347   1.0845   1.1540   1.1644   1.1863
     1.2036   1.2153   1.2164   1.2223   1.2244   1.2351   1.2418   1.2640
     1.3340   1.3445   1.3568   1.3797   1.3982   1.4192   1.4302   1.4469
     1.4916   1.4971   1.5330   1.5573   1.5914   1.5940   1.6306   1.6901
     1.7221   1.7503   1.7780   1.7842   1.7995   1.8228   1.8509   1.8565
     1.8808   1.8830   1.9981   2.0157   2.0349   2.0432   2.0443   2.0642
     2.1147   2.2409   2.4055   2.4682   3.0433   3.0459   3.0805   3.0892
     3.4889   3.5424   3.7918   3.8239   3.9103   4.0795   5.4607   6.1326
     6.4751   6.4782   6.5951   6.6020   6.6394   6.6707   6.9204   7.0612
     7.0839   7.3225   7.4202   7.4487   7.7758   7.8020   8.0503   8.1499
     8.3860   8.3916   8.4070   8.5842   8.5850   8.5967   8.6536   8.6628
     8.7009   8.8015   8.8371   8.8910   8.9381   9.0379   9.1448   9.2011
     9.2197   9.3721

          k = 0.0000 0.7854 0.0000 ( 70706 PWs)   bands (ev):

   -38.1077 -37.8514 -35.7412 -35.4508 -23.7983 -23.4706 -22.7590 -22.7391
   -22.6643 -22.6452 -22.5835 -22.4633 -18.6864 -18.4521 -18.4403 -18.3543
   -18.2135 -18.0670 -17.1215 -16.9385 -16.9132 -16.8437 -16.6673 -16.5902
   -14.9437 -14.8783 -14.8148 -14.6909 -14.6624 -14.6503 -14.6375 -14.6338
   -14.6049 -14.5375 -14.4416 -14.3876 -14.3859 -14.2300 -14.2291 -14.2049
   -14.1934 -14.1553 -14.0986 -13.9995 -13.9994 -13.9758 -13.9706 -13.9656
   -13.9653 -13.9587 -13.8866 -13.8465 -13.7454 -13.5358  -9.5062  -9.1633
    -9.1434  -8.7992  -8.7204  -8.7152  -8.7009  -8.5037  -8.4608  -8.4430
    -8.4110  -8.1911  -8.1051  -8.0822  -8.0373  -8.0195  -8.0147  -7.9937
    -7.9746  -7.8428  -7.7988  -7.6742  -7.6559  -7.4485  -4.0546  -3.9370
    -3.6227  -3.3498  -3.2682  -3.2600  -3.2347  -3.2236  -3.0245  -2.8856
    -2.8851  -2.8198  -2.8192  -2.7528  -2.6401  -2.6218  -2.4738  -2.3813
    -2.2517  -2.2497  -2.2333  -2.2228  -2.1663  -2.1608  -2.0964  -2.0786
    -1.9968  -1.9169  -1.7867  -1.7699  -1.6922  -1.6878  -1.6796  -1.5991
    -1.5089  -1.2454  -1.2244  -1.2186  -1.2117  -1.1741  -1.1459  -1.1045
    -1.0794  -1.0624  -1.0532  -1.0361  -1.0224  -0.9929  -0.9501  -0.8978
    -0.8426  -0.8360  -0.8118  -0.7742  -0.7708  -0.7630  -0.7418  -0.7342
    -0.6288  -0.6283  -0.6270  -0.6026  -0.5893  -0.5591  -0.5157  -0.4704
    -0.4366  -0.4301  -0.2807  -0.2367  -0.2338  -0.0262  -0.0204   0.0318
     0.1309   0.1711   0.1713   0.1887   0.2064   0.2493   0.2652   0.3227
     0.3359   0.4930   0.5829   0.5964   0.6272   0.7009   0.7580   0.7882
     0.8381   0.8614   0.9619   0.9717   0.9735   1.0056   1.0372   1.0642
     1.0813   1.1148   1.2212   1.2239   1.2510   1.2620   1.3024   1.3054
     1.3295   1.3494   1.3540   1.3805   1.4483   1.4539   1.4746   1.4931
     1.5158   1.5522   1.6153   1.6171   1.6383   1.6895   1.7039   1.7050
     1.7257   1.7285   1.7553   1.7843   1.7876   1.7919   1.8052   1.8256
     1.8257   1.8923   1.9307   1.9893   2.0007   2.0139   2.0281   2.0295
     2.0819   2.1018   2.1216   2.1550   2.1800   2.2229   2.2247   2.3583
     2.3992   2.4285   2.4468   2.4472   2.8897   2.8929   2.9934   3.0017
     3.8184   3.8702   4.4377   4.4702   4.5007   4.6714   5.2596   6.0635
     6.0728   6.4680   6.4748   6.7093   6.7720   7.3623   7.3991   7.4162
     7.4738   7.7527   7.8294   7.9830   8.1260   8.3151   8.4249   8.5545
     8.5782   8.6136   8.6565   8.7526   8.7975   8.8761   8.8925   8.9234
     9.0105   9.1246   9.1366   9.1616   9.2409   9.3140   9.4259   9.4393
     9.5365   9.6013

          k = 0.0000-1.0472 0.0000 ( 70762 PWs)   bands (ev):

   -38.1050 -37.8487 -35.7395 -35.4491 -23.7783 -23.4517 -22.7327 -22.7127
   -22.6441 -22.6250 -22.5583 -22.4434 -18.7669 -18.5209 -18.4449 -18.3071
   -18.2063 -18.0195 -17.1719 -16.9343 -16.8939 -16.8775 -16.6629 -16.5541
   -14.9499 -14.9003 -14.7521 -14.6741 -14.5916 -14.5876 -14.5386 -14.5205
   -14.5139 -14.4944 -14.4529 -14.4503 -14.4474 -14.3147 -14.2501 -14.2249
   -14.2103 -14.1561 -14.0355 -14.0346 -13.9896 -13.9698 -13.9661 -13.9489
   -13.9475 -13.8947 -13.8390 -13.8090 -13.7647 -13.5173  -9.6633  -9.2750
    -9.1158  -8.8737  -8.8541  -8.8310  -8.7020  -8.6566  -8.5796  -8.5617
    -8.4045  -8.2664  -8.1113  -8.0874  -8.0355  -8.0249  -8.0213  -8.0079
    -8.0023  -7.8427  -7.8166  -7.6216  -7.6032  -7.4000  -4.2568  -4.1391
    -3.8093  -3.5578  -3.4488  -3.4299  -3.4266  -3.3952  -3.1706  -3.1208
    -3.1180  -3.0501  -3.0494  -2.9000  -2.6688  -2.6510  -2.5074  -2.4960
    -2.3712  -2.2679  -2.2555  -2.2505  -2.1536  -2.1480  -2.1090  -2.1047
    -2.0782  -1.9839  -1.8992  -1.8843  -1.7622  -1.7207  -1.6052  -1.5003
    -1.3545  -1.3281  -1.3252  -1.2831  -1.2752  -1.2480  -1.2441  -1.2071
    -1.1525  -1.1275  -1.0815  -1.0808  -1.0744  -1.0578  -1.0244  -0.9910
    -0.9569  -0.9256  -0.8680  -0.8595  -0.8581  -0.8464  -0.8448  -0.7320
    -0.7311  -0.7170  -0.7160  -0.6940  -0.6453  -0.5607  -0.5222  -0.4530
    -0.4391  -0.3987  -0.2775  -0.2009  -0.1992  -0.1222  -0.1011  -0.0408
     0.1263   0.1431   0.1867   0.1951   0.2237   0.2569   0.2664   0.2888
     0.3760   0.4705   0.5549   0.5908   0.6128   0.7178   0.8476   0.8677
     0.8791   0.8911   0.9239   1.0227   1.0673   1.1004   1.1488   1.1547
     1.1956   1.2144   1.2468   1.2764   1.3126   1.3423   1.3631   1.3743
     1.3770   1.3792   1.4243   1.4285   1.4415   1.4583   1.5082   1.5148
     1.5683   1.6591   1.6775   1.7044   1.7668   1.7772   1.7818   1.7940
     1.8025   1.8608   1.8914   1.8920   1.9184   1.9319   1.9570   1.9654
     2.0155   2.0178   2.0319   2.1481   2.1526   2.1599   2.1646   2.1831
     2.1955   2.2068   2.2164   2.2244   2.2282   2.2595   2.3283   2.4261
     2.4264   2.5782   2.6100   2.6106   2.6550   2.6614   2.8242   2.8319
     3.8515   3.9337   4.6433   4.6842   4.7121   4.8691   5.1818   5.8243
     5.8335   6.3770   6.4940   6.5978   7.0473   7.3514   7.3954   7.7220
     7.8032   7.8136   8.1313   8.1634   8.2195   8.3637   8.5129   8.6028
     8.7652   8.7913   8.8278   8.8738   8.9051   8.9639   9.0530   9.1119
     9.1327   9.1791   9.2182   9.2234   9.2476   9.3031   9.3459   9.4417
     9.5169   9.7050

          k = 0.1250 0.0000 0.0000 ( 70775 PWs)   bands (ev):

   -38.1234 -37.8672 -35.7511 -35.4608 -23.9105 -23.5781 -22.9020 -22.8823
   -22.7830 -22.7638 -22.7213 -22.5789 -18.5979 -18.4911 -18.3128 -18.2528
   -18.1265 -17.8789 -17.1021 -16.9757 -16.7828 -16.7808 -16.7057 -16.5021
   -15.4812 -15.2742 -15.1414 -15.0510 -15.0166 -15.0006 -14.7493 -14.6661
   -14.6271 -14.6242 -14.5705 -14.5523 -14.4181 -14.3818 -14.2855 -14.1918
   -14.1233 -14.1187 -14.0962 -14.0888 -14.0797 -14.0731 -14.0586 -14.0337
   -13.9918 -13.8527 -13.7630 -13.7092 -13.7056 -13.4903  -9.2497  -8.8649
    -8.6824  -8.6460  -8.4001  -8.3502  -8.1470  -8.1231  -8.0419  -8.0199
    -8.0033  -7.9422  -7.9242  -7.9173  -7.8095  -7.7903  -7.7280  -7.7100
    -7.7049  -7.5917  -7.5892  -7.5700  -7.5374  -7.3860  -3.0408  -3.0044
    -2.8794  -2.5341  -2.2588  -2.2475  -2.1942  -2.1868  -2.1325  -2.1035
    -2.0723  -2.0245  -1.9895  -1.9309  -1.9104  -1.8949  -1.7661  -1.7658
    -1.7458  -1.6984  -1.6656  -1.6543  -1.6512  -1.6061  -1.5193  -1.4663
    -1.4270  -1.2921  -1.2796  -1.1523  -1.1389  -1.0674  -1.0626  -1.0321
    -1.0098  -1.0082  -1.0081  -1.0072  -0.9577  -0.9508  -0.9248  -0.8647
    -0.8098  -0.7874  -0.7814  -0.7652  -0.7635  -0.7590  -0.6385  -0.6206
    -0.5692  -0.5076  -0.4117  -0.3964  -0.3830  -0.3409  -0.2898  -0.2745
    -0.2664  -0.2436  -0.2384  -0.2352  -0.1663  -0.1527  -0.1252  -0.1137
    -0.0522  -0.0489  -0.0366  -0.0355  -0.0282  -0.0084  -0.0068   0.0577
     0.0708   0.1376   0.1444   0.1458   0.1655   0.1707   0.1855   0.1862
     0.2216   0.2229   0.2565   0.2694   0.3319   0.3545   0.3553   0.4192
     0.4323   0.4433   0.4655   0.4896   0.4951   0.4953   0.5276   0.5501
     0.6286   0.6568   0.6903   0.7146   0.8158   0.8604   0.8998   0.9380
     0.9567   0.9980   1.0272   1.0477   1.0479   1.0673   1.0805   1.1266
     1.1393   1.1666   1.1919   1.2212   1.2303   1.2875   1.2929   1.2976
     1.3325   1.3578   1.3753   1.3842   1.4269   1.4531   1.5339   1.5847
     1.6572   1.6767   1.6993   1.7024   1.7130   1.7492   1.7800   1.7815
     1.8150   1.8166   1.8604   1.8758   1.8784   2.0116   2.0201   2.0321
     2.0611   2.1770   2.1987   2.2070   2.2635   2.2638   2.3484   2.3844
     2.5459   2.5525   2.5580   2.6059   2.8244   2.8282   4.9598   5.2421
     5.2716   5.6918   5.8690   6.0485   6.5310   6.6418   6.6739   6.7203
     6.8441   6.8764   6.8815   7.3441   7.5125   7.6980   7.7034   7.7541
     7.9077   8.0133   8.0897   8.1052   8.1673   8.2139   8.2899   8.3221
     8.3943   8.4634   8.5828   8.6149   8.6624   8.8487   8.9075   8.9900
     9.0607   9.1072

          k = 0.1250 0.2618 0.0000 ( 70783 PWs)   bands (ev):

   -38.1207 -37.8645 -35.7494 -35.4591 -23.8915 -23.5602 -22.8777 -22.8579
   -22.7636 -22.7444 -22.6979 -22.5600 -18.5592 -18.4839 -18.2739 -18.2455
   -18.2374 -17.9899 -17.0725 -16.9708 -16.8467 -16.7529 -16.7006 -16.5680
   -15.3759 -15.1791 -15.0737 -14.9965 -14.9621 -14.9526 -14.7114 -14.6576
   -14.5909 -14.5711 -14.5500 -14.5406 -14.3527 -14.3382 -14.2608 -14.1876
   -14.1485 -14.1268 -14.0865 -14.0759 -14.0746 -14.0625 -14.0562 -14.0287
   -14.0124 -13.8576 -13.8130 -13.7713 -13.7448 -13.5048  -9.2340  -8.8537
    -8.7567  -8.7155  -8.4856  -8.4445  -8.1399  -8.1166  -8.0558  -8.0352
    -8.0146  -7.9683  -7.9499  -7.9051  -7.8955  -7.8769  -7.7975  -7.7786
    -7.7406  -7.7404  -7.7219  -7.6940  -7.5706  -7.5472  -3.1407  -3.0852
    -2.9387  -2.5810  -2.3908  -2.3565  -2.3034  -2.2665  -2.2544  -2.1606
    -2.1423  -2.1192  -2.1013  -2.0704  -2.0379  -2.0280  -2.0018  -1.9662
    -1.9588  -1.8716  -1.8174  -1.7907  -1.7004  -1.6558  -1.5809  -1.5355
    -1.4558  -1.4517  -1.4283  -1.4266  -1.4159  -1.4128  -1.4115  -1.3899
    -1.3317  -1.3258  -1.1927  -1.0937  -0.9686  -0.9199  -0.8839  -0.8215
    -0.8160  -0.7844  -0.7523  -0.7030  -0.6880  -0.6743  -0.6461  -0.6234
    -0.6002  -0.5371  -0.4644  -0.4461  -0.4259  -0.4190  -0.4035  -0.3726
    -0.3659  -0.3439  -0.3310  -0.2547  -0.1919  -0.1872  -0.1725  -0.1518
    -0.1276  -0.0731  -0.0559  -0.0295  -0.0280   0.0377   0.0493   0.0727
     0.1215   0.1303   0.1392   0.1416   0.1857   0.2094   0.2598   0.2608
     0.2665   0.3025   0.3460   0.3465   0.3504   0.3789   0.3969   0.4027
     0.4296   0.4433   0.4681   0.5332   0.5571   0.5918   0.6057   0.6132
     0.6190   0.7485   0.8214   0.8339   0.8638   0.9136   0.9196   0.9500
     0.9928   1.0090   1.0582   1.0724   1.0799   1.1391   1.1648   1.1807
     1.1869   1.2133   1.2375   1.2448   1.2949   1.3067   1.3114   1.3681
     1.3706   1.3734   1.3939   1.4119   1.4584   1.4764   1.5168   1.5455
     1.5692   1.6572   1.6667   1.6885   1.6958   1.7116   1.7503   1.7686
     1.7735   1.7931   1.8241   1.8748   1.9110   2.0475   2.0707   2.1035
     2.1167   2.2229   2.3314   2.4814   2.7621   2.7748   2.7837   2.8450
     2.8548   2.8794   2.9366   2.9875   3.1378   3.2382   5.2114   5.6121
     5.6226   5.9689   6.0650   6.2386   6.6815   6.7408   6.9098   6.9157
     6.9501   6.9785   7.0612   7.4058   7.5485   7.6068   7.7537   7.7653
     7.8479   7.8845   8.1472   8.1794   8.2306   8.2847   8.3510   8.4386
     8.5627   8.6344   8.7421   8.7842   8.8179   8.8482   8.9176   9.0431
     9.1091   9.1247

          k = 0.1250 0.5236 0.0000 ( 70698 PWs)   bands (ev):

   -38.1142 -37.8580 -35.7453 -35.4550 -23.8451 -23.5163 -22.8177 -22.7978
   -22.7162 -22.6971 -22.6403 -22.5134 -18.4776 -18.4665 -18.4596 -18.2316
   -18.2280 -18.1726 -17.0014 -16.9873 -16.9590 -16.7169 -16.6884 -16.6724
   -15.1374 -14.9777 -14.8910 -14.8509 -14.8248 -14.8177 -14.7082 -14.6190
   -14.6173 -14.5352 -14.5031 -14.3756 -14.2967 -14.2731 -14.2424 -14.2223
   -14.1857 -14.1205 -14.0966 -14.0473 -14.0448 -14.0150 -14.0132 -13.9926
   -13.9611 -13.9534 -13.9045 -13.8796 -13.7681 -13.5310  -9.1942  -9.1288
    -8.8882  -8.7875  -8.7021  -8.4459  -8.3591  -8.3400  -8.1518  -8.1205
    -8.1006  -8.0887  -8.0673  -8.0369  -8.0169  -7.9932  -7.9849  -7.9740
    -7.8793  -7.8636  -7.7902  -7.7433  -7.7249  -7.5209  -3.5345  -3.4295
    -3.1820  -2.8809  -2.8341  -2.8123  -2.7877  -2.6891  -2.6627  -2.4895
    -2.4613  -2.3815  -2.3449  -2.3115  -2.3067  -2.2685  -2.2672  -2.1327
    -2.1270  -2.1246  -2.1152  -2.1097  -2.0808  -2.0670  -1.9792  -1.8646
    -1.8636  -1.7726  -1.7295  -1.7160  -1.6936  -1.5832  -1.5366  -1.5196
    -1.4155  -1.3580  -1.2797  -1.1870  -1.0437  -1.0067  -0.9691  -0.9647
    -0.9278  -0.9188  -0.8997  -0.8780  -0.8648  -0.7758  -0.7513  -0.7412
    -0.7127  -0.6572  -0.6416  -0.6280  -0.6101  -0.5824  -0.5429  -0.5426
    -0.5073  -0.4817  -0.4684  -0.4658  -0.4366  -0.4300  -0.3889  -0.3747
    -0.3105  -0.3046  -0.2803  -0.2309  -0.1999   0.0409   0.0626   0.1216
     0.1299   0.1443   0.1486   0.1653   0.1940   0.2309   0.2858   0.2990
     0.3475   0.3939   0.4774   0.4968   0.5117   0.5568   0.5946   0.6334
     0.6494   0.7285   0.7404   0.8136   0.8308   0.8557   0.8591   0.9576
     0.9808   0.9949   1.0394   1.0526   1.1239   1.1334   1.1361   1.1593
     1.1690   1.1766   1.2183   1.2207   1.2608   1.2658   1.2841   1.3040
     1.3260   1.3354   1.3691   1.3835   1.3864   1.4198   1.4313   1.4458
     1.4838   1.4974   1.4995   1.5531   1.5696   1.6055   1.6189   1.6645
     1.7222   1.7257   1.7569   1.7891   1.7960   1.8030   1.8318   1.8536
     1.9306   1.9385   1.9618   2.0337   2.0348   2.0456   2.0817   2.1796
     2.1924   2.2542   2.4918   2.6016   3.0444   3.0471   3.0815   3.0913
     3.4902   3.5409   3.7597   3.7925   3.8818   4.0530   5.4961   6.1609
     6.4906   6.4938   6.6029   6.6091   6.6297   6.6795   6.9391   7.0814
     7.1092   7.3165   7.3864   7.4754   7.8239   7.8488   8.0904   8.1227
     8.3079   8.3805   8.3835   8.5205   8.5800   8.5894   8.6560   8.6828
     8.7356   8.7977   8.8130   8.8819   8.9494   9.0386   9.0943   9.1757
     9.2591   9.3639

          k = 0.1250 0.7854 0.0000 ( 70722 PWs)   bands (ev):

   -38.1077 -37.8514 -35.7412 -35.4508 -23.7977 -23.4713 -22.7559 -22.7359
   -22.6676 -22.6485 -22.5811 -22.4658 -18.6863 -18.4491 -18.4402 -18.3538
   -18.2105 -18.0665 -17.1215 -16.9479 -16.9154 -16.8437 -16.6769 -16.5925
   -14.9276 -14.8672 -14.7983 -14.6901 -14.6613 -14.6411 -14.6392 -14.6316
   -14.5996 -14.5378 -14.4382 -14.3879 -14.3826 -14.2339 -14.2291 -14.2176
   -14.2146 -14.1474 -14.0905 -13.9984 -13.9982 -13.9823 -13.9745 -13.9666
   -13.9663 -13.9589 -13.8927 -13.8657 -13.7424 -13.5363  -9.4917  -9.1460
    -9.1305  -8.8311  -8.7203  -8.7107  -8.6913  -8.4933  -8.4198  -8.4185
    -8.4008  -8.1586  -8.1042  -8.0817  -8.0410  -8.0375  -8.0210  -8.0190
    -8.0162  -7.8613  -7.8220  -7.6892  -7.6708  -7.4655  -4.0178  -3.9012
    -3.5881  -3.3485  -3.2810  -3.2486  -3.2289  -3.2219  -3.0337  -2.8832
    -2.8826  -2.8222  -2.8217  -2.7591  -2.6263  -2.6077  -2.4623  -2.3523
    -2.2380  -2.2349  -2.2342  -2.2096  -2.1653  -2.1589  -2.1009  -2.0772
    -1.9777  -1.9091  -1.7964  -1.7600  -1.6936  -1.6841  -1.6781  -1.6239
    -1.5944  -1.2921  -1.2683  -1.2412  -1.2062  -1.1865  -1.1440  -1.1108
    -1.0763  -1.0748  -1.0712  -1.0596  -1.0236  -1.0185  -0.9879  -0.9667
    -0.8448  -0.8445  -0.8239  -0.7880  -0.7639  -0.7577  -0.7469  -0.7302
    -0.7222  -0.6454  -0.6311  -0.5928  -0.5562  -0.5547  -0.5137  -0.4677
    -0.4340  -0.3926  -0.2647  -0.2470  -0.2449  -0.0432   0.0548   0.0919
     0.1317   0.1581   0.1743   0.1945   0.2254   0.2443   0.2901   0.3260
     0.3540   0.5364   0.5415   0.5576   0.5809   0.6933   0.7327   0.8211
     0.8584   0.9035   0.9548   0.9693   0.9760   0.9853   1.0668   1.0784
     1.0959   1.1131   1.2168   1.2254   1.2367   1.2723   1.2933   1.2961
     1.3070   1.3318   1.3629   1.3803   1.4260   1.4507   1.4605   1.4956
     1.5211   1.5617   1.5962   1.6027   1.6276   1.6973   1.7045   1.7165
     1.7323   1.7366   1.7718   1.7803   1.7993   1.8040   1.8083   1.8303
     1.8326   1.8702   1.9477   1.9855   1.9914   2.0296   2.0423   2.0675
     2.0865   2.0968   2.1477   2.2039   2.2259   2.2333   2.2340   2.3954
     2.4373   2.4385   2.4495   2.5280   2.8919   2.8948   2.9984   3.0087
     3.8229   3.8727   4.3735   4.4073   4.4431   4.6150   5.3030   6.1187
     6.1277   6.4582   6.5113   6.7128   6.7674   7.3498   7.3675   7.3834
     7.4805   7.7470   7.8230   7.9359   8.0746   8.3045   8.3506   8.5344
     8.5678   8.6027   8.6302   8.7735   8.8445   8.8741   8.9367   9.0113
     9.0327   9.1125   9.1330   9.1962   9.2869   9.2978   9.4314   9.4835
     9.5255   9.5501

          k = 0.1250-1.0472 0.0000 ( 70790 PWs)   bands (ev):

   -38.1050 -37.8487 -35.7395 -35.4491 -23.7778 -23.4524 -22.7297 -22.7097
   -22.6471 -22.6281 -22.5561 -22.4457 -18.7669 -18.5208 -18.4420 -18.3066
   -18.2033 -18.0190 -17.1719 -16.9433 -16.8939 -16.8795 -16.6722 -16.5563
   -14.9387 -14.8887 -14.7284 -14.6719 -14.5747 -14.5715 -14.5431 -14.5386
   -14.5372 -14.4938 -14.4467 -14.4419 -14.4394 -14.3069 -14.2464 -14.2215
   -14.2162 -14.1737 -14.0632 -14.0254 -13.9846 -13.9689 -13.9656 -13.9496
   -13.9485 -13.9020 -13.8479 -13.8225 -13.7598 -13.5230  -9.6323  -9.2492
    -9.1155  -8.8624  -8.8434  -8.8239  -8.7025  -8.6275  -8.5491  -8.5312
    -8.4228  -8.2546  -8.1075  -8.0838  -8.0563  -8.0373  -8.0361  -8.0262
    -8.0108  -7.8750  -7.8169  -7.6654  -7.6471  -7.4402  -4.2188  -4.1026
    -3.7752  -3.5556  -3.4421  -3.4338  -3.4171  -3.4062  -3.1817  -3.1184
    -3.1160  -3.0527  -3.0521  -2.9081  -2.6520  -2.6338  -2.4812  -2.4810
    -2.3447  -2.2579  -2.2533  -2.2475  -2.1546  -2.1487  -2.1105  -2.0797
    -2.0768  -1.9774  -1.8729  -1.8489  -1.7526  -1.7186  -1.6159  -1.5352
    -1.4603  -1.3963  -1.3526  -1.3165  -1.3020  -1.2772  -1.2260  -1.1973
    -1.1835  -1.1812  -1.0976  -1.0948  -1.0808  -1.0605  -1.0280  -1.0049
    -0.9758  -0.9451  -0.8615  -0.8609  -0.8523  -0.8511  -0.8498  -0.8319
    -0.7340  -0.7320  -0.7214  -0.6785  -0.6473  -0.5374  -0.5003  -0.4594
    -0.4215  -0.3668  -0.2585  -0.2148  -0.2133  -0.1047  -0.0106   0.0254
     0.1313   0.1583   0.1986   0.2042   0.2297   0.2640   0.2779   0.2991
     0.3677   0.5158   0.5522   0.5757   0.5993   0.6060   0.8117   0.8954
     0.9080   0.9389   0.9698   1.0124   1.0536   1.0636   1.1214   1.1672
     1.1800   1.2261   1.2674   1.2719   1.2814   1.3155   1.3703   1.3784
     1.3856   1.3943   1.4044   1.4075   1.4602   1.4786   1.4860   1.5268
     1.5593   1.6596   1.6923   1.6951   1.7599   1.7793   1.8085   1.8111
     1.8130   1.8507   1.8824   1.9262   1.9389   1.9558   1.9811   1.9918
     2.0051   2.0411   2.0433   2.1335   2.1542   2.1607   2.1785   2.1804
     2.1908   2.2013   2.2120   2.2343   2.3033   2.3142   2.3702   2.4329
     2.4330   2.5429   2.6029   2.6033   2.6599   2.6654   2.8351   2.8458
     3.8545   3.9470   4.5644   4.6054   4.6382   4.7987   5.2199   5.8923
     5.9012   6.4067   6.4588   6.6302   7.0743   7.3363   7.4088   7.6335
     7.7107   7.7225   8.1100   8.1625   8.1905   8.2068   8.4249   8.5191
     8.7649   8.8523   8.8825   8.9414   9.0205   9.0545   9.0843   9.0934
     9.1991   9.2383   9.2499   9.2663   9.3064   9.3142   9.4032   9.4414
     9.5270   9.7271

          k = 0.2500 0.0000 0.0000 ( 70721 PWs)   bands (ev):

   -38.1234 -37.8672 -35.7511 -35.4608 -23.9081 -23.5809 -22.8894 -22.8695
   -22.7964 -22.7773 -22.7122 -22.5887 -18.5961 -18.4832 -18.3109 -18.2450
   -18.1265 -17.8789 -17.1092 -17.0040 -16.7904 -16.7808 -16.7349 -16.5021
   -15.4074 -15.2052 -15.1178 -15.0171 -15.0111 -14.9807 -14.7497 -14.7223
   -14.6673 -14.6507 -14.6004 -14.5724 -14.4241 -14.3343 -14.3033 -14.1778
   -14.1224 -14.0964 -14.0913 -14.0893 -14.0827 -14.0702 -14.0677 -14.0354
   -14.0029 -13.8521 -13.8081 -13.7180 -13.7068 -13.4888  -9.2565  -8.8876
    -8.6461  -8.6370  -8.4043  -8.3605  -8.1518  -8.1281  -8.0492  -8.0276
    -8.0128  -7.9329  -7.9090  -7.8912  -7.7859  -7.7665  -7.7470  -7.7289
    -7.6709  -7.6154  -7.5964  -7.5701  -7.5445  -7.4098  -2.9401  -2.9032
    -2.7857  -2.4323  -2.2773  -2.2566  -2.2310  -2.2222  -2.1574  -2.1233
    -2.0829  -2.0281  -2.0174  -1.9858  -1.9706  -1.9244  -1.8045  -1.7844
    -1.7392  -1.6904  -1.6848  -1.6544  -1.6491  -1.5721  -1.5627  -1.5361
    -1.4534  -1.3399  -1.2209  -1.1227  -1.0659  -1.0323  -1.0318  -1.0085
    -1.0056  -1.0049  -1.0016  -0.9770  -0.9636  -0.9338  -0.9166  -0.8650
    -0.8298  -0.7959  -0.7549  -0.7122  -0.7044  -0.7005  -0.6442  -0.5701
    -0.5622  -0.5101  -0.4839  -0.4146  -0.3872  -0.3726  -0.3628  -0.3072
    -0.3039  -0.2984  -0.2954  -0.2791  -0.2186  -0.1808  -0.1050  -0.0997
    -0.0803  -0.0636  -0.0455  -0.0450  -0.0396  -0.0277  -0.0218   0.0309
     0.0364   0.1270   0.1694   0.1872   0.1887   0.2037   0.2099   0.2111
     0.2388   0.2525   0.2593   0.2818   0.3354   0.3489   0.3921   0.4029
     0.4295   0.4359   0.4763   0.4778   0.4948   0.5134   0.5452   0.6013
     0.6225   0.6500   0.7217   0.7704   0.7901   0.8312   0.8792   0.9181
     0.9334   0.9386   0.9921   0.9943   1.0079   1.0338   1.0442   1.1040
     1.1420   1.1584   1.1677   1.2035   1.2388   1.2495   1.2612   1.3342
     1.3572   1.3645   1.3735   1.3956   1.4672   1.5036   1.5124   1.5674
     1.6152   1.6543   1.6869   1.7316   1.7350   1.7419   1.7498   1.7744
     1.8253   1.8297   1.8541   1.8780   1.9484   1.9760   1.9816   1.9858
     2.0753   2.1318   2.1822   2.2374   2.2909   2.3448   2.3590   2.3851
     2.5455   2.5776   2.5815   2.6261   2.8030   2.8156   5.1138   5.3802
     5.3984   5.8392   5.9666   6.1027   6.4903   6.4934   6.5378   6.7313
     6.8109   6.8362   6.9464   7.2502   7.3876   7.6903   7.7691   7.9485
     7.9594   8.0420   8.1080   8.1552   8.2148   8.2812   8.3247   8.3360
     8.4262   8.4789   8.5217   8.6260   8.7575   8.8108   8.8570   9.0434
     9.0634   9.1375

          k = 0.2500 0.2618 0.0000 ( 70750 PWs)   bands (ev):

   -38.1207 -37.8645 -35.7494 -35.4591 -23.8893 -23.5628 -22.8656 -22.8457
   -22.7764 -22.7573 -22.6893 -22.5692 -18.5576 -18.4761 -18.2722 -18.2379
   -18.2374 -17.9899 -17.0793 -16.9978 -16.8465 -16.7602 -16.7284 -16.5678
   -15.3036 -15.1137 -15.0529 -14.9676 -14.9616 -14.9322 -14.6996 -14.6849
   -14.6339 -14.6139 -14.5855 -14.5558 -14.3631 -14.2913 -14.2678 -14.1765
   -14.1534 -14.1348 -14.0785 -14.0721 -14.0704 -14.0607 -14.0560 -14.0341
   -14.0273 -13.8643 -13.8460 -13.7731 -13.7396 -13.5018  -9.2374  -8.8815
    -8.7981  -8.7277  -8.4406  -8.4020  -8.1463  -8.1234  -8.0756  -8.0558
    -8.0234  -8.0218  -8.0028  -7.9410  -7.9244  -7.9221  -7.7820  -7.7430
    -7.7241  -7.7053  -7.6812  -7.6626  -7.5084  -7.4861  -3.0367  -2.9800
    -2.8383  -2.4748  -2.4266  -2.3898  -2.3244  -2.2451  -2.2343  -2.1859
    -2.1564  -2.1180  -2.1010  -2.0768  -2.0555  -2.0361  -2.0167  -2.0004
    -1.9740  -1.9474  -1.9195  -1.8696  -1.6952  -1.6879  -1.6135  -1.5250
    -1.5021  -1.4497  -1.4461  -1.4299  -1.4288  -1.3781  -1.3753  -1.3285
    -1.2670  -1.2516  -1.2050  -1.0751  -0.9340  -0.9021  -0.8884  -0.8557
    -0.8186  -0.7879  -0.7830  -0.7340  -0.7271  -0.6785  -0.6513  -0.6168
    -0.6039  -0.5916  -0.5726  -0.5425  -0.4693  -0.4375  -0.4277  -0.3828
    -0.3634  -0.3355  -0.3100  -0.2711  -0.2448  -0.1767  -0.1548  -0.1459
    -0.1209  -0.0780  -0.0601  -0.0257  -0.0211  -0.0016   0.0482   0.0758
     0.1035   0.1170   0.1370   0.1401   0.1893   0.1998   0.2883   0.2924
     0.2934   0.3103   0.3141   0.3518   0.3529   0.3565   0.3916   0.4157
     0.4455   0.4695   0.4948   0.5214   0.5493   0.5647   0.5767   0.6276
     0.6412   0.7322   0.8524   0.8770   0.8924   0.9297   0.9462   0.9681
     0.9982   1.0058   1.0523   1.0642   1.0914   1.1054   1.1522   1.1671
     1.1768   1.1804   1.2133   1.2304   1.2489   1.2567   1.2966   1.3204
     1.3361   1.4039   1.4097   1.4182   1.4664   1.4683   1.5375   1.6031
     1.6120   1.6314   1.6447   1.6498   1.6692   1.6881   1.7083   1.7205
     1.7479   1.7653   1.7727   1.9168   1.9746   2.0044   2.0699   2.1577
     2.2820   2.3298   2.4785   2.6880   2.7479   2.7750   2.7897   2.8537
     2.8607   2.8729   2.9260   2.9732   3.1056   3.2233   5.3214   5.7194
     5.7259   6.0515   6.1336   6.3441   6.6271   6.6305   6.6760   6.7793
     7.0593   7.1327   7.1799   7.3067   7.4518   7.6619   7.6961   7.8424
     8.0275   8.0452   8.1836   8.1988   8.2177   8.3209   8.3523   8.4598
     8.5659   8.5789   8.6969   8.7203   8.7634   8.8423   8.8927   8.9707
     9.1051   9.1415

          k = 0.2500 0.5236 0.0000 ( 70690 PWs)   bands (ev):

   -38.1142 -37.8580 -35.7453 -35.4550 -23.8433 -23.5184 -22.8071 -22.7871
   -22.7272 -22.7082 -22.6329 -22.5213 -18.4775 -18.4589 -18.4581 -18.2315
   -18.2205 -18.1711 -17.0061 -16.9896 -16.9822 -16.7192 -16.7116 -16.6783
   -15.0709 -14.9258 -14.8773 -14.8396 -14.8290 -14.8071 -14.7034 -14.6111
   -14.6052 -14.5356 -14.5019 -14.4713 -14.3048 -14.2653 -14.2379 -14.1991
   -14.1920 -14.1232 -14.1067 -14.0445 -14.0433 -14.0171 -14.0157 -14.0039
   -13.9862 -13.9601 -13.9162 -13.8797 -13.7575 -13.5253  -9.1940  -9.1515
    -8.9288  -8.7871  -8.6743  -8.4154  -8.3946  -8.3757  -8.1755  -8.1415
    -8.1226  -8.1043  -8.0814  -8.0418  -8.0219  -7.9942  -7.9607  -7.9421
    -7.9079  -7.8636  -7.7659  -7.6962  -7.6777  -7.4827  -3.4340  -3.3288
    -3.0801  -2.9147  -2.8599  -2.7837  -2.7102  -2.6936  -2.6745  -2.4726
    -2.4468  -2.3883  -2.3346  -2.3161  -2.3098  -2.2665  -2.2635  -2.1345
    -2.1324  -2.1172  -2.1120  -2.1032  -2.0956  -2.0647  -1.9547  -1.9023
    -1.8899  -1.8667  -1.7719  -1.7052  -1.6506  -1.5697  -1.5567  -1.5207
    -1.4891  -1.3598  -1.3121  -1.2178  -1.0952  -1.0353  -1.0181  -0.9863
    -0.9651  -0.9361  -0.9186  -0.8979  -0.8730  -0.8653  -0.8405  -0.8281
    -0.7841  -0.7144  -0.6659  -0.6331  -0.6074  -0.5636  -0.5514  -0.5268
    -0.5245  -0.5104  -0.4682  -0.4560  -0.4552  -0.4403  -0.4106  -0.3563
    -0.2991  -0.2914  -0.2516  -0.2025  -0.1801  -0.0527   0.0151   0.0804
     0.0851   0.1477   0.1678   0.2014   0.2042   0.2991   0.3189   0.3462
     0.3572   0.4143   0.4230   0.4823   0.4893   0.5325   0.6053   0.6441
     0.7252   0.7295   0.7352   0.8274   0.8433   0.8630   0.9116   0.9521
     0.9832   1.0312   1.0388   1.0568   1.0786   1.0834   1.1064   1.1088
     1.1705   1.1905   1.2101   1.2284   1.2636   1.2729   1.3142   1.3166
     1.3538   1.3869   1.3917   1.4006   1.4166   1.4230   1.4461   1.4462
     1.4800   1.4976   1.5045   1.5345   1.5419   1.5730   1.6064   1.6154
     1.6638   1.7062   1.7228   1.7733   1.8186   1.8213   1.8311   1.8727
     1.9030   1.9798   2.0006   2.0082   2.0097   2.0150   2.1253   2.1519
     2.5001   2.5415   2.7301   2.8931   3.0470   3.0500   3.0874   3.1061
     3.4934   3.5362   3.6594   3.6934   3.7913   3.9679   5.5898   6.2416
     6.5312   6.5345   6.5863   6.6209   6.6263   6.6866   6.9936   7.1328
     7.1747   7.2985   7.3729   7.4960   7.9582   7.9796   8.0608   8.1539
     8.2263   8.3286   8.3355   8.3840   8.5293   8.5861   8.6386   8.6570
     8.7477   8.8060   8.8535   8.8743   8.9460   9.0483   9.0689   9.1349
     9.2564   9.2857

          k = 0.2500 0.7854 0.0000 ( 70730 PWs)   bands (ev):

   -38.1077 -37.8514 -35.7412 -35.4509 -23.7963 -23.4730 -22.7470 -22.7269
   -22.6768 -22.6579 -22.5750 -22.4722 -18.6863 -18.4418 -18.4401 -18.3525
   -18.2033 -18.0651 -17.1214 -16.9703 -16.9205 -16.8436 -16.6999 -16.5981
   -14.8872 -14.8370 -14.7490 -14.6995 -14.6624 -14.6588 -14.6413 -14.5845
   -14.5836 -14.5313 -14.4305 -14.3892 -14.3727 -14.3015 -14.2484 -14.2271
   -14.2014 -14.1256 -14.0889 -14.0014 -13.9964 -13.9934 -13.9894 -13.9697
   -13.9694 -13.9545 -13.9142 -13.9065 -13.7356 -13.5385  -9.4446  -9.1449
    -9.0658  -8.9087  -8.7243  -8.6708  -8.6515  -8.4778  -8.4349  -8.3096
    -8.2914  -8.1679  -8.1489  -8.0886  -8.0684  -8.0658  -8.0432  -8.0225
    -8.0160  -7.9586  -7.8317  -7.7453  -7.7269  -7.5219  -3.9152  -3.8024
    -3.4947  -3.3567  -3.3119  -3.2877  -3.2312  -3.1373  -3.0628  -2.8765
    -2.8754  -2.8291  -2.8289  -2.7793  -2.5822  -2.5626  -2.4241  -2.2687
    -2.2427  -2.2405  -2.1817  -2.1608  -2.1575  -2.1274  -2.1157  -2.0731
    -1.9340  -1.9069  -1.8342  -1.8257  -1.7645  -1.6843  -1.6598  -1.6543
    -1.6110  -1.4596  -1.4059  -1.3081  -1.2874  -1.2404  -1.2126  -1.1919
    -1.1481  -1.1125  -1.1021  -1.0913  -1.0784  -1.0008  -0.9990  -0.9696
    -0.9388  -0.8220  -0.7960  -0.7896  -0.7815  -0.7690  -0.7463  -0.7276
    -0.6973  -0.6733  -0.6369  -0.5822  -0.5605  -0.5281  -0.4642  -0.4622
    -0.4286  -0.3707  -0.2816  -0.2770  -0.2252  -0.1081   0.0581   0.0604
     0.1302   0.1897   0.2252   0.2698   0.2770   0.3036   0.3162   0.3539
     0.4037   0.4522   0.5225   0.5534   0.6581   0.6642   0.8258   0.8559
     0.8642   0.8975   0.9454   0.9655   0.9865   1.0378   1.0516   1.1269
     1.1483   1.1715   1.1859   1.2034   1.2186   1.2537   1.2648   1.2927
     1.3160   1.3221   1.3514   1.3963   1.4293   1.4399   1.4701   1.4732
     1.5122   1.5353   1.5436   1.5693   1.6326   1.6761   1.6842   1.7065
     1.7171   1.7218   1.7291   1.7660   1.7880   1.7961   1.8085   1.8385
     1.8576   1.8593   1.9264   1.9339   1.9569   1.9810   2.0106   2.0814
     2.0936   2.1094   2.2548   2.2585   2.2616   2.3077   2.4150   2.4154
     2.4872   2.5331   2.7088   2.8284   2.8987   2.9009   3.0336   3.0677
     3.8326   3.8786   4.1836   4.2205   4.2724   4.4461   5.4294   6.2748
     6.2822   6.4531   6.5021   6.7178   6.8337   7.2569   7.2650   7.3076
     7.5074   7.7136   7.7889   7.8307   7.9681   8.1732   8.3801   8.4623
     8.5678   8.5982   8.6492   8.7665   8.9078   8.9105   8.9481   9.1011
     9.1392   9.1647   9.1996   9.2428   9.2810   9.3919   9.4350   9.4584
     9.5037   9.5508

          k = 0.2500-1.0472 0.0000 ( 70692 PWs)   bands (ev):

   -38.1050 -37.8487 -35.7395 -35.4491 -23.7765 -23.4539 -22.7216 -22.7014
   -22.6556 -22.6367 -22.5506 -22.4515 -18.7668 -18.5207 -18.4347 -18.3054
   -18.1961 -18.0177 -17.1719 -16.9649 -16.8939 -16.8843 -16.6944 -16.5615
   -14.9064 -14.8552 -14.6755 -14.6642 -14.5922 -14.5826 -14.5404 -14.5378
   -14.5195 -14.4923 -14.4366 -14.4302 -14.4216 -14.2859 -14.2529 -14.2396
   -14.2235 -14.1914 -14.1069 -14.0297 -13.9750 -13.9662 -13.9641 -13.9517
   -13.9510 -13.9201 -13.8710 -13.8586 -13.7469 -13.5380  -9.5449  -9.1769
    -9.1147  -8.9511  -8.7566  -8.7371  -8.7032  -8.5444  -8.5006  -8.4603
    -8.4424  -8.1889  -8.1545  -8.1355  -8.0968  -8.0738  -8.0420  -8.0264
    -8.0196  -7.9655  -7.8185  -7.7855  -7.7673  -7.5496  -4.1136  -4.0023
    -3.6835  -3.5531  -3.4879  -3.4536  -3.4373  -3.3279  -3.2165  -3.1114
    -3.1094  -3.0602  -3.0598  -2.9331  -2.5989  -2.5794  -2.4331  -2.4036
    -2.2677  -2.2652  -2.2593  -2.1840  -2.1552  -2.1465  -2.1241  -2.0736
    -2.0112  -1.9614  -1.8098  -1.7828  -1.7217  -1.7099  -1.6984  -1.6594
    -1.6076  -1.6029  -1.5257  -1.4618  -1.3504  -1.2985  -1.2920  -1.2503
    -1.2088  -1.1951  -1.1749  -1.1533  -1.1357  -1.1271  -1.0508  -1.0065
    -0.9497  -0.8721  -0.8716  -0.8612  -0.8570  -0.8307  -0.8265  -0.8116
    -0.7575  -0.7280  -0.7266  -0.6615  -0.6520  -0.4997  -0.4749  -0.4588
    -0.4044  -0.3665  -0.2581  -0.2560  -0.2223  -0.1231   0.0591   0.0605
     0.1587   0.1923   0.2185   0.2664   0.3105   0.3148   0.3220   0.3475
     0.3855   0.4183   0.5599   0.5748   0.6429   0.7220   0.7460   0.9592
     0.9740   0.9893   1.0088   1.0174   1.0265   1.0892   1.0982   1.1596
     1.1864   1.2181   1.2313   1.2536   1.2932   1.3318   1.3386   1.3475
     1.3699   1.3883   1.3926   1.4252   1.4401   1.4609   1.5170   1.5221
     1.5418   1.6076   1.6510   1.6789   1.7041   1.7451   1.7524   1.7624
     1.8214   1.8265   1.8552   1.8828   1.8984   1.9124   1.9349   1.9847
     2.0546   2.0766   2.1030   2.1086   2.1614   2.1666   2.1739   2.1862
     2.1946   2.2403   2.2871   2.3986   2.4291   2.4477   2.4521   2.4578
     2.5804   2.5826   2.5827   2.6675   2.6784   2.6943   2.9127   2.9610
     3.8681   3.9721   4.3360   4.3775   4.4260   4.5914   5.3344   6.0848
     6.0925   6.3460   6.4860   6.7158   7.1456   7.2858   7.4440   7.4442
     7.4619   7.4964   7.9153   8.0226   8.0293   8.2022   8.3899   8.5235
     8.6665   8.8709   8.9595   9.0350   9.1172   9.1685   9.2106   9.2497
     9.2581   9.3031   9.3426   9.4096   9.4354   9.4843   9.5511   9.5628
     9.5663   9.7619

          k = 0.3750 0.0000 0.0000 ( 70812 PWs)   bands (ev):

   -38.1234 -37.8672 -35.7511 -35.4608 -23.9057 -23.5838 -22.8713 -22.8511
   -22.8153 -22.7965 -22.7015 -22.6001 -18.5944 -18.4752 -18.3091 -18.2371
   -18.1265 -17.8789 -17.1163 -17.0316 -16.7980 -16.7808 -16.7633 -16.5021
   -15.3123 -15.1193 -15.0868 -15.0293 -14.9977 -14.9442 -14.8134 -14.7384
   -14.6939 -14.6739 -14.6419 -14.5961 -14.4062 -14.3325 -14.3048 -14.1612
   -14.1146 -14.0987 -14.0913 -14.0870 -14.0814 -14.0791 -14.0423 -14.0310
   -14.0089 -13.8742 -13.8504 -13.7304 -13.7051 -13.4870  -9.2632  -8.9053
    -8.6274  -8.6136  -8.4100  -8.3716  -8.1559  -8.1323  -8.0547  -8.0333
    -8.0221  -7.9451  -7.8689  -7.8513  -7.7758  -7.7574  -7.7510  -7.7313
    -7.6529  -7.6350  -7.6342  -7.5570  -7.5388  -7.4432  -2.7849  -2.7484
    -2.6477  -2.4090  -2.3845  -2.2855  -2.2770  -2.2039  -2.1960  -2.1133
    -2.0991  -2.0797  -2.0713  -2.0169  -2.0096  -1.9161  -1.8428  -1.8041
    -1.8041  -1.7038  -1.6803  -1.6592  -1.6440  -1.6327  -1.5880  -1.5166
    -1.3952  -1.3756  -1.1391  -1.0826  -1.0774  -1.0053  -1.0035  -1.0017
    -1.0000  -0.9972  -0.9953  -0.9466  -0.9427  -0.9134  -0.8819  -0.8562
    -0.8299  -0.7796  -0.7590  -0.7154  -0.6420  -0.6178  -0.6135  -0.6134
    -0.5398  -0.5109  -0.5048  -0.4842  -0.4711  -0.4277  -0.3867  -0.3850
    -0.3817  -0.3152  -0.2886  -0.2460  -0.2167  -0.2155  -0.1861  -0.1101
    -0.0812  -0.0730  -0.0649  -0.0593  -0.0579  -0.0163   0.0065   0.0205
     0.0482   0.1025   0.1134   0.1668   0.1935   0.1953   0.2074   0.2090
     0.2953   0.3012   0.3125   0.3210   0.3229   0.3559   0.3905   0.4234
     0.4382   0.4434   0.4496   0.5150   0.5172   0.5340   0.6059   0.6243
     0.6611   0.6740   0.7275   0.7722   0.7981   0.8330   0.8351   0.8512
     0.8719   0.9025   0.9494   0.9542   0.9851   0.9969   1.0050   1.0557
     1.0790   1.1529   1.1541   1.2387   1.2600   1.3037   1.3164   1.3203
     1.3463   1.4095   1.4100   1.4382   1.4432   1.4587   1.4942   1.5540
     1.5816   1.5962   1.6234   1.6569   1.6626   1.7696   1.7959   1.8301
     1.8377   1.8616   1.8820   1.8905   1.9281   1.9286   1.9395   1.9408
     2.0776   2.1442   2.2013   2.2255   2.3204   2.3412   2.4000   2.4981
     2.5299   2.6195   2.6216   2.6396   2.7589   2.7821   5.3180   5.5848
     5.5922   5.8592   6.1119   6.1442   6.1489   6.3116   6.6223   6.6437
     7.0235   7.0529   7.0935   7.1323   7.1562   7.5554   7.7257   7.7910
     7.8176   8.0782   8.1109   8.2158   8.2691   8.3273   8.3680   8.4000
     8.5029   8.5186   8.5931   8.6734   8.8732   8.9169   9.0130   9.0301
     9.0350   9.1383

          k = 0.3750 0.2618 0.0000 ( 70760 PWs)   bands (ev):

   -38.1207 -37.8645 -35.7494 -35.4591 -23.8871 -23.5655 -22.8484 -22.8282
   -22.7942 -22.7755 -22.6792 -22.5799 -18.5559 -18.4682 -18.2704 -18.2373
   -18.2301 -17.9899 -17.0860 -17.0241 -16.8464 -16.7674 -16.7555 -16.5677
   -15.2092 -15.0326 -15.0262 -14.9772 -14.9476 -14.9018 -14.7501 -14.7164
   -14.6547 -14.6425 -14.6098 -14.5735 -14.3529 -14.2882 -14.2646 -14.1675
   -14.1574 -14.1301 -14.0803 -14.0744 -14.0736 -14.0708 -14.0415 -14.0405
   -14.0112 -13.8969 -13.8694 -13.7746 -13.7355 -13.4986  -9.2411  -8.9102
    -8.8263  -8.7362  -8.4039  -8.3669  -8.1561  -8.1339  -8.1007  -8.0815
    -8.0486  -8.0322  -8.0288  -7.9645  -7.9482  -7.9454  -7.7979  -7.7764
    -7.6720  -7.6532  -7.6408  -7.6223  -7.4656  -7.4418  -2.8780  -2.8209
    -2.6915  -2.5224  -2.4777  -2.3853  -2.3202  -2.2292  -2.2085  -2.2079
    -2.1742  -2.1248  -2.1046  -2.0905  -2.0791  -2.0676  -2.0640  -2.0323
    -2.0284  -2.0015  -1.9610  -1.9092  -1.7706  -1.7118  -1.6908  -1.5357
    -1.4712  -1.4449  -1.4407  -1.4336  -1.4334  -1.3496  -1.3465  -1.2673
    -1.1972  -1.1535  -1.1155  -1.0333  -0.9636  -0.9271  -0.8984  -0.8732
    -0.8648  -0.8371  -0.7957  -0.7652  -0.7630  -0.7301  -0.6840  -0.6537
    -0.6436  -0.6279  -0.5743  -0.5686  -0.5254  -0.4781  -0.4549  -0.4366
    -0.3825  -0.3008  -0.2973  -0.2564  -0.2361  -0.1727  -0.1594  -0.1507
    -0.1280  -0.1155  -0.0860  -0.0471  -0.0147   0.0084   0.0422   0.0857
     0.1008   0.1035   0.1350   0.1564   0.1736   0.2146   0.2518   0.2864
     0.3147   0.3361   0.3381   0.3559   0.3646   0.3710   0.4044   0.4390
     0.4711   0.4844   0.4914   0.5012   0.5443   0.5702   0.5893   0.6689
     0.6804   0.6966   0.8725   0.8947   0.9041   0.9236   0.9425   0.9725
     0.9792   0.9978   1.0069   1.0736   1.0823   1.0909   1.1272   1.1371
     1.1748   1.2051   1.2068   1.2221   1.2295   1.2621   1.2787   1.2940
     1.3758   1.4237   1.4412   1.4609   1.4756   1.4910   1.5037   1.5385
     1.5654   1.5895   1.5903   1.6211   1.6277   1.6769   1.7149   1.7324
     1.7455   1.7688   1.8189   1.8691   1.9361   2.0113   2.0794   2.1394
     2.4599   2.5029   2.6656   2.7178   2.7498   2.8127   2.8557   2.8587
     2.8734   2.9025   2.9048   2.9423   3.0381   3.1793   5.4671   5.8854
     5.8876   6.0141   6.3273   6.3487   6.3525   6.5220   6.6736   6.8088
     7.1230   7.1910   7.2449   7.3876   7.4050   7.5294   7.8235   7.8852
     8.0154   8.0161   8.1730   8.2149   8.2445   8.2561   8.4221   8.4571
     8.5312   8.5632   8.6128   8.7039   8.7539   8.8899   8.9167   9.0678
     9.1345   9.1788

          k = 0.3750 0.5236 0.0000 ( 70699 PWs)   bands (ev):

   -38.1142 -37.8580 -35.7453 -35.4550 -23.8414 -23.5206 -22.7923 -22.7720
   -22.7425 -22.7239 -22.6243 -22.5303 -18.4774 -18.4567 -18.4512 -18.2314
   -18.2130 -18.1696 -17.0115 -17.0072 -16.9889 -16.7386 -16.7173 -16.6839
   -14.9833 -14.8651 -14.8617 -14.8368 -14.8349 -14.8008 -14.6974 -14.5999
   -14.5996 -14.5513 -14.5366 -14.5141 -14.3112 -14.2512 -14.2241 -14.2157
   -14.1771 -14.1624 -14.0882 -14.0659 -14.0388 -14.0353 -14.0223 -14.0165
   -13.9768 -13.9599 -13.9309 -13.8803 -13.7506 -13.5202  -9.1906  -9.1473
    -9.0200  -8.7859  -8.5961  -8.4151  -8.3927  -8.3739  -8.2552  -8.2365
    -8.1685  -8.1036  -8.0805  -8.0386  -8.0356  -8.0165  -7.9750  -7.8638
    -7.8497  -7.8312  -7.6991  -7.6804  -7.6579  -7.4863  -3.2890  -3.1855
    -2.9948  -2.9358  -2.9214  -2.7823  -2.7045  -2.6961  -2.5740  -2.4399
    -2.4225  -2.4023  -2.3333  -2.3206  -2.3052  -2.2596  -2.2542  -2.1720
    -2.1628  -2.1481  -2.1062  -2.1041  -2.0655  -2.0600  -2.0489  -2.0226
    -1.9955  -1.7432  -1.7330  -1.6713  -1.6270  -1.6009  -1.5494  -1.4936
    -1.4787  -1.3717  -1.3373  -1.2578  -1.2248  -1.1995  -1.1537  -1.0522
    -1.0157  -0.9803  -0.9193  -0.9072  -0.9046  -0.8863  -0.8538  -0.8350
    -0.8018  -0.7938  -0.7047  -0.6332  -0.6302  -0.5608  -0.5309  -0.5204
    -0.5028  -0.5010  -0.4684  -0.4637  -0.4591  -0.4456  -0.4215  -0.3316
    -0.2860  -0.2599  -0.2072  -0.1927  -0.1865  -0.1726  -0.0475   0.0186
     0.0774   0.1269   0.1379   0.1595   0.2764   0.3410   0.3454   0.3823
     0.4002   0.4472   0.4546   0.4999   0.5085   0.5663   0.5773   0.6206
     0.7260   0.7976   0.8091   0.8336   0.8790   0.8897   0.9124   0.9423
     0.9811   1.0129   1.0403   1.0431   1.0465   1.0566   1.0723   1.0747
     1.1310   1.1636   1.1929   1.2290   1.2659   1.2996   1.3353   1.3509
     1.3533   1.3738   1.3891   1.4104   1.4237   1.4317   1.4819   1.4933
     1.5153   1.5165   1.5180   1.5308   1.5589   1.5641   1.6007   1.6076
     1.6311   1.6356   1.7111   1.7616   1.7880   1.8448   1.8636   1.8796
     1.9090   1.9255   1.9722   1.9752   2.0030   2.0455   2.0888   2.1814
     2.8508   2.8810   3.0027   3.0496   3.0515   3.0771   3.1377   3.2789
     3.4712   3.4981   3.5175   3.5385   3.6311   3.8130   5.7009   6.3578
     6.5124   6.5795   6.5878   6.6298   6.6346   6.6500   7.0763   7.1773
     7.2528   7.3076   7.3988   7.4746   8.0162   8.0432   8.1390   8.1559
     8.2083   8.3062   8.3204   8.3699   8.4604   8.5284   8.5749   8.6503
     8.7141   8.7768   8.8858   8.9153   9.0239   9.0380   9.0786   9.1181
     9.1579   9.2200

          k = 0.3750 0.7854 0.0000 ( 70746 PWs)   bands (ev):

   -38.1077 -37.8514 -35.7412 -35.4509 -23.7948 -23.4747 -22.7348 -22.7143
   -22.6894 -22.6708 -22.5680 -22.4796 -18.6862 -18.4401 -18.4343 -18.3513
   -18.1959 -18.0638 -17.1214 -16.9924 -16.9257 -16.8436 -16.7226 -16.6036
   -14.8368 -14.7944 -14.7319 -14.6993 -14.6768 -14.6565 -14.6407 -14.5649
   -14.5236 -14.5130 -14.4303 -14.4115 -14.3601 -14.3580 -14.2941 -14.2221
   -14.1730 -14.1071 -14.0927 -14.0201 -14.0188 -13.9892 -13.9880 -13.9745
   -13.9739 -13.9688 -13.9496 -13.9207 -13.7289 -13.5420  -9.3621  -9.1507
    -9.0951  -8.8981  -8.7213  -8.5894  -8.5702  -8.5438  -8.3651  -8.3170
    -8.2981  -8.1644  -8.1459  -8.0950  -8.0792  -8.0564  -8.0497  -8.0296
    -8.0189  -7.9353  -7.8503  -7.8325  -7.8318  -7.6178  -3.7737  -3.6684
    -3.4251  -3.3771  -3.3587  -3.3157  -3.2349  -3.1151  -3.0297  -2.8669
    -2.8647  -2.8395  -2.8393  -2.8144  -2.5029  -2.4818  -2.3514  -2.2821
    -2.2695  -2.1558  -2.1476  -2.1421  -2.1287  -2.0740  -2.0602  -2.0105
    -2.0011  -1.9816  -1.9557  -1.8550  -1.7895  -1.6818  -1.6786  -1.6380
    -1.6169  -1.5727  -1.5503  -1.5176  -1.4571  -1.3468  -1.2820  -1.2152
    -1.1922  -1.1753  -1.1215  -1.1125  -1.0895  -1.0794  -0.9666  -0.9360
    -0.8673  -0.8534  -0.7863  -0.7814  -0.7524  -0.7323  -0.7234  -0.6993
    -0.6921  -0.6653  -0.6219  -0.5948  -0.5713  -0.5224  -0.4647  -0.4336
    -0.4092  -0.3702  -0.3297  -0.3036  -0.2521  -0.1479  -0.0250   0.0398
     0.1195   0.1549   0.1870   0.2673   0.3340   0.3678   0.4023   0.4685
     0.5012   0.5329   0.5573   0.6037   0.6118   0.7182   0.7853   0.8169
     0.9371   0.9537   0.9794   0.9805   1.0288   1.0371   1.0463   1.1196
     1.1266   1.1625   1.1688   1.2422   1.2463   1.2787   1.2884   1.3150
     1.3558   1.3845   1.3866   1.4075   1.4191   1.4316   1.4406   1.4570
     1.4652   1.4680   1.5101   1.5769   1.6170   1.6280   1.6294   1.6663
     1.6744   1.6871   1.7251   1.7388   1.7457   1.7739   1.8024   1.8153
     1.8334   1.8451   1.8801   1.9162   1.9405   1.9561   1.9899   2.0588
     2.0942   2.1103   2.2231   2.2626   2.2946   2.2952   2.3802   2.3806
     2.8362   2.8432   2.9039   2.9078   3.0173   3.0985   3.2482   3.3820
     3.8185   3.8781   3.9004   3.9195   4.0012   4.1688   5.6174   6.2850
     6.4813   6.5061   6.5393   6.8249   6.9231   7.0606   7.0722   7.2166
     7.5308   7.6374   7.7298   7.7583   7.8740   8.1163   8.3729   8.4495
     8.6079   8.6334   8.6704   8.7754   8.8547   8.8667   8.9701   9.1195
     9.1910   9.2306   9.3072   9.3970   9.4179   9.4538   9.4698   9.5429
     9.5834   9.6302

          k = 0.3750-1.0472 0.0000 ( 70750 PWs)   bands (ev):

   -38.1050 -37.8487 -35.7395 -35.4491 -23.7752 -23.4554 -22.7105 -22.6900
   -22.6670 -22.6484 -22.5442 -22.4582 -18.7667 -18.5206 -18.4272 -18.3042
   -18.1888 -18.0165 -17.1720 -16.9863 -16.8940 -16.8891 -16.7163 -16.5666
   -14.8581 -14.8028 -14.7126 -14.6621 -14.5969 -14.5816 -14.5356 -14.4972
   -14.4890 -14.4581 -14.4284 -14.4276 -14.4042 -14.2956 -14.2927 -14.2549
   -14.2349 -14.1581 -14.1521 -14.0545 -13.9624 -13.9614 -13.9569 -13.9549
   -13.9543 -13.9376 -13.9023 -13.9002 -13.7318 -13.5552  -9.4175  -9.1139
    -9.0798  -9.0784  -8.7031  -8.6252  -8.6151  -8.6057  -8.4209  -8.3222
[...]
    -0.8900  -0.8861  -0.8662  -0.8236  -0.8083  -0.6666  -0.6472  -0.6455
    -0.6424  -0.6349  -0.6170  -0.5836  -0.5370  -0.5368  -0.4932  -0.4188
    -0.3853  -0.3063  -0.2726  -0.2465  -0.1933  -0.1878  -0.1787  -0.1768
    -0.1405  -0.1068  -0.0877  -0.0740  -0.0381   0.0247   0.0527   0.0841
     0.0955   0.0969   0.1351   0.1650   0.1670   0.2487   0.2525   0.2597
     0.3186   0.3496   0.3514   0.3746   0.3758   0.3983   0.4275   0.4298
     0.4342   0.4745   0.4859   0.4976   0.5460   0.5911   0.6171   0.6797
     0.6944   0.7054   0.8716   0.8768   0.8987   0.9139   0.9232   0.9692
     0.9834   1.0105   1.0124   1.0371   1.0478   1.0984   1.1066   1.1299
     1.1488   1.1912   1.2316   1.2363   1.2661   1.2773   1.2855   1.3629
     1.3806   1.4239   1.4280   1.4590   1.4694   1.4917   1.5159   1.5326
     1.5335   1.5365   1.5499   1.5924   1.6310   1.6981   1.7361   1.7433
     1.7537   1.7604   1.7787   1.8486   1.9412   2.0184   2.0770   2.1271
     2.5596   2.5992   2.6705   2.7182   2.7833   2.8347   2.8423   2.8779
     2.8820   2.8966   2.9153   2.9663   3.0121   3.1237   5.5523   5.9573
     6.0897   6.0944   6.1070   6.1102   6.5193   6.5836   6.6493   6.8313
     7.0735   7.0912   7.2225   7.4334   7.6718   7.6972   7.7227   7.7488
     7.9230   8.0287   8.0672   8.1595   8.2518   8.3059   8.3343   8.4384
     8.5466   8.6158   8.6947   8.7956   8.8142   8.8971   8.9005   9.0386
     9.1244   9.1260

          k =-0.5000 0.5236 0.0000 ( 70706 PWs)   bands (ev):

   -38.1142 -37.8580 -35.7453 -35.4550 -23.8406 -23.5215 -22.7822 -22.7612
   -22.7529 -22.7348 -22.6202 -22.5346 -18.4773 -18.4561 -18.4480 -18.2313
   -18.2098 -18.1690 -17.0175 -17.0132 -16.9892 -16.7485 -16.7179 -16.6862
   -14.9267 -14.8487 -14.8474 -14.8463 -14.8303 -14.8059 -14.6929 -14.6252
   -14.5898 -14.5596 -14.5394 -14.5278 -14.3129 -14.2375 -14.2258 -14.2127
   -14.1830 -14.1718 -14.0940 -14.0808 -14.0372 -14.0349 -14.0246 -14.0178
   -13.9679 -13.9619 -13.9395 -13.8807 -13.7482 -13.5183  -9.1886  -9.1156
    -9.0871  -8.7855  -8.5516  -8.4282  -8.3587  -8.3397  -8.3296  -8.3113
    -8.1366  -8.1030  -8.1013  -8.0799  -8.0357  -8.0160  -7.9809  -7.8638
    -7.7598  -7.7488  -7.7414  -7.7300  -7.5949  -7.5117  -3.1642  -3.0859
    -3.0566  -3.0136  -2.8351  -2.8038  -2.7306  -2.6999  -2.4787  -2.4465
    -2.4029  -2.3842  -2.3628  -2.3401  -2.2572  -2.2373  -2.2341  -2.2321
    -2.2191  -2.2169  -2.1011  -2.0969  -2.0799  -2.0734  -2.0558  -2.0247
    -1.9762  -1.8847  -1.6757  -1.5862  -1.5437  -1.5405  -1.4973  -1.4870
    -1.4546  -1.4198  -1.4035  -1.3566  -1.3548  -1.2904  -1.1140  -1.0522
    -1.0506  -1.0426  -0.9492  -0.9162  -0.8852  -0.8847  -0.8826  -0.8282
    -0.8208  -0.7569  -0.7216  -0.6809  -0.6127  -0.5693  -0.5207  -0.5189
    -0.4861  -0.4801  -0.4764  -0.4743  -0.4653  -0.4614  -0.3690  -0.3455
    -0.2960  -0.2568  -0.2017  -0.1986  -0.1687  -0.1269  -0.1118  -0.0907
     0.0947   0.1025   0.1329   0.1553   0.3181   0.3461   0.3857   0.4089
     0.4113   0.4391   0.4670   0.5041   0.5488   0.5750   0.5760   0.5982
     0.7464   0.8002   0.8227   0.8841   0.8863   0.9072   0.9336   0.9498
     0.9600   0.9925   1.0102   1.0304   1.0357   1.0367   1.0380   1.0853
     1.1171   1.1550   1.1849   1.2307   1.2645   1.2924   1.3241   1.3619
     1.3739   1.3804   1.4112   1.4175   1.4294   1.4386   1.4428   1.4889
     1.5271   1.5272   1.5303   1.5308   1.5365   1.5813   1.5959   1.6263
     1.6633   1.6953   1.7135   1.7179   1.7260   1.8002   1.8957   1.9022
     1.9255   1.9283   1.9392   1.9498   2.0018   2.0532   2.0622   2.2017
     3.0172   3.0227   3.0474   3.0517   3.1937   3.2352   3.2450   3.2964
     3.3399   3.4276   3.4997   3.5386   3.5387   3.6159   5.7557   6.4243
     6.5280   6.5342   6.6084   6.6187   6.6338   6.6405   7.1353   7.1844
     7.2715   7.3889   7.3972   7.4174   7.9911   8.0188   8.1467   8.2611
     8.2740   8.2840   8.2942   8.3763   8.4626   8.4713   8.5753   8.6337
     8.7091   8.8297   8.8761   8.9367   8.9875   9.0093   9.0517   9.0764
     9.1599   9.2676

          k =-0.5000 0.7854 0.0000 ( 70746 PWs)   bands (ev):

   -38.1077 -37.8514 -35.7412 -35.4509 -23.7942 -23.4754 -22.7269 -22.7059
   -22.6974 -22.6794 -22.5647 -22.4830 -18.6861 -18.4400 -18.4311 -18.3507
   -18.1928 -18.0633 -17.1213 -17.0015 -16.9278 -16.8435 -16.7319 -16.6059
   -14.7955 -14.7683 -14.7498 -14.7422 -14.6563 -14.6424 -14.6293 -14.5478
   -14.5017 -14.4881 -14.4621 -14.4400 -14.3496 -14.3482 -14.3321 -14.2186
   -14.1432 -14.1340 -14.0578 -14.0526 -14.0237 -13.9991 -13.9853 -13.9832
   -13.9785 -13.9778 -13.9472 -13.9264 -13.7259 -13.5438  -9.2775  -9.2085
    -9.1312  -8.8501  -8.7121  -8.5972  -8.4854  -8.4657  -8.4469  -8.4286
    -8.2865  -8.1954  -8.0828  -8.0682  -8.0598  -8.0484  -8.0175  -7.9889
    -7.9883  -7.9704  -7.9697  -7.8580  -7.8157  -7.7017  -3.6755  -3.5763
    -3.4965  -3.4233  -3.3268  -3.2944  -3.2253  -3.1661  -2.9677  -2.8607
    -2.8526  -2.8516  -2.8506  -2.8404  -2.4231  -2.4043  -2.3428  -2.3193
    -2.2603  -2.2292  -2.1235  -2.1091  -2.0981  -2.0845  -2.0483  -2.0361
    -1.9682  -1.9294  -1.8766  -1.8540  -1.8324  -1.8137  -1.7707  -1.7649
    -1.6332  -1.6282  -1.5087  -1.4740  -1.4413  -1.4028  -1.3790  -1.3078
    -1.2021  -1.1935  -1.1245  -1.1155  -1.0887  -1.0808  -0.9473  -0.8874
    -0.8695  -0.7999  -0.7928  -0.7784  -0.7743  -0.7430  -0.7192  -0.7020
    -0.6805  -0.6753  -0.5896  -0.5853  -0.5663  -0.5042  -0.4709  -0.4432
    -0.4003  -0.3894  -0.3620  -0.3190  -0.2127  -0.1653  -0.0790  -0.0414
     0.1364   0.1741   0.2090   0.2116   0.4145   0.4368   0.4384   0.4511
     0.5289   0.5317   0.5725   0.6215   0.6915   0.6993   0.7612   0.8238
     0.9462   0.9594   0.9897   1.0193   1.0229   1.0533   1.0595   1.0647
     1.1059   1.1490   1.2155   1.2534   1.2633   1.2823   1.3204   1.3417
     1.3734   1.3807   1.3882   1.3961   1.4112   1.4428   1.4469   1.4515
     1.4954   1.5199   1.5365   1.5467   1.5525   1.5763   1.5995   1.6275
     1.6388   1.6448   1.7305   1.7311   1.7566   1.7570   1.7640   1.8194
     1.8208   1.8255   1.8798   1.9111   1.9425   1.9514   1.9819   2.0281
     2.0960   2.1201   2.1813   2.2595   2.3327   2.3331   2.3428   2.3435
     2.8843   2.8876   2.9092   2.9128   3.4353   3.4809   3.4944   3.5481
     3.6241   3.6362   3.7991   3.7998   3.8631   3.8950   5.7537   6.1408
     6.5081   6.7522   6.7637   6.7902   6.8254   6.9150   7.0200   7.1454
     7.5081   7.6159   7.7126   7.7276   7.8354   8.1089   8.3602   8.4564
     8.6508   8.6764   8.6973   8.7511   8.7687   8.8629   8.9573   9.1116
     9.1771   9.3046   9.4377   9.4651   9.5132   9.5280   9.5620   9.5833
     9.6269   9.6595

          k =-0.5000-1.0472 0.0000 ( 70756 PWs)   bands (ev):

   -38.1050 -37.8487 -35.7395 -35.4491 -23.7746 -23.4561 -22.7036 -22.6825
   -22.6740 -22.6560 -22.5413 -22.4612 -18.7667 -18.5206 -18.4241 -18.3037
   -18.1857 -18.0160 -17.1720 -16.9951 -16.8940 -16.8911 -16.7253 -16.5687
   -14.8195 -14.7521 -14.7444 -14.7269 -14.5958 -14.5485 -14.5137 -14.4915
   -14.4729 -14.4280 -14.4251 -14.4220 -14.4049 -14.3365 -14.3209 -14.2336
   -14.2273 -14.1900 -14.1246 -14.0808 -13.9590 -13.9584 -13.9582 -13.9576
   -13.9404 -13.9360 -13.9275 -13.9247 -13.7246 -13.5633  -9.3116  -9.1863
    -9.1136  -9.0191  -8.6999  -8.6850  -8.4888  -8.4684  -8.4382  -8.4202
    -8.3115  -8.2088  -8.1637  -8.1444  -8.1403  -8.1228  -8.0616  -8.0595
    -8.0388  -8.0387  -8.0257  -7.9737  -7.8201  -7.8089  -3.8767  -3.7814
    -3.6591  -3.5878  -3.5339  -3.4993  -3.4215  -3.3271  -3.1619  -3.0882
    -3.0854  -3.0847  -3.0828  -3.0078  -2.4288  -2.4119  -2.3189  -2.2970
    -2.2582  -2.1932  -2.1878  -2.0914  -2.0831  -2.0802  -2.0714  -2.0433
    -1.9978  -1.9931  -1.9927  -1.9425  -1.9336  -1.8999  -1.8361  -1.8170
    -1.7035  -1.6888  -1.5692  -1.5432  -1.5328  -1.4477  -1.4403  -1.3519
    -1.2837  -1.2605  -1.1939  -1.1817  -1.1656  -1.1605  -0.9685  -0.8863
    -0.8707  -0.8675  -0.8646  -0.8004  -0.8003  -0.7931  -0.7834  -0.7635
    -0.7579  -0.7516  -0.6573  -0.6555  -0.6033  -0.5189  -0.4725  -0.4252
    -0.4225  -0.4214  -0.3820  -0.3255  -0.2227  -0.1719  -0.0528  -0.0304
     0.1511   0.1992   0.2556   0.2562   0.4467   0.4551   0.4597   0.4925
     0.5160   0.6324   0.6360   0.6737   0.6891   0.7333   0.8869   0.9169
     0.9764   0.9995   1.0402   1.0896   1.1100   1.1161   1.1187   1.1627
     1.1759   1.1864   1.1979   1.2733   1.3070   1.3192   1.3209   1.3279
     1.3328   1.4086   1.4161   1.4316   1.4543   1.4848   1.4918   1.5330
     1.5469   1.5488   1.5625   1.5707   1.5829   1.6423   1.6597   1.6976
     1.7111   1.7564   1.7946   1.7997   1.8619   1.8837   1.8849   1.9107
     1.9406   1.9820   2.0511   2.0730   2.1403   2.1632   2.1641   2.1670
     2.1928   2.2629   2.2709   2.2983   2.5118   2.5120   2.5210   2.5214
     2.6820   2.6849   2.6966   2.7001   3.4492   3.5085   3.5349   3.6145
     3.6324   3.7121   3.8095   3.8601   3.9257   4.0075   5.6625   5.9921
     6.5873   6.6952   6.7038   6.7358   6.8138   6.9444   7.1504   7.2714
     7.3512   7.4995   7.5715   7.7648   7.9058   8.1727   8.4595   8.6251
     8.6320   8.6395   9.0357   9.1659   9.2236   9.3574   9.3637   9.3934
     9.4186   9.4268   9.4661   9.4864   9.7380   9.7418   9.7591   9.7811
     9.8403   9.8459

     the Fermi energy is     2.6927 ev

!    total energy              =   -3711.66125450 Ry
     Harris-Foulkes estimate   =   -3711.66125447 Ry
     estimated scf accuracy    <          4.2E-09 Ry

     The total energy is the sum of the following terms:

     one-electron contribution =  -59206.56330626 Ry
     hartree contribution      =   29908.42025676 Ry
     xc contribution           =   -1263.77736237 Ry
     ewald contribution        =   26850.27226985 Ry
     smearing contrib. (-TS)   =      -0.01311246 Ry

     convergence has been achieved in  36 iterations

     negative rho (up, down):  9.217E-02 0.000E+00

     Forces acting on atoms (cartesian axes, Ry/au):

     atom    1 type  4   force =    -0.00000562    0.00000000   -0.00009675
     atom    2 type  4   force =     0.00000562    0.00000000   -0.00009675
     atom    3 type  3   force =    -0.00001396    0.00000000   -0.00005228
     atom    4 type  3   force =     0.00001396    0.00000000   -0.00005228
     atom    5 type  4   force =     0.00000246    0.00000000   -0.00004170
     atom    6 type  4   force =    -0.00000246    0.00000000   -0.00004170
     atom    7 type  1   force =     0.00000000    0.00000000   -0.00015075
     atom    8 type  1   force =     0.00000000    0.00000000   -0.00013980
     atom    9 type  3   force =     0.00004427    0.00000000    0.00002841
     atom   10 type  3   force =    -0.00004427    0.00000000    0.00002841
     atom   11 type  4   force =     0.00000000    0.00000000    0.00017237
     atom   12 type  4   force =     0.00000274    0.00000000    0.00015833
     atom   13 type  4   force =    -0.00000274    0.00000000    0.00015833
     atom   14 type  4   force =     0.00000000    0.00000000    0.00026926
     atom   15 type  2   force =     0.00000000    0.00000000   -0.00076941
     atom   16 type  5   force =     0.00000000    0.00000000   -0.00120133
     atom   17 type  4   force =     0.00013308    0.00000000    0.00123511
     atom   18 type  4   force =    -0.00013308    0.00000000    0.00123511
     atom   19 type  4   force =     0.00000000    0.00000000    0.00146376
     atom   20 type  4   force =     0.00000000    0.00000000    0.00183801
     atom   21 type  3   force =    -0.00011727    0.00000000   -0.00148089
     atom   22 type  3   force =     0.00011727    0.00000000   -0.00148089
     atom   23 type  1   force =     0.00000000    0.00000000   -0.00478731
     atom   24 type  1   force =     0.00000000    0.00000000   -0.00547313
     atom   25 type  4   force =    -0.00075678    0.00000000    0.00538098
     atom   26 type  4   force =     0.00075678    0.00000000    0.00538098
     atom   27 type  4   force =     0.00050820    0.00000000    0.01163693
     atom   28 type  4   force =    -0.00050820    0.00000000    0.01163693
     atom   29 type  3   force =     0.00166052    0.00000000   -0.00939625
     atom   30 type  3   force =    -0.00166052    0.00000000   -0.00939625
     atom   31 type  4   force =    -0.00799897    0.00000000    0.01546737
     atom   32 type  4   force =     0.00799897    0.00000000    0.01546737
     atom   33 type  1   force =     0.00000000    0.00000000   -0.00941839
     atom   34 type  1   force =     0.00000000    0.00000000    0.00554363
     atom   35 type  3   force =    -0.00771530    0.00000000    0.00089347
     atom   36 type  3   force =     0.00771530    0.00000000    0.00089347
     atom   37 type  4   force =     0.00000000    0.00000000   -0.00023619
     atom   38 type  4   force =     0.00000000    0.00000000    0.00772282
     atom   39 type  4   force =     0.00176775    0.00000000    0.00188080
     atom   40 type  4   force =    -0.00176775    0.00000000    0.00188080
     atom   41 type  5   force =     0.00000000    0.00000000   -0.03349226
     atom   42 type  2   force =     0.00000000    0.00000000   -0.02675213
     atom   43 type  4   force =     0.00000000    0.00000000    0.00457930
     atom   44 type  4   force =     0.00033065    0.00000000    0.00236105
     atom   45 type  4   force =    -0.00033065    0.00000000    0.00236105
     atom   46 type  4   force =     0.00000000    0.00000000    0.00346429
     atom   47 type  3   force =     0.00053198    0.00000000    0.00089702
     atom   48 type  3   force =    -0.00053198    0.00000000    0.00089702
     atom   49 type  1   force =     0.00000000    0.00000000   -0.00077126
     atom   50 type  1   force =     0.00000000    0.00000000   -0.00090357
     atom   51 type  4   force =     0.00006510    0.00000000    0.00071018
     atom   52 type  4   force =    -0.00006510    0.00000000    0.00071018
     atom   53 type  3   force =    -0.00004041    0.00000000   -0.00033209
     atom   54 type  3   force =     0.00004041    0.00000000   -0.00033209
     atom   55 type  4   force =    -0.00000194    0.00000000    0.00027135
     atom   56 type  4   force =     0.00000194    0.00000000    0.00027135

     Total force =     0.058197     Total SCF correction =     0.000213


     Computing stress (Cartesian axis) and pressure


     negative rho (up, down):  9.217E-02 0.000E+00
          total   stress  (Ry/bohr**3)                   (kbar)     P=       -7.27
  -0.00006870   0.00000000   0.00000000          -10.11        0.00        0.00
   0.00000000  -0.00003878   0.00000000            0.00       -5.71        0.00
   0.00000000   0.00000000  -0.00004073            0.00        0.00       -5.99

 
     init_run     :     24.36s CPU     25.39s WALL (       1 calls)
     electrons    :   1759.13s CPU   1847.62s WALL (       1 calls)
     forces       :     10.20s CPU     10.87s WALL (       1 calls)
     stress       :     92.45s CPU     94.30s WALL (       1 calls)

     Called by init_run:
     wfcinit      :     20.01s CPU     20.36s WALL (       1 calls)
     potinit      :      0.99s CPU      1.01s WALL (       1 calls)
     hinit0       :      1.65s CPU      1.68s WALL (       1 calls)

     Called by electrons:
     c_bands      :   1482.09s CPU   1525.57s WALL (      36 calls)
     sum_band     :    210.42s CPU    236.01s WALL (      36 calls)
     v_of_rho     :      3.78s CPU      3.84s WALL (      37 calls)
     newd         :     30.81s CPU     50.42s WALL (      37 calls)
     mix_rho      :     32.60s CPU     32.89s WALL (      36 calls)

     Called by c_bands:
     init_us_2    :      9.30s CPU      9.38s WALL (    1875 calls)
     cegterg      :   1418.76s CPU   1461.10s WALL (     900 calls)

     Called by sum_band:
     sum_band:bec :      1.06s CPU      1.07s WALL (     900 calls)
     addusdens    :     32.86s CPU     56.34s WALL (      36 calls)

     Called by *egterg:
     h_psi        :    673.91s CPU    688.14s WALL (    4783 calls)
     s_psi        :    104.45s CPU    105.02s WALL (    4783 calls)
     g_psi        :      1.52s CPU      1.55s WALL (    3858 calls)
     cdiaghg      :    350.43s CPU    351.75s WALL (    4758 calls)

     Called by h_psi:
     h_psi:calbec :    110.46s CPU    111.00s WALL (    4783 calls)
     vloc_psi     :    455.69s CPU    462.21s WALL (    4783 calls)
     add_vuspsi   :    104.70s CPU    105.21s WALL (    4783 calls)

     General routines
     calbec       :    166.72s CPU    167.45s WALL (    5808 calls)
     fft          :      3.17s CPU      3.19s WALL (     504 calls)
     ffts         :     18.19s CPU     18.34s WALL (   21530 calls)
     fftw         :    522.00s CPU    529.29s WALL ( 1280522 calls)
     interpolate  :      0.26s CPU      0.26s WALL (      37 calls)
 
     Parallel routines
     fft_scatt_xy :     60.84s CPU     61.73s WALL ( 1302556 calls)
     fft_scatt_yz :    339.12s CPU    343.79s WALL ( 1302556 calls)
 
     PWSCF        :  31m27.10s CPU  32m59.22s WALL

 
   This run was terminated on:  14:57:52  25May2021            

=------------------------------------------------------------------------------=
   JOB DONE.
=------------------------------------------------------------------------------=
[1621969072.684362] [holy7c04501:152393:0]          mpool.c:43   UCX  WARN  object 0x3149340 was not returned to mpool ucp_requests
[1621969072.682848] [holy7c04410:23588:0]          mpool.c:43   UCX  WARN  object 0x2f53080 was not returned to mpool ucp_requests
[1621969072.683975] [holy7c04409:128292:0]          mpool.c:43   UCX  WARN  object 0x3a01680 was not returned to mpool ucp_requests
[1621969072.683993] [holy7c04409:128292:0]          mpool.c:43   UCX  WARN  object 0x3a01840 was not returned to mpool ucp_requests
[1621969072.682016] [holy7c04406:200005:0]          mpool.c:43   UCX  WARN  object 0x3a8d900 was not returned to mpool ucp_requests
[1621969072.682038] [holy7c04406:200005:0]          mpool.c:43   UCX  WARN  object 0x3a8e000 was not returned to mpool ucp_requests
[1621969072.694011] [holy7c04408:81725:0]          mpool.c:43   UCX  WARN  object 0x3d9eb80 was not returned to mpool ucp_requests
[1621969072.694035] [holy7c04408:81725:0]          mpool.c:43   UCX  WARN  object 0x3d9ef00 was not returned to mpool ucp_requests
[1621969072.690033] [holy7c04403:188343:0]          mpool.c:43   UCX  WARN  object 0x372ff80 was not returned to mpool ucp_requests
[1621969072.689966] [holy7c04403:188342:0]          mpool.c:43   UCX  WARN  object 0x4235b40 was not returned to mpool ucp_requests
[1621969072.684397] [holy7c04501:152391:0]          mpool.c:43   UCX  WARN  object 0x3585100 was not returned to mpool ucp_requests
[1621969072.684415] [holy7c04501:152391:0]          mpool.c:43   UCX  WARN  object 0x35852c0 was not returned to mpool ucp_requests
[1621969072.684418] [holy7c04501:152391:0]          mpool.c:43   UCX  WARN  object 0x35859c0 was not returned to mpool ucp_requests
[1621969072.686604] [holy7c04501:152394:0]          mpool.c:43   UCX  WARN  object 0x295f1c0 was not returned to mpool ucp_requests
[1621969072.690272] [holy7c04410:23589:0]          mpool.c:43   UCX  WARN  object 0x46b31c0 was not returned to mpool ucp_requests
[1621969072.699528] [holy7c04408:81729:0]          mpool.c:43   UCX  WARN  object 0x377e380 was not returned to mpool ucp_requests
[1621969072.699418] [holy7c04408:81728:0]          mpool.c:43   UCX  WARN  object 0x3b6f8c0 was not returned to mpool ucp_requests
[1621969072.700819] [holy7c04408:81723:0]          mpool.c:43   UCX  WARN  object 0x2cf2a00 was not returned to mpool ucp_requests
[1621969072.700839] [holy7c04408:81723:0]          mpool.c:43   UCX  WARN  object 0x2cf2bc0 was not returned to mpool ucp_requests
[1621969072.700610] [holy7c04408:81724:0]          mpool.c:43   UCX  WARN  object 0x3cffd40 was not returned to mpool ucp_requests
