
     Program PWSCF v.6.5 starts on 25May2021 at 16:37:40 

     This program is part of the open-source Quantum ESPRESSO suite
     for quantum simulation of materials; please cite
         "P. Giannozzi et al., J. Phys.:Condens. Matter 21 395502 (2009);
         "P. Giannozzi et al., J. Phys.:Condens. Matter 29 465901 (2017);
          URL http://www.quantum-espresso.org", 
     in publications or presentations arising from this work. More details at
     http://www.quantum-espresso.org/quote

     Parallel version (MPI), running on    32 processors

     MPI processes distributed on    10 nodes
     R & G space division:  proc/nbgrp/npool/nimage =      32
     Reading input from YCBCO50_212_BaO_cleave_2.0_sep.pwi
Warning: card &IONS ignored
Warning: card     ION_DYNAMICS = 'BFGS' ignored
Warning: card / ignored
Warning: card &CELL ignored
Warning: card     CELL_DYNAMICS = 'BFGS' ignored
Warning: card     PRESS_CONV_THR = 5 ignored
Warning: card / ignored

     Current dimensions of program PWSCF are:
     Max number of different atomic species (ntypx) = 10
     Max number of k-points (npk) =  40000
     Max angular momentum in pseudopotentials (lmaxx) =  3

     Subspace diagonalization in iterative solution of the eigenvalue problem:
     one sub-group per band group will be used
     scalapack distributed-memory algorithm (size of sub-group:  5*  5 procs)

     Message from routine setup:
     using ibrav=0 with symmetry is DISCOURAGED, use correct ibrav instead
 
     Parallelization info
     --------------------
     sticks:   dense  smooth     PW     G-vecs:    dense   smooth      PW
     Min         188      62     17                92900    17870    2665
     Max         189      63     18                92930    17915    2706
     Sum        6019    2003    565              2973325   572559   86089
 


     bravais-lattice index     =            0
     lattice parameter (alat)  =      14.8133  a.u.
     unit-cell volume          =    9113.2300 (a.u.)^3
     number of atoms/cell      =           56
     number of atomic types    =            5
     number of electrons       =       456.00
     number of Kohn-Sham states=          274
     kinetic-energy cutoff     =      60.0000  Ry
     charge density cutoff     =     720.0000  Ry
     convergence threshold     =      1.0E-08
     mixing beta               =       0.5000
     number of iterations used =           10  local-TF  mixing
     Exchange-correlation= SLA PW PBE PBE
                           (   1   4   3   4   0   0   0)

     celldm(1)=  14.813271  celldm(2)=   0.000000  celldm(3)=   0.000000
     celldm(4)=   0.000000  celldm(5)=   0.000000  celldm(6)=   0.000000

     crystal axes: (cart. coord. in units of alat)
               a(1) = (   1.000000   0.000000   0.000000 )  
               a(2) = (   0.000000   0.477453   0.000000 )  
               a(3) = (   0.000000   0.000000   5.872041 )  

     reciprocal axes: (cart. coord. in units 2 pi/alat)
               b(1) = (  1.000000  0.000000  0.000000 )  
               b(2) = (  0.000000  2.094448  0.000000 )  
               b(3) = (  0.000000  0.000000  0.170299 )  


     PseudoPot. # 1 for Ba read from file:
     ./pseudo/Ba.pbe-nsp-van.UPF
     MD5 check sum: 2b9c31dd849566dd297d80989662b7a0
     Pseudo is Ultrasoft + core correction, Zval = 10.0
     Generated by new atomic code, or converted to UPF format
     Using radial grid of  907 points,  6 beta functions with: 
                l(1) =   0
                l(2) =   0
                l(3) =   1
                l(4) =   1
                l(5) =   2
                l(6) =   2
     Q(r) pseudized with  6 coefficients,  rinner =    1.200   1.200   1.200
                                                       1.200   1.200

     PseudoPot. # 2 for Ca read from file:
     ./pseudo/Ca.pbe-nsp-van.UPF
     MD5 check sum: 6471098428ff4fa451746d08035ff179
     Pseudo is Ultrasoft + core correction, Zval = 10.0
     Generated by new atomic code, or converted to UPF format
     Using radial grid of  845 points,  6 beta functions with: 
                l(1) =   0
                l(2) =   0
                l(3) =   1
                l(4) =   1
                l(5) =   2
                l(6) =   2
     Q(r) pseudized with  6 coefficients,  rinner =    1.200   1.200   1.200
                                                       1.200   1.200

     PseudoPot. # 3 for Cu read from file:
     ./pseudo/Cu.pbe-n-van_ak.UPF
     MD5 check sum: 34e3282627ffb533726feb647e090d62
     Pseudo is Ultrasoft + core correction, Zval = 11.0
     Generated by new atomic code, or converted to UPF format
     Using radial grid of  867 points,  6 beta functions with: 
                l(1) =   0
                l(2) =   0
                l(3) =   1
                l(4) =   1
                l(5) =   2
                l(6) =   2
     Q(r) pseudized with  8 coefficients,  rinner =    1.400   1.400   1.400
                                                       1.400   1.400

     PseudoPot. # 4 for O  read from file:
     ./pseudo/O.pbe-van_ak.UPF
     MD5 check sum: 783ce7fe4c79b6a4916957118fed0856
     Pseudo is Ultrasoft, Zval =  6.0
     Generated by new atomic code, or converted to UPF format
     Using radial grid of  737 points,  4 beta functions with: 
                l(1) =   0
                l(2) =   0
                l(3) =   1
                l(4) =   1
     Q(r) pseudized with  8 coefficients,  rinner =    0.800   0.800   0.800


     PseudoPot. # 5 for Y  read from file:
     ./pseudo/Y.pbe-nsp-van.UPF
     MD5 check sum: 4412fed3ab108fed87a1b7d6a69a4a38
     Pseudo is Ultrasoft + core correction, Zval = 11.0
     Generated by new atomic code, or converted to UPF format
     Using radial grid of  885 points,  6 beta functions with: 
                l(1) =   0
                l(2) =   0
                l(3) =   1
                l(4) =   1
                l(5) =   2
                l(6) =   2
     Q(r) pseudized with  6 coefficients,  rinner =    1.200   1.200   1.200
                                                       1.200   1.200

     atomic species   valence    mass     pseudopotential
        Ba            10.00   137.32700     Ba( 1.00)
        Ca            10.00    40.07800     Ca( 1.00)
        Cu            11.00    63.54600     Cu( 1.00)
        O              6.00    15.99900     O ( 1.00)
        Y             11.00    88.90584     Y ( 1.00)

      4 Sym. Ops. (no inversion) found ( 2 have fractional translation)



   Cartesian axes

     site n.     atom                  positions (alat units)
         1           O   tau(   1) = (  -0.0008343   0.2387265  -0.0222443  )
         2           O   tau(   2) = (   0.5008340   0.2387265  -0.0222443  )
         3           Cu  tau(   3) = (   0.5017257   0.0000000   0.0109608  )
         4           Cu  tau(   4) = (  -0.0017260   0.0000000   0.0109608  )
         5           O   tau(   5) = (  -0.0028933   0.0000000   0.2506504  )
         6           O   tau(   6) = (   0.5028929   0.0000000   0.2506504  )
         7           Ba  tau(   7) = (   0.7499995   0.2387265   0.2749435  )
         8           Ba  tau(   8) = (   0.2499998   0.2387265   0.2755214  )
         9           Cu  tau(   9) = (   0.4980963   0.0000000   0.5208446  )
        10           Cu  tau(  10) = (   0.0019033   0.0000000   0.5208446  )
        11           O   tau(  11) = (   0.2499998   0.0000000   0.5341884  )
        12           O   tau(  12) = (   0.5083351   0.2387265   0.5569851  )
        13           O   tau(  13) = (  -0.0083354   0.2387265   0.5569851  )
        14           O   tau(  14) = (   0.7499995   0.0000000   0.5573831  )
        15           Ca  tau(  15) = (   0.2499998   0.2387265   0.7436937  )
        16           Y   tau(  16) = (   0.7499995   0.2387265   0.7469544  )
        17           O   tau(  17) = (  -0.0063798   0.2387265   0.9248530  )
        18           O   tau(  18) = (   0.5063794   0.2387265   0.9248530  )
        19           O   tau(  19) = (   0.7499995   0.0000000   0.9338544  )
        20           O   tau(  20) = (   0.2499998   0.0000000   0.9461329  )
        21           Cu  tau(  21) = (   0.0015717   0.0000000   0.9686860  )
        22           Cu  tau(  22) = (   0.4984280   0.0000000   0.9686860  )
        23           Ba  tau(  23) = (   0.2499998   0.2387265   1.2085224  )
        24           Ba  tau(  24) = (   0.7499995   0.2387265   1.2233294  )
        25           O   tau(  25) = (   0.0063772   0.0000000   1.2547537  )
        26           O   tau(  26) = (   0.4936224   0.0000000   1.2547537  )
        27           O   tau(  27) = (   0.5384045   0.2387265   1.4952521  )
        28           O   tau(  28) = (  -0.0384049   0.2387265   1.4952521  )
        29           Cu  tau(  29) = (   0.5006120   0.0000000   1.4952546  )
        30           Cu  tau(  30) = (  -0.0006123   0.0000000   1.4952546  )
        31           O   tau(  31) = (   0.4936212   0.0000000   1.7357531  )
        32           O   tau(  32) = (   0.0063785   0.0000000   1.7357531  )
        33           Ba  tau(  33) = (   0.7499995   0.2387265   1.7671824  )
        34           Ba  tau(  34) = (   0.2499998   0.2387265   1.7819920  )
        35           Cu  tau(  35) = (   0.4984280   0.0000000   2.2769629  )
        36           Cu  tau(  36) = (   0.0015717   0.0000000   2.2769629  )
        37           O   tau(  37) = (   0.2499998   0.0000000   2.2995210  )
        38           O   tau(  38) = (   0.7499995   0.0000000   2.3117907  )
        39           O   tau(  39) = (   0.5063781   0.2387265   2.3207958  )
        40           O   tau(  40) = (  -0.0063785   0.2387265   2.3207958  )
        41           Y   tau(  41) = (   0.7499995   0.2387265   2.4986894  )
        42           Ca  tau(  42) = (   0.2499998   0.2387265   2.5019590  )
        43           O   tau(  43) = (   0.7499995   0.0000000   2.6882568  )
        44           O   tau(  44) = (  -0.0083354   0.2387265   2.6886587  )
        45           O   tau(  45) = (   0.5083351   0.2387265   2.6886587  )
        46           O   tau(  46) = (   0.2499998   0.0000000   2.7114567  )
        47           Cu  tau(  47) = (   0.0019059   0.0000000   2.7247903  )
        48           Cu  tau(  48) = (   0.4980938   0.0000000   2.7247903  )
        49           Ba  tau(  49) = (   0.2499998   0.2387265   2.9701300  )
        50           Ba  tau(  50) = (   0.7499995   0.2387265   2.9706722  )
        51           O   tau(  51) = (  -0.0028895   0.0000000   2.9949793  )
        52           O   tau(  52) = (   0.5028891   0.0000000   2.9949793  )
        53           Cu  tau(  53) = (   0.5017844   0.0000000   3.2346638  )
        54           Cu  tau(  54) = (  -0.0017847   0.0000000   3.2346638  )
        55           O   tau(  55) = (   0.5008990   0.2387265   3.2678703  )
        56           O   tau(  56) = (  -0.0008994   0.2387265   3.2678703  )

     number of k points=    25  Gaussian smearing, width (Ry)=  0.0100
                       cart. coord. in units 2pi/alat
        k(    1) = (   0.0000000   0.0000000   0.0000000), wk =   0.0312500
        k(    2) = (   0.0000000   0.2618060   0.0000000), wk =   0.0625000
        k(    3) = (   0.0000000   0.5236121   0.0000000), wk =   0.0625000
        k(    4) = (   0.0000000   0.7854181   0.0000000), wk =   0.0625000
        k(    5) = (   0.0000000  -1.0472241   0.0000000), wk =   0.0312500
        k(    6) = (   0.1250000   0.0000000   0.0000000), wk =   0.0625000
        k(    7) = (   0.1250000   0.2618060   0.0000000), wk =   0.1250000
        k(    8) = (   0.1250000   0.5236121   0.0000000), wk =   0.1250000
        k(    9) = (   0.1250000   0.7854181   0.0000000), wk =   0.1250000
        k(   10) = (   0.1250000  -1.0472241   0.0000000), wk =   0.0625000
        k(   11) = (   0.2500000   0.0000000   0.0000000), wk =   0.0625000
        k(   12) = (   0.2500000   0.2618060   0.0000000), wk =   0.1250000
        k(   13) = (   0.2500000   0.5236121   0.0000000), wk =   0.1250000
        k(   14) = (   0.2500000   0.7854181   0.0000000), wk =   0.1250000
        k(   15) = (   0.2500000  -1.0472241   0.0000000), wk =   0.0625000
        k(   16) = (   0.3750000   0.0000000   0.0000000), wk =   0.0625000
        k(   17) = (   0.3750000   0.2618060   0.0000000), wk =   0.1250000
        k(   18) = (   0.3750000   0.5236121   0.0000000), wk =   0.1250000
        k(   19) = (   0.3750000   0.7854181   0.0000000), wk =   0.1250000
        k(   20) = (   0.3750000  -1.0472241   0.0000000), wk =   0.0625000
        k(   21) = (  -0.5000000   0.0000000   0.0000000), wk =   0.0312500
        k(   22) = (  -0.5000000   0.2618060   0.0000000), wk =   0.0625000
        k(   23) = (  -0.5000000   0.5236121   0.0000000), wk =   0.0625000
        k(   24) = (  -0.5000000   0.7854181   0.0000000), wk =   0.0625000
        k(   25) = (  -0.5000000  -1.0472241   0.0000000), wk =   0.0312500

     Dense  grid:  2973325 G-vectors     FFT dimensions: ( 128,  64, 750)

     Smooth grid:   572559 G-vectors     FFT dimensions: (  80,  36, 432)

     Estimated max dynamical RAM per process >     860.93 MB

     Estimated total dynamical RAM >      26.90 GB

     Initial potential from superposition of free atoms

     starting charge  455.69457, renormalised to  456.00000

     negative rho (up, down):  9.329E-02 0.000E+00
     Starting wfcs are  396 randomized atomic wfcs

     total cpu time spent up to now is       26.7 secs

     Self-consistent Calculation

     iteration #  1     ecut=    60.00 Ry     beta= 0.50
     Davidson diagonalization with overlap
     ethr =  1.00E-02,  avg # of iterations =  2.0

     negative rho (up, down):  8.624E-02 0.000E+00

     total cpu time spent up to now is       73.3 secs

     total energy              =   -3708.28176005 Ry
     Harris-Foulkes estimate   =   -3716.55727624 Ry
     estimated scf accuracy    <      32.70229617 Ry

     iteration #  2     ecut=    60.00 Ry     beta= 0.50
     Davidson diagonalization with overlap
     ethr =  7.17E-03,  avg # of iterations =  2.0

     negative rho (up, down):  8.603E-02 0.000E+00

     total cpu time spent up to now is      119.7 secs

     total energy              =   -3711.04984755 Ry
     Harris-Foulkes estimate   =   -3712.42927778 Ry
     estimated scf accuracy    <       8.02749321 Ry

     iteration #  3     ecut=    60.00 Ry     beta= 0.50
     Davidson diagonalization with overlap
     ethr =  1.76E-03,  avg # of iterations =  1.9

     negative rho (up, down):  8.648E-02 0.000E+00

     total cpu time spent up to now is      164.9 secs

     total energy              =   -3711.67222275 Ry
     Harris-Foulkes estimate   =   -3711.98695301 Ry
     estimated scf accuracy    <       7.80270676 Ry

     iteration #  4     ecut=    60.00 Ry     beta= 0.50
     Davidson diagonalization with overlap
     ethr =  1.71E-03,  avg # of iterations =  1.0

     negative rho (up, down):  8.713E-02 0.000E+00

     total cpu time spent up to now is      206.9 secs

     total energy              =   -3711.72729675 Ry
     Harris-Foulkes estimate   =   -3711.82082705 Ry
     estimated scf accuracy    <       3.22501470 Ry

     iteration #  5     ecut=    60.00 Ry     beta= 0.50
     Davidson diagonalization with overlap
     ethr =  7.07E-04,  avg # of iterations =  1.0

     negative rho (up, down):  8.859E-02 0.000E+00

     total cpu time spent up to now is      249.6 secs

     total energy              =   -3711.64139837 Ry
     Harris-Foulkes estimate   =   -3711.79501650 Ry
     estimated scf accuracy    <       3.72318767 Ry

     iteration #  6     ecut=    60.00 Ry     beta= 0.50
     Davidson diagonalization with overlap
     ethr =  7.07E-04,  avg # of iterations =  1.1

     negative rho (up, down):  8.944E-02 0.000E+00

     total cpu time spent up to now is      292.4 secs

     total energy              =   -3711.66409741 Ry
     Harris-Foulkes estimate   =   -3711.69822192 Ry
     estimated scf accuracy    <       1.12987928 Ry

     iteration #  7     ecut=    60.00 Ry     beta= 0.50
     Davidson diagonalization with overlap
     ethr =  2.48E-04,  avg # of iterations =  7.4

     negative rho (up, down):  9.026E-02 0.000E+00

     total cpu time spent up to now is      354.5 secs

     total energy              =   -3711.66221693 Ry
     Harris-Foulkes estimate   =   -3711.68274349 Ry
     estimated scf accuracy    <       0.57433562 Ry

     iteration #  8     ecut=    60.00 Ry     beta= 0.50
     Davidson diagonalization with overlap
     ethr =  1.26E-04,  avg # of iterations =  6.0

     negative rho (up, down):  9.070E-02 0.000E+00

     total cpu time spent up to now is      412.4 secs

     total energy              =   -3711.66158578 Ry
     Harris-Foulkes estimate   =   -3711.67368309 Ry
     estimated scf accuracy    <       0.55532910 Ry

     iteration #  9     ecut=    60.00 Ry     beta= 0.50
     Davidson diagonalization with overlap
     ethr =  1.22E-04,  avg # of iterations =  1.2

     negative rho (up, down):  9.074E-02 0.000E+00

     total cpu time spent up to now is      455.2 secs

     total energy              =   -3711.64968361 Ry
     Harris-Foulkes estimate   =   -3711.66635619 Ry
     estimated scf accuracy    <       0.29850256 Ry

     iteration # 10     ecut=    60.00 Ry     beta= 0.50
     Davidson diagonalization with overlap
     ethr =  6.55E-05,  avg # of iterations =  7.1

     negative rho (up, down):  9.046E-02 0.000E+00

     total cpu time spent up to now is      515.6 secs

     total energy              =   -3711.64602226 Ry
     Harris-Foulkes estimate   =   -3711.65431455 Ry
     estimated scf accuracy    <       0.13659558 Ry

     iteration # 11     ecut=    60.00 Ry     beta= 0.50
     Davidson diagonalization with overlap
     c_bands:  1 eigenvalues not converged
     c_bands:  1 eigenvalues not converged
     ethr =  3.00E-05,  avg # of iterations =  9.7

     negative rho (up, down):  9.003E-02 0.000E+00

     total cpu time spent up to now is      585.0 secs

     total energy              =   -3711.64367139 Ry
     Harris-Foulkes estimate   =   -3711.64802732 Ry
     estimated scf accuracy    <       0.05200367 Ry

     iteration # 12     ecut=    60.00 Ry     beta= 0.50
     Davidson diagonalization with overlap
     c_bands:  1 eigenvalues not converged
     c_bands:  1 eigenvalues not converged
     ethr =  1.14E-05,  avg # of iterations =  9.8

     negative rho (up, down):  8.967E-02 0.000E+00

     total cpu time spent up to now is      655.2 secs

     total energy              =   -3711.64335184 Ry
     Harris-Foulkes estimate   =   -3711.64479691 Ry
     estimated scf accuracy    <       0.04368628 Ry

     iteration # 13     ecut=    60.00 Ry     beta= 0.50
     Davidson diagonalization with overlap
     c_bands:  1 eigenvalues not converged
     ethr =  9.58E-06,  avg # of iterations =  2.2

     negative rho (up, down):  8.947E-02 0.000E+00

     total cpu time spent up to now is      700.6 secs

     total energy              =   -3711.64187484 Ry
     Harris-Foulkes estimate   =   -3711.64367034 Ry
     estimated scf accuracy    <       0.05224599 Ry

     iteration # 14     ecut=    60.00 Ry     beta= 0.50
     Davidson diagonalization with overlap
     c_bands:  1 eigenvalues not converged
     ethr =  9.58E-06,  avg # of iterations =  4.6

     negative rho (up, down):  8.991E-02 0.000E+00

     total cpu time spent up to now is      753.6 secs

     total energy              =   -3711.64073389 Ry
     Harris-Foulkes estimate   =   -3711.64214074 Ry
     estimated scf accuracy    <       0.05517535 Ry

     iteration # 15     ecut=    60.00 Ry     beta= 0.50
     Davidson diagonalization with overlap
     ethr =  9.58E-06,  avg # of iterations =  2.2

     negative rho (up, down):  9.008E-02 0.000E+00

     total cpu time spent up to now is      799.1 secs

     total energy              =   -3711.63925558 Ry
     Harris-Foulkes estimate   =   -3711.64091276 Ry
     estimated scf accuracy    <       0.05173606 Ry

     iteration # 16     ecut=    60.00 Ry     beta= 0.50
     Davidson diagonalization with overlap
     ethr =  9.58E-06,  avg # of iterations =  4.6

     negative rho (up, down):  9.704E-02 0.000E+00

     total cpu time spent up to now is      850.9 secs

     total energy              =   -3711.63731947 Ry
     Harris-Foulkes estimate   =   -3711.63956239 Ry
     estimated scf accuracy    <       0.03968984 Ry

     iteration # 17     ecut=    60.00 Ry     beta= 0.50
     Davidson diagonalization with overlap
     ethr =  8.70E-06,  avg # of iterations =  9.4

     negative rho (up, down):  1.046E-01 0.000E+00

     total cpu time spent up to now is      918.3 secs

     total energy              =   -3711.63606049 Ry
     Harris-Foulkes estimate   =   -3711.63748601 Ry
     estimated scf accuracy    <       0.03250536 Ry

     iteration # 18     ecut=    60.00 Ry     beta= 0.50
     Davidson diagonalization with overlap
     c_bands:  1 eigenvalues not converged
     ethr =  7.13E-06,  avg # of iterations =  7.8

     negative rho (up, down):  1.013E-01 0.000E+00

     total cpu time spent up to now is      981.5 secs

     total energy              =   -3711.63506809 Ry
     Harris-Foulkes estimate   =   -3711.63621230 Ry
     estimated scf accuracy    <       0.01620523 Ry

     iteration # 19     ecut=    60.00 Ry     beta= 0.50
     Davidson diagonalization with overlap
     c_bands:  1 eigenvalues not converged
     c_bands:  1 eigenvalues not converged
     ethr =  3.55E-06,  avg # of iterations = 11.3

     negative rho (up, down):  9.264E-02 0.000E+00

     total cpu time spent up to now is     1055.9 secs

     total energy              =   -3711.63501723 Ry
     Harris-Foulkes estimate   =   -3711.63528747 Ry
     estimated scf accuracy    <       0.00406060 Ry

     iteration # 20     ecut=    60.00 Ry     beta= 0.50
     Davidson diagonalization with overlap
     c_bands:  1 eigenvalues not converged
     c_bands:  1 eigenvalues not converged
     c_bands:  1 eigenvalues not converged
     ethr =  8.90E-07,  avg # of iterations = 10.8

     negative rho (up, down):  9.197E-02 0.000E+00

     total cpu time spent up to now is     1126.9 secs

     total energy              =   -3711.63494851 Ry
     Harris-Foulkes estimate   =   -3711.63507722 Ry
     estimated scf accuracy    <       0.00245750 Ry

     iteration # 21     ecut=    60.00 Ry     beta= 0.50
     Davidson diagonalization with overlap
     c_bands:  1 eigenvalues not converged
     ethr =  5.39E-07,  avg # of iterations =  9.2

     negative rho (up, down):  9.565E-02 0.000E+00

     total cpu time spent up to now is     1194.0 secs

     total energy              =   -3711.63506133 Ry
     Harris-Foulkes estimate   =   -3711.63502656 Ry
     estimated scf accuracy    <       0.00097287 Ry

     iteration # 22     ecut=    60.00 Ry     beta= 0.50
     Davidson diagonalization with overlap
     c_bands:  1 eigenvalues not converged
     c_bands:  1 eigenvalues not converged
     ethr =  2.13E-07,  avg # of iterations = 10.0

     negative rho (up, down):  9.541E-02 0.000E+00

     total cpu time spent up to now is     1262.8 secs

     total energy              =   -3711.63507935 Ry
     Harris-Foulkes estimate   =   -3711.63509012 Ry
     estimated scf accuracy    <       0.00065470 Ry

     iteration # 23     ecut=    60.00 Ry     beta= 0.50
     Davidson diagonalization with overlap
     ethr =  1.44E-07,  avg # of iterations =  2.2

     negative rho (up, down):  9.283E-02 0.000E+00

     total cpu time spent up to now is     1309.0 secs

     total energy              =   -3711.63501982 Ry
     Harris-Foulkes estimate   =   -3711.63508552 Ry
     estimated scf accuracy    <       0.00042600 Ry

     iteration # 24     ecut=    60.00 Ry     beta= 0.50
     Davidson diagonalization with overlap
     c_bands:  1 eigenvalues not converged
     c_bands:  1 eigenvalues not converged
     ethr =  9.34E-08,  avg # of iterations =  9.4

     negative rho (up, down):  9.324E-02 0.000E+00

     total cpu time spent up to now is     1375.5 secs

     total energy              =   -3711.63502301 Ry
     Harris-Foulkes estimate   =   -3711.63503370 Ry
     estimated scf accuracy    <       0.00028145 Ry

     iteration # 25     ecut=    60.00 Ry     beta= 0.50
     Davidson diagonalization with overlap
     ethr =  6.17E-08,  avg # of iterations =  1.9

     negative rho (up, down):  9.196E-02 0.000E+00

     total cpu time spent up to now is     1420.8 secs

     total energy              =   -3711.63501491 Ry
     Harris-Foulkes estimate   =   -3711.63502676 Ry
     estimated scf accuracy    <       0.00007645 Ry

     iteration # 26     ecut=    60.00 Ry     beta= 0.50
     Davidson diagonalization with overlap
     ethr =  1.68E-08,  avg # of iterations =  3.8

     negative rho (up, down):  9.193E-02 0.000E+00

     total cpu time spent up to now is     1470.7 secs

     total energy              =   -3711.63501832 Ry
     Harris-Foulkes estimate   =   -3711.63501870 Ry
     estimated scf accuracy    <       0.00000626 Ry

     iteration # 27     ecut=    60.00 Ry     beta= 0.50
     Davidson diagonalization with overlap
     ethr =  1.37E-09,  avg # of iterations =  2.9

     negative rho (up, down):  9.182E-02 0.000E+00

     total cpu time spent up to now is     1519.2 secs

     total energy              =   -3711.63501892 Ry
     Harris-Foulkes estimate   =   -3711.63501895 Ry
     estimated scf accuracy    <       0.00000473 Ry

     iteration # 28     ecut=    60.00 Ry     beta= 0.50
     Davidson diagonalization with overlap
     ethr =  1.04E-09,  avg # of iterations =  1.0

     negative rho (up, down):  9.198E-02 0.000E+00

     total cpu time spent up to now is     1561.6 secs

     total energy              =   -3711.63501867 Ry
     Harris-Foulkes estimate   =   -3711.63501915 Ry
     estimated scf accuracy    <       0.00000231 Ry

     iteration # 29     ecut=    60.00 Ry     beta= 0.50
     Davidson diagonalization with overlap
     ethr =  5.07E-10,  avg # of iterations =  1.0

     negative rho (up, down):  9.204E-02 0.000E+00

     total cpu time spent up to now is     1603.6 secs

     total energy              =   -3711.63501863 Ry
     Harris-Foulkes estimate   =   -3711.63501876 Ry
     estimated scf accuracy    <       0.00000074 Ry

     iteration # 30     ecut=    60.00 Ry     beta= 0.50
     Davidson diagonalization with overlap
     ethr =  1.62E-10,  avg # of iterations =  2.6

     negative rho (up, down):  9.205E-02 0.000E+00

     total cpu time spent up to now is     1650.5 secs

     total energy              =   -3711.63501865 Ry
     Harris-Foulkes estimate   =   -3711.63501866 Ry
     estimated scf accuracy    <       0.00000048 Ry

     iteration # 31     ecut=    60.00 Ry     beta= 0.50
     Davidson diagonalization with overlap
     ethr =  1.05E-10,  avg # of iterations =  1.0

     negative rho (up, down):  9.206E-02 0.000E+00

     total cpu time spent up to now is     1692.8 secs

     total energy              =   -3711.63501865 Ry
     Harris-Foulkes estimate   =   -3711.63501867 Ry
     estimated scf accuracy    <       0.00000020 Ry

     iteration # 32     ecut=    60.00 Ry     beta= 0.50
     Davidson diagonalization with overlap
     ethr =  4.40E-11,  avg # of iterations =  2.2

     negative rho (up, down):  9.206E-02 0.000E+00

     total cpu time spent up to now is     1738.6 secs

     total energy              =   -3711.63501866 Ry
     Harris-Foulkes estimate   =   -3711.63501867 Ry
     estimated scf accuracy    <       0.00000010 Ry

     iteration # 33     ecut=    60.00 Ry     beta= 0.50
     Davidson diagonalization with overlap
     ethr =  2.09E-11,  avg # of iterations =  1.6

     negative rho (up, down):  9.206E-02 0.000E+00

     total cpu time spent up to now is     1782.4 secs

     total energy              =   -3711.63501865 Ry
     Harris-Foulkes estimate   =   -3711.63501866 Ry
     estimated scf accuracy    <       0.00000010 Ry

     iteration # 34     ecut=    60.00 Ry     beta= 0.50
     Davidson diagonalization with overlap
     ethr =  2.09E-11,  avg # of iterations =  1.0

     negative rho (up, down):  9.207E-02 0.000E+00

     total cpu time spent up to now is     1824.8 secs

     total energy              =   -3711.63501864 Ry
     Harris-Foulkes estimate   =   -3711.63501865 Ry
     estimated scf accuracy    <       0.00000004 Ry

     iteration # 35     ecut=    60.00 Ry     beta= 0.50
     Davidson diagonalization with overlap
     ethr =  7.75E-12,  avg # of iterations =  1.5

     negative rho (up, down):  9.204E-02 0.000E+00

     total cpu time spent up to now is     1867.3 secs

     End of self-consistent calculation

          k = 0.0000 0.0000 0.0000 ( 71619 PWs)   bands (ev):

   -38.1820 -37.8918 -35.8103 -35.4839 -24.2385 -23.8623 -22.9620 -22.9394
   -22.8336 -22.8116 -22.8044 -22.6558 -18.6572 -18.5528 -18.3380 -18.2828
   -18.1852 -17.9035 -17.1582 -17.0227 -16.8401 -16.8030 -16.7185 -16.5251
   -15.5670 -15.3376 -15.2651 -15.1226 -15.1068 -15.0828 -14.8165 -14.7122
   -14.6701 -14.6358 -14.6128 -14.5998 -14.4827 -14.4504 -14.3012 -14.2776
   -14.2541 -14.1601 -14.1529 -14.1410 -14.1393 -14.1272 -14.1056 -14.0611
   -14.0464 -13.9654 -13.9123 -13.8055 -13.7178 -13.4908  -9.5886  -9.1425
    -9.0057  -8.9671  -8.6709  -8.6304  -8.2004  -8.1730  -8.0969  -8.0769
    -8.0681  -8.0114  -7.9909  -7.9905  -7.8732  -7.8513  -7.8001  -7.7768
    -7.7563  -7.6791  -7.6353  -7.6166  -7.6133  -7.4574  -3.1318  -3.0907
    -2.9726  -2.5890  -2.3179  -2.3063  -2.2308  -2.2244  -2.1938  -2.1884
    -2.1609  -2.0754  -2.0342  -1.9914  -1.9577  -1.9002  -1.8157  -1.7977
    -1.7914  -1.7851  -1.7435  -1.7014  -1.6843  -1.6839  -1.5763  -1.4809
    -1.3862  -1.3811  -1.2980  -1.2554  -1.2516  -1.1675  -1.1604  -1.1526
    -1.0659  -1.0654  -1.0652  -1.0637  -1.0384  -1.0087  -1.0061  -0.9120
    -0.8686  -0.8643  -0.8612  -0.8386  -0.8332  -0.8331  -0.7384  -0.6908
    -0.6463  -0.5973  -0.4920  -0.4020  -0.3992  -0.3943  -0.3386  -0.3214
    -0.2801  -0.2759  -0.2740  -0.2708  -0.2254  -0.1952  -0.1671  -0.1669
    -0.1340  -0.1014  -0.0868  -0.0837  -0.0758  -0.0574  -0.0119   0.0304
     0.0323   0.0417   0.0537   0.0587   0.0728   0.0816   0.1281   0.1295
     0.1669   0.1687   0.1994   0.2231   0.2564   0.2699   0.2842   0.2957
     0.3634   0.3844   0.4395   0.4469   0.4605   0.4620   0.4673   0.4785
     0.5629   0.6061   0.6139   0.6736   0.7015   0.8963   0.8966   0.9053
     0.9311   0.9421   0.9423   0.9850   1.0054   1.0376   1.0507   1.0725
     1.1129   1.1338   1.1350   1.1557   1.1766   1.1792   1.1984   1.2188
     1.2558   1.2955   1.3191   1.3260   1.3284   1.3481   1.4748   1.4848
     1.5468   1.6230   1.6293   1.6295   1.6392   1.6914   1.6984   1.7110
     1.7341   1.7429   1.7895   1.8254   1.8591   1.9340   1.9689   1.9806
     1.9987   2.1168   2.1528   2.1624   2.1720   2.2250   2.3106   2.3420
     2.4835   2.4887   2.4905   2.5545   2.7729   2.7811   4.6241   5.1333
     5.1507   5.3653   5.7022   5.9153   6.3522   6.3768   6.4882   6.5536
     6.6165   7.0522   7.1855   7.2012   7.2798   7.2814   7.3899   7.5733
     7.7823   7.8345   7.8992   7.9833   8.0439   8.0455   8.2048   8.2927
     8.3563   8.3999   8.4342   8.5454   8.5655   8.6611   8.7691   8.8683
     8.9007   9.0164

          k = 0.0000 0.2618 0.0000 ( 71587 PWs)   bands (ev):

   -38.1793 -37.8891 -35.8086 -35.4822 -24.2196 -23.8444 -22.9374 -22.9148
   -22.8145 -22.7925 -22.7808 -22.6370 -18.6185 -18.5456 -18.2992 -18.2960
   -18.2755 -18.0145 -17.1288 -17.0184 -16.9061 -16.7733 -16.7140 -16.5911
   -15.4608 -15.2424 -15.1953 -15.0665 -15.0597 -15.0260 -14.7774 -14.7099
   -14.6347 -14.6172 -14.5923 -14.5481 -14.4436 -14.3857 -14.2830 -14.2496
   -14.2402 -14.2045 -14.1693 -14.1312 -14.1267 -14.1172 -14.1069 -14.0849
   -14.0305 -13.9768 -13.9669 -13.8656 -13.7529 -13.5052  -9.5745  -9.1364
    -9.0423  -9.0237  -8.7879  -8.7359  -8.1935  -8.1668  -8.1073  -8.0905
    -8.0816  -7.9801  -7.9677  -7.9476  -7.9156  -7.9087  -7.8930  -7.8878
    -7.8424  -7.8210  -7.7824  -7.7206  -7.7115  -7.6713  -3.2334  -3.1722
    -3.0341  -2.6363  -2.4383  -2.3990  -2.3650  -2.3305  -2.3159  -2.2102
    -2.2040  -2.1919  -2.1902  -2.1381  -2.1224  -2.1069  -2.0444  -2.0177
    -1.9868  -1.8809  -1.8487  -1.7899  -1.7647  -1.6703  -1.6213  -1.6090
    -1.5113  -1.5112  -1.5034  -1.5015  -1.4819  -1.4800  -1.4785  -1.4143
    -1.4010  -1.3629  -1.2776  -1.1791  -1.0269  -1.0045  -0.9321  -0.9021
    -0.8793  -0.8532  -0.8143  -0.7761  -0.7510  -0.7462  -0.7144  -0.6648
    -0.6325  -0.6184  -0.5148  -0.4908  -0.4837  -0.4696  -0.4446  -0.4156
    -0.4118  -0.3792  -0.3782  -0.2946  -0.2785  -0.2373  -0.2339  -0.1976
    -0.1876  -0.1389  -0.1088  -0.0831  -0.0818  -0.0047   0.0056   0.0296
     0.0448   0.0652   0.0777   0.0949   0.0989   0.1820   0.1915   0.1938
     0.2156   0.2263   0.2839   0.2976   0.2980   0.3118   0.3308   0.3381
     0.3625   0.3847   0.4679   0.4802   0.4910   0.5298   0.5526   0.5731
     0.5738   0.6846   0.7398   0.7524   0.7927   0.8425   0.8675   0.8797
     0.8807   0.9164   1.0289   1.0333   1.0745   1.0854   1.0895   1.0941
     1.1106   1.1692   1.1744   1.1832   1.2105   1.2728   1.2779   1.2897
     1.2983   1.3345   1.3504   1.3803   1.3820   1.4195   1.4198   1.4407
     1.4757   1.5651   1.5753   1.6294   1.6485   1.6843   1.7129   1.7314
     1.7372   1.7553   1.7914   1.8005   1.8957   1.9013   1.9445   1.9474
     2.1233   2.1821   2.2010   2.3703   2.6814   2.7121   2.7324   2.7886
     2.7935   2.7949   2.8796   2.9405   3.0861   3.2038   4.8697   5.5171
     5.5256   5.6487   5.8701   6.1297   6.3991   6.5297   6.7397   6.8612
     6.9082   6.9859   7.0214   7.0358   7.3815   7.4932   7.5600   7.6702
     7.7266   7.8092   7.9337   7.9694   8.0711   8.1574   8.2325   8.3482
     8.5042   8.5693   8.5820   8.6430   8.6454   8.6901   8.8305   8.9627
     9.0377   9.0655

          k = 0.0000 0.5236 0.0000 ( 71479 PWs)   bands (ev):

   -38.1728 -37.8826 -35.8045 -35.4780 -24.1735 -23.8007 -22.8769 -22.8542
   -22.7677 -22.7457 -22.7227 -22.5910 -18.5364 -18.5281 -18.5186 -18.2579
   -18.2570 -18.1970 -17.0591 -17.0454 -17.0079 -16.7409 -16.7031 -16.6921
   -15.2199 -15.0404 -15.0047 -14.9347 -14.9179 -14.8747 -14.7678 -14.6827
   -14.6706 -14.5925 -14.5526 -14.3710 -14.3478 -14.3268 -14.3127 -14.2826
   -14.2420 -14.1852 -14.1495 -14.1456 -14.1226 -14.1041 -14.0979 -14.0687
   -14.0665 -13.9864 -13.9848 -13.9514 -13.7783 -13.5311  -9.5357  -9.4180
    -9.2037  -9.0760  -8.9664  -8.7511  -8.3809  -8.3585  -8.2212  -8.2111
    -8.2010  -8.1567  -8.1301  -8.0862  -8.0629  -8.0502  -8.0243  -7.9800
    -7.9583  -7.9453  -7.8508  -7.8300  -7.8062  -7.6405  -3.6278  -3.5130
    -3.2786  -2.9319  -2.8762  -2.8747  -2.8697  -2.7755  -2.7213  -2.5505
    -2.5174  -2.4062  -2.4055  -2.3657  -2.3603  -2.3240  -2.3223  -2.1815
    -2.1788  -2.1769  -2.1734  -2.1723  -2.1637  -2.1569  -2.0709  -1.9411
    -1.8828  -1.8144  -1.7750  -1.7721  -1.6995  -1.6897  -1.6047  -1.5736
    -1.4519  -1.3324  -1.3076  -1.2205  -1.0868  -1.0590  -1.0506  -1.0210
    -1.0010  -0.9795  -0.9707  -0.9315  -0.9263  -0.8429  -0.8375  -0.7491
    -0.7302  -0.6987  -0.6578  -0.6565  -0.6277  -0.6216  -0.6090  -0.6039
    -0.6036  -0.5898  -0.5329  -0.4996  -0.4931  -0.4333  -0.4331  -0.4008
    -0.3870  -0.3744  -0.3558  -0.3090  -0.2206  -0.0406  -0.0085   0.0591
     0.0843   0.1052   0.1147   0.1201   0.1314   0.1565   0.2146   0.2222
     0.2788   0.3154   0.3784   0.4576   0.5050   0.5055   0.5305   0.5528
     0.6122   0.6895   0.6922   0.7423   0.7504   0.7594   0.7864   0.8837
     0.8838   0.9505   0.9513   0.9728   0.9841   1.0435   1.0986   1.1335
     1.1349   1.1588   1.1646   1.1666   1.1815   1.1820   1.1928   1.2075
     1.2605   1.2813   1.2902   1.3179   1.3357   1.3526   1.3738   1.3847
     1.3993   1.4516   1.4664   1.5105   1.5148   1.5213   1.5858   1.6106
     1.6711   1.6898   1.7021   1.7263   1.7444   1.7586   1.7661   1.7799
     1.7957   1.8322   1.9381   1.9514   1.9881   1.9881   1.9918   2.0105
     2.1037   2.2344   2.3372   2.4346   2.9880   2.9914   3.0247   3.0356
     3.3931   3.4466   3.7357   3.7717   3.8520   4.0463   5.2224   5.7910
     6.3847   6.4201   6.4240   6.4745   6.5397   6.5514   6.7932   6.8605
     7.0015   7.0072   7.2355   7.2383   7.7194   7.7474   7.9012   8.0019
     8.2208   8.3088   8.3361   8.3442   8.4453   8.5262   8.5571   8.5710
     8.6293   8.7083   8.7163   8.7937   8.8758   8.9587   8.9852   9.0235
     9.0868   9.2666

          k = 0.0000 0.7854 0.0000 ( 71458 PWs)   bands (ev):

   -38.1663 -37.8760 -35.8004 -35.4739 -24.1264 -23.7559 -22.8145 -22.7917
   -22.7197 -22.6979 -22.6631 -22.5439 -18.7450 -18.5107 -18.4653 -18.4129
   -18.2403 -18.0912 -17.1807 -16.9976 -16.9723 -16.8674 -16.6924 -16.6128
   -15.0003 -14.9283 -14.8734 -14.7732 -14.7614 -14.7320 -14.6958 -14.6861
   -14.6645 -14.5949 -14.4890 -14.4487 -14.4233 -14.3512 -14.2836 -14.2759
   -14.2614 -14.2529 -14.1587 -14.1127 -14.0619 -14.0533 -14.0435 -14.0203
   -14.0202 -14.0004 -13.9991 -13.8651 -13.7536 -13.5331  -9.8078  -9.4858
    -9.4589  -9.0879  -9.0054  -8.7759  -8.7535  -8.6883  -8.5838  -8.5163
    -8.4959  -8.2826  -8.1608  -8.1345  -8.1046  -8.0889  -8.0672  -8.0491
    -8.0273  -7.9241  -7.8792  -7.7297  -7.7087  -7.5293  -4.1124  -3.9837
    -3.6821  -3.4397  -3.3253  -3.3110  -3.2866  -3.2775  -3.0836  -2.9401
    -2.9401  -2.8744  -2.8743  -2.7805  -2.6957  -2.6747  -2.5323  -2.4401
    -2.2961  -2.2884  -2.2830  -2.2733  -2.2215  -2.2151  -2.1933  -2.1765
    -2.0898  -1.9778  -1.8486  -1.8199  -1.7874  -1.7482  -1.6958  -1.6482
    -1.5677  -1.3213  -1.2942  -1.2814  -1.2416  -1.2228  -1.1857  -1.1706
    -1.1647  -1.1609  -1.1004  -1.0947  -1.0750  -1.0497  -0.9987  -0.9571
    -0.9128  -0.8856  -0.8698  -0.8600  -0.8251  -0.8219  -0.8019  -0.7946
    -0.6826  -0.6820  -0.6556  -0.6495  -0.6323  -0.5865  -0.5710  -0.5532
    -0.5322  -0.4665  -0.3701  -0.2921  -0.2882  -0.1305  -0.0858  -0.0287
     0.0875   0.1222   0.1330   0.1331   0.1486   0.1652   0.2091   0.2737
     0.2756   0.4257   0.4525   0.5125   0.5343   0.6725   0.6967   0.7602
     0.7829   0.8078   0.8765   0.9150   0.9224   0.9539   0.9812   1.0227
     1.0432   1.0537   1.1354   1.1630   1.1681   1.1699   1.2413   1.2439
     1.2686   1.2776   1.2992   1.3222   1.3587   1.3878   1.4061   1.4138
     1.4713   1.4807   1.5467   1.5547   1.5880   1.6258   1.6461   1.6474
     1.6671   1.6822   1.6879   1.7071   1.7187   1.7231   1.7350   1.7646
     1.7807   1.8257   1.8658   1.9197   1.9496   1.9541   1.9815   2.0002
     2.0079   2.0211   2.0720   2.0821   2.1272   2.1678   2.1709   2.2940
     2.3607   2.3922   2.3922   2.4226   2.8358   2.8373   2.9377   2.9485
     3.7113   3.7759   4.3814   4.4180   4.4432   4.6383   5.0834   6.0082
     6.0190   6.0271   6.4169   6.5386   6.6487   7.0566   7.1443   7.3451
     7.3626   7.4880   7.7260   7.7732   8.0616   8.1632   8.3142   8.3654
     8.4965   8.5522   8.5651   8.6169   8.6915   8.7372   8.8365   8.8506
     8.9499   9.0175   9.0425   9.0819   9.1706   9.1709   9.3099   9.3359
     9.3542   9.4512

          k = 0.0000-1.0472 0.0000 ( 71594 PWs)   bands (ev):

   -38.1636 -37.8733 -35.7987 -35.4722 -24.1066 -23.7371 -22.7881 -22.7653
   -22.6995 -22.6777 -22.6379 -22.5241 -18.8256 -18.5459 -18.5035 -18.3656
   -18.2330 -18.0436 -17.2311 -16.9933 -16.9366 -16.9177 -16.6880 -16.5766
   -15.0062 -14.9518 -14.8106 -14.7344 -14.6464 -14.6414 -14.6353 -14.5953
   -14.5756 -14.5682 -14.5323 -14.4959 -14.4918 -14.4543 -14.3209 -14.2967
   -14.2687 -14.2146 -14.1802 -14.1005 -14.0625 -14.0235 -14.0212 -14.0033
   -14.0026 -13.9687 -13.9158 -13.8273 -13.7724 -13.5160  -9.9634  -9.5697
    -9.4593  -9.1189  -8.9922  -8.9291  -8.9067  -8.7365  -8.6604  -8.6350
    -8.6146  -8.3815  -8.1677  -8.1398  -8.1127  -8.0839  -8.0767  -8.0604
    -8.0549  -7.9228  -7.8983  -7.6770  -7.6560  -7.4808  -4.3144  -4.1858
    -3.8688  -3.6479  -3.5176  -3.4829  -3.4663  -3.4474  -3.2292  -3.1753
    -3.1733  -3.1048  -3.1044  -2.9280  -2.7244  -2.7039  -2.5662  -2.5547
    -2.4116  -2.3106  -2.3049  -2.2988  -2.2089  -2.2052  -2.2023  -2.2019
    -2.1765  -2.0443  -1.9596  -1.9355  -1.8157  -1.7791  -1.6625  -1.5491
    -1.4129  -1.4051  -1.3859  -1.3579  -1.3260  -1.3166  -1.2909  -1.2480
    -1.2300  -1.2284  -1.1379  -1.1376  -1.1263  -1.1211  -1.0737  -1.0424
    -0.9880  -0.9831  -0.9384  -0.9156  -0.9128  -0.9061  -0.9050  -0.8199
    -0.7716  -0.7711  -0.7587  -0.7183  -0.6622  -0.5869  -0.5697  -0.5619
    -0.5563  -0.4413  -0.3667  -0.2561  -0.2537  -0.2393  -0.1603  -0.1019
     0.0881   0.1093   0.1356   0.1396   0.1742   0.1971   0.2018   0.2152
     0.3123   0.3157   0.4933   0.4950   0.5512   0.6910   0.7845   0.8107
     0.8269   0.8877   0.9198   0.9665   1.0010   1.0319   1.0477   1.0788
     1.1395   1.1604   1.1677   1.2312   1.2409   1.2813   1.2894   1.3046
     1.3192   1.3256   1.3480   1.3494   1.3777   1.4113   1.4122   1.4274
     1.5238   1.5767   1.6143   1.6384   1.6896   1.7115   1.7175   1.7440
     1.7442   1.7975   1.8316   1.8352   1.8671   1.8753   1.8987   1.9211
     1.9222   1.9928   2.0118   2.0488   2.0725   2.1019   2.1073   2.1344
     2.1398   2.1480   2.1669   2.1778   2.1945   2.1957   2.2192   2.3711
     2.3719   2.5554   2.5555   2.5684   2.6016   2.6055   2.7685   2.7788
     3.7359   3.8414   4.5863   4.6324   4.6550   4.8355   5.0120   5.7690
     5.7798   6.1445   6.3488   6.5370   6.6961   7.0621   7.0651   7.5644
     7.7478   7.7596   7.8000   8.0321   8.1272   8.3046   8.4250   8.5370
     8.5629   8.6095   8.7297   8.7810   8.8558   8.8970   8.9255   8.9961
     9.0489   9.0512   9.0543   9.1646   9.1922   9.2166   9.2786   9.3415
     9.4045   9.6326

          k = 0.1250 0.0000 0.0000 ( 71575 PWs)   bands (ev):

   -38.1820 -37.8918 -35.8103 -35.4839 -24.2377 -23.8633 -22.9575 -22.9349
   -22.8384 -22.8164 -22.8009 -22.6595 -18.6564 -18.5496 -18.3373 -18.2797
   -18.1852 -17.9035 -17.1612 -17.0347 -16.8401 -16.8063 -16.7310 -16.5251
   -15.5395 -15.3117 -15.2563 -15.1105 -15.1084 -15.0688 -14.8089 -14.7243
   -14.6830 -14.6747 -14.6238 -14.6080 -14.4558 -14.4477 -14.3066 -14.2711
   -14.2436 -14.1665 -14.1471 -14.1458 -14.1373 -14.1292 -14.1091 -14.0620
   -14.0515 -13.9669 -13.9243 -13.8127 -13.7167 -13.4902  -9.5913  -9.1561
    -8.9869  -8.9640  -8.6723  -8.6340  -8.2026  -8.1753  -8.1007  -8.0811
    -8.0725  -7.9992  -7.9968  -7.9771  -7.8650  -7.8430  -7.7853  -7.7834
    -7.7629  -7.6715  -7.6446  -7.6227  -7.6188  -7.4660  -3.0970  -3.0556
    -2.9398  -2.5533  -2.3141  -2.3013  -2.2495  -2.2409  -2.1995  -2.1901
    -2.1643  -2.0726  -2.0518  -1.9891  -1.9704  -1.9424  -1.8254  -1.8232
    -1.7945  -1.7779  -1.7443  -1.7110  -1.6809  -1.6647  -1.5597  -1.5237
    -1.4435  -1.3613  -1.3271  -1.2422  -1.1979  -1.1681  -1.1323  -1.1175
    -1.0647  -1.0633  -1.0629  -1.0622  -1.0375  -1.0326  -0.9926  -0.9040
    -0.8843  -0.8677  -0.8545  -0.8186  -0.8142  -0.8132  -0.7397  -0.6665
    -0.6077  -0.5977  -0.4738  -0.4535  -0.4340  -0.3836  -0.3504  -0.3298
    -0.3205  -0.2989  -0.2988  -0.2927  -0.2114  -0.2070  -0.1973  -0.1612
    -0.1470  -0.1057  -0.0921  -0.0881  -0.0789  -0.0665  -0.0507  -0.0058
     0.0190   0.0535   0.0836   0.1047   0.1067   0.1124   0.1308   0.1312
     0.1668   0.1679   0.2066   0.2140   0.2752   0.2948   0.3075   0.3096
     0.3450   0.3878   0.4000   0.4343   0.4410   0.4438   0.4714   0.5002
     0.5620   0.6319   0.6395   0.6726   0.7372   0.8220   0.8417   0.9112
     0.9264   0.9400   0.9634   0.9669   0.9993   1.0180   1.0285   1.0800
     1.0840   1.1149   1.1203   1.1495   1.1685   1.1690   1.1828   1.2043
     1.2471   1.2997   1.3230   1.3254   1.3807   1.3892   1.4735   1.5356
     1.5635   1.6100   1.6219   1.6465   1.6468   1.6704   1.6803   1.7225
     1.7411   1.7414   1.7690   1.8003   1.8582   1.9242   1.9557   1.9680
     2.0391   2.1001   2.1473   2.1851   2.1881   2.2162   2.3104   2.3406
     2.4825   2.4993   2.5004   2.5655   2.7673   2.7796   4.6770   5.1839
     5.1991   5.4137   5.7389   5.9237   6.2804   6.4467   6.5359   6.6086
     6.6668   6.8212   6.8263   7.0394   7.3856   7.5614   7.6450   7.6542
     7.7453   7.8532   7.9240   7.9780   8.0461   8.0467   8.1934   8.2938
     8.3154   8.4006   8.5039   8.5646   8.5874   8.6359   8.7606   8.7846
     8.9238   9.0246

          k = 0.1250 0.2618 0.0000 ( 71547 PWs)   bands (ev):

   -38.1793 -37.8891 -35.8086 -35.4822 -24.2189 -23.8454 -22.9331 -22.9105
   -22.8191 -22.7971 -22.7775 -22.6405 -18.6178 -18.5424 -18.2985 -18.2960
   -18.2724 -18.0145 -17.1316 -17.0298 -16.9060 -16.7763 -16.7259 -16.5910
   -15.4341 -15.2179 -15.1877 -15.0629 -15.0543 -15.0143 -14.7707 -14.7156
   -14.6391 -14.6235 -14.6088 -14.5968 -14.4027 -14.3918 -14.2826 -14.2481
   -14.2296 -14.2049 -14.1756 -14.1320 -14.1252 -14.1193 -14.1081 -14.0885
   -14.0378 -13.9906 -13.9633 -13.8702 -13.7504 -13.5040  -9.5757  -9.1477
    -9.0710  -9.0203  -8.7674  -8.7174  -8.1955  -8.1689  -8.1125  -8.0947
    -8.0878  -8.0238  -8.0027  -7.9862  -7.9510  -7.9297  -7.8530  -7.8313
    -7.8205  -7.7960  -7.7748  -7.7746  -7.6511  -7.6277  -3.1975  -3.1356
    -2.9989  -2.5990  -2.4471  -2.4077  -2.3705  -2.3221  -2.3080  -2.2187
    -2.2021  -2.1952  -2.1900  -2.1409  -2.1254  -2.1103  -2.0506  -2.0333
    -1.9856  -1.9178  -1.8763  -1.8502  -1.7609  -1.6892  -1.6145  -1.5937
    -1.5094  -1.5073  -1.4955  -1.4823  -1.4822  -1.4690  -1.4588  -1.4375
    -1.3897  -1.3712  -1.2827  -1.1756  -1.0231  -0.9817  -0.9431  -0.9154
    -0.8722  -0.8416  -0.8095  -0.7889  -0.7613  -0.7223  -0.7061  -0.6913
    -0.6690  -0.6372  -0.5221  -0.5192  -0.4896  -0.4765  -0.4593  -0.4295
    -0.4123  -0.3931  -0.3876  -0.3321  -0.2489  -0.2275  -0.2231  -0.2121
    -0.2039  -0.1168  -0.1139  -0.0848  -0.0798  -0.0190   0.0003   0.0223
     0.0339   0.0674   0.0819   0.0895   0.1136   0.1666   0.2015   0.2045
     0.2064   0.2388   0.2816   0.2932   0.2949   0.3312   0.3457   0.3556
     0.3804   0.3918   0.4387   0.4587   0.4915   0.5017   0.5466   0.5536
     0.5597   0.6861   0.7656   0.7885   0.8221   0.8541   0.8603   0.8834
     0.8956   0.9464   1.0114   1.0162   1.0343   1.0424   1.0998   1.1176
     1.1293   1.1666   1.1794   1.1806   1.1986   1.2144   1.2592   1.3031
     1.3102   1.3168   1.3214   1.3467   1.3564   1.4231   1.4374   1.4948
     1.5061   1.5683   1.5862   1.6241   1.6397   1.6839   1.6889   1.7049
     1.7203   1.7605   1.7711   1.7788   1.8154   1.9489   2.0329   2.0428
     2.0968   2.2059   2.2573   2.4623   2.6850   2.7095   2.7304   2.7912
     2.7931   2.7953   2.8775   2.9372   3.0776   3.2023   4.9082   5.5551
     5.5626   5.6931   5.8750   6.1589   6.3662   6.5557   6.7674   6.8547
     6.8639   6.9156   6.9596   6.9954   7.4117   7.5372   7.6815   7.7046
     7.7848   7.8184   7.9162   7.9792   8.0932   8.1723   8.2322   8.3632
     8.4629   8.5184   8.5938   8.6385   8.6988   8.7364   8.8048   8.9119
     9.0156   9.0316

          k = 0.1250 0.5236 0.0000 ( 71480 PWs)   bands (ev):

   -38.1728 -37.8826 -35.8045 -35.4780 -24.1728 -23.8014 -22.8731 -22.8504
   -22.7716 -22.7497 -22.7199 -22.5941 -18.5363 -18.5250 -18.5181 -18.2570
   -18.2547 -18.1964 -17.0607 -17.0463 -17.0180 -16.7413 -16.7135 -16.6946
   -15.1953 -15.0207 -15.0003 -14.9362 -14.9115 -14.8699 -14.7658 -14.6774
   -14.6685 -14.5925 -14.5506 -14.4348 -14.3552 -14.3103 -14.2834 -14.2822
   -14.2423 -14.1845 -14.1502 -14.1432 -14.1310 -14.1026 -14.0981 -14.0686
   -14.0680 -13.9955 -13.9798 -13.9728 -13.7727 -13.5288  -9.5356  -9.4353
    -9.1944  -9.0762  -8.9841  -8.7266  -8.4146  -8.3927  -8.2330  -8.1760
    -8.1533  -8.1443  -8.1197  -8.0926  -8.0696  -8.0666  -8.0480  -8.0267
    -7.9605  -7.9451  -7.8709  -7.7988  -7.7777  -7.6017  -3.5923  -3.4772
    -3.2417  -2.9407  -2.8833  -2.8745  -2.8311  -2.7773  -2.7246  -2.5454
    -2.5129  -2.4079  -2.4029  -2.3667  -2.3609  -2.3237  -2.3212  -2.1821
    -2.1799  -2.1759  -2.1740  -2.1712  -2.1633  -2.1544  -2.0382  -1.9218
    -1.9123  -1.8212  -1.8064  -1.7752  -1.7565  -1.6860  -1.5994  -1.5729
    -1.4339  -1.3767  -1.3394  -1.2282  -1.1042  -1.0651  -1.0497  -1.0202
    -1.0085  -0.9891  -0.9750  -0.9315  -0.9308  -0.8581  -0.8210  -0.8046
    -0.7631  -0.7174  -0.7013  -0.6719  -0.6519  -0.6446  -0.6084  -0.5973
    -0.5970  -0.5889  -0.5306  -0.5060  -0.4910  -0.4738  -0.4421  -0.4322
    -0.3725  -0.3583  -0.3502  -0.2620  -0.2270  -0.0327  -0.0104   0.0635
     0.0765   0.0787   0.1004   0.1139   0.1329   0.1643   0.2386   0.2442
     0.2977   0.3292   0.3698   0.4483   0.4749   0.4924   0.5280   0.5589
     0.5740   0.6780   0.6824   0.7372   0.7590   0.7801   0.8220   0.9136
     0.9309   0.9426   0.9545   0.9902   1.0070   1.0536   1.0707   1.0809
     1.1072   1.1170   1.1554   1.1774   1.1907   1.2172   1.2227   1.2588
     1.2659   1.2738   1.2860   1.3115   1.3479   1.3540   1.3703   1.3854
     1.3935   1.4113   1.4430   1.4900   1.5238   1.5440   1.5725   1.5741
     1.6549   1.6800   1.6951   1.7167   1.7377   1.7567   1.7599   1.8054
     1.8317   1.8634   1.9119   1.9592   1.9785   1.9815   2.0682   2.1304
     2.1546   2.2305   2.4254   2.5716   2.9891   2.9926   3.0257   3.0379
     3.3943   3.4452   3.7036   3.7404   3.8235   4.0200   5.2575   5.8205
     6.3729   6.4356   6.4393   6.4476   6.5474   6.5602   6.8191   6.8797
     6.9938   7.0392   7.2393   7.2630   7.7675   7.7939   7.9104   7.9895
     8.1741   8.2917   8.3244   8.3305   8.4514   8.5050   8.5301   8.5950
     8.6443   8.6875   8.7224   8.7446   8.8766   8.9093   8.9791   9.0158
     9.1187   9.2611

          k = 0.1250 0.7854 0.0000 ( 71486 PWs)   bands (ev):

   -38.1663 -37.8760 -35.8004 -35.4739 -24.1258 -23.7565 -22.8113 -22.7885
   -22.7231 -22.7012 -22.6607 -22.5464 -18.7450 -18.5077 -18.4653 -18.4124
   -18.2373 -18.0906 -17.1807 -17.0069 -16.9745 -16.8674 -16.7021 -16.6152
   -14.9840 -14.9174 -14.8571 -14.7722 -14.7596 -14.7344 -14.6932 -14.6776
   -14.6591 -14.5953 -14.4856 -14.4489 -14.4200 -14.3432 -14.2930 -14.2773
   -14.2757 -14.2655 -14.1512 -14.1221 -14.0599 -14.0520 -14.0422 -14.0212
   -14.0212 -14.0053 -14.0035 -13.8834 -13.7506 -13.5338  -9.7931  -9.4861
    -9.4302  -9.1189  -9.0100  -8.7661  -8.7439  -8.7025  -8.5704  -8.4742
    -8.4536  -8.2469  -8.1599  -8.1340  -8.1036  -8.0958  -8.0901  -8.0737
    -8.0687  -7.9421  -7.9033  -7.7446  -7.7236  -7.5463  -4.0755  -3.9480
    -3.6477  -3.4374  -3.3390  -3.3129  -3.2994  -3.2440  -3.0928  -2.9377
    -2.9376  -2.8768  -2.8768  -2.7866  -2.6819  -2.6606  -2.5209  -2.4111
    -2.2900  -2.2891  -2.2667  -2.2544  -2.2205  -2.2129  -2.1973  -2.1750
    -2.0712  -1.9707  -1.8553  -1.8099  -1.7851  -1.7491  -1.7089  -1.6592
    -1.6542  -1.3377  -1.3211  -1.3030  -1.2846  -1.2346  -1.1849  -1.1768
    -1.1629  -1.1501  -1.1321  -1.1222  -1.0800  -1.0644  -1.0362  -1.0344
    -0.9040  -0.8992  -0.8965  -0.8626  -0.8194  -0.8177  -0.8056  -0.7853
    -0.7567  -0.6968  -0.6864  -0.6250  -0.6163  -0.5842  -0.5696  -0.5474
    -0.5290  -0.4287  -0.3537  -0.3030  -0.2992  -0.1410  -0.0134   0.0325
     0.0792   0.1009   0.1185   0.1419   0.1493   0.2052   0.2338   0.2654
     0.3056   0.4286   0.4780   0.5181   0.5343   0.5508   0.6710   0.7815
     0.7930   0.8007   0.9099   0.9160   0.9341   0.9415   1.0108   1.0336
     1.0388   1.0747   1.1153   1.1571   1.1833   1.1849   1.2217   1.2380
     1.2548   1.2807   1.2831   1.3187   1.3404   1.3780   1.4035   1.4316
     1.4524   1.4996   1.5220   1.5509   1.5571   1.6206   1.6546   1.6613
     1.6679   1.6785   1.6921   1.7037   1.7366   1.7531   1.7596   1.7625
     1.7836   1.8008   1.8824   1.9119   1.9403   1.9612   1.9905   2.0125
     2.0496   2.0599   2.0783   2.1238   2.1650   2.1774   2.1801   2.3804
     2.3837   2.3889   2.3900   2.4916   2.8379   2.8393   2.9427   2.9561
     3.7171   3.7775   4.3171   4.3552   4.3856   4.5821   5.1262   6.0370
     6.0635   6.0740   6.4115   6.5217   6.6814   7.0419   7.1649   7.3128
     7.3294   7.4823   7.7152   7.7295   8.0221   8.1622   8.2575   8.3255
     8.4530   8.5142   8.5509   8.6572   8.7149   8.7827   8.8372   8.9572
     8.9710   9.0157   9.0300   9.1199   9.1687   9.2142   9.3010   9.3543
     9.4098   9.4598

          k = 0.1250-1.0472 0.0000 ( 71558 PWs)   bands (ev):

   -38.1636 -37.8733 -35.7987 -35.4722 -24.1061 -23.7376 -22.7852 -22.7623
   -22.7026 -22.6808 -22.6357 -22.5263 -18.8255 -18.5459 -18.5005 -18.3652
   -18.2301 -18.0431 -17.2311 -17.0023 -16.9386 -16.9177 -16.6973 -16.5788
   -14.9950 -14.9402 -14.7870 -14.7316 -14.6414 -14.6337 -14.6156 -14.5997
   -14.5944 -14.5904 -14.5218 -14.4879 -14.4865 -14.4462 -14.3137 -14.2932
   -14.2799 -14.2322 -14.1951 -14.1026 -14.0650 -14.0226 -14.0207 -14.0041
   -14.0035 -13.9722 -13.9226 -13.8405 -13.7676 -13.5217  -9.9324  -9.5448
    -9.4591  -9.1502  -8.9924  -8.8989  -8.8765  -8.7074  -8.6915  -8.6045
    -8.5841  -8.3558  -8.1638  -8.1362  -8.1117  -8.1117  -8.0900  -8.0868
    -8.0633  -7.9551  -7.8988  -7.7208  -7.6999  -7.5210  -4.2765  -4.1495
    -3.8349  -3.6454  -3.5193  -3.4986  -3.4621  -3.4332  -3.2404  -3.1729
    -3.1712  -3.1074  -3.1071  -2.9358  -2.7076  -2.6866  -2.5401  -2.5399
    -2.3856  -2.3130  -2.3071  -2.2785  -2.2103  -2.2069  -2.2029  -2.1765
    -2.1750  -2.0383  -1.9320  -1.8998  -1.8139  -1.7697  -1.6739  -1.5835
    -1.5187  -1.4565  -1.3993  -1.3969  -1.3718  -1.3271  -1.2865  -1.2681
    -1.2547  -1.2383  -1.1772  -1.1535  -1.1454  -1.1182  -1.0570  -1.0542
    -1.0235  -1.0008  -0.9264  -0.9193  -0.9114  -0.9042  -0.8906  -0.8902
    -0.8185  -0.7841  -0.7766  -0.7060  -0.6645  -0.5849  -0.5557  -0.5449
    -0.5324  -0.4089  -0.3479  -0.2701  -0.2678  -0.2124  -0.0697  -0.0402
     0.0804   0.1023   0.1498   0.1647   0.1704   0.1891   0.2227   0.2525
     0.3070   0.3578   0.4562   0.5350   0.5457   0.5529   0.7490   0.8384
     0.8552   0.9212   0.9564   0.9644   0.9755   1.0110   1.0244   1.0963
     1.1220   1.1742   1.1836   1.1972   1.2361   1.2454   1.2958   1.3114
     1.3151   1.3266   1.3423   1.3552   1.3913   1.4072   1.4136   1.4361
     1.5146   1.5949   1.6046   1.6281   1.6808   1.7142   1.7527   1.7552
     1.7582   1.7842   1.8218   1.8694   1.8801   1.9092   1.9175   1.9336
     1.9668   2.0031   2.0053   2.0311   2.0900   2.0907   2.1077   2.1225
     2.1308   2.1436   2.1840   2.2015   2.2045   2.2420   2.3299   2.3778
     2.3785   2.5328   2.5483   2.5485   2.6064   2.6095   2.7792   2.7935
     3.7422   3.8521   4.5074   4.5537   4.5811   4.7653   5.0481   5.8371
     5.8475   6.1210   6.3753   6.5661   6.7232   7.0527   7.0713   7.4760
     7.6553   7.6677   7.7671   8.0417   8.1284   8.1308   8.3357   8.3868
     8.5314   8.6898   8.7829   8.8906   8.9322   8.9771   9.0024   9.0253
     9.0380   9.1241   9.1339   9.2014   9.2356   9.2595   9.3226   9.3350
     9.4066   9.5036

          k = 0.2500 0.0000 0.0000 ( 71527 PWs)   bands (ev):

   -38.1820 -37.8918 -35.8103 -35.4839 -24.2356 -23.8658 -22.9449 -22.9221
   -22.8518 -22.8300 -22.7918 -22.6693 -18.6547 -18.5417 -18.3354 -18.2719
   -18.1852 -17.9035 -17.1683 -17.0630 -16.8401 -16.8140 -16.7605 -16.5251
   -15.4657 -15.2432 -15.2328 -15.1216 -15.0735 -15.0325 -14.8109 -14.7790
   -14.7249 -14.6996 -14.6534 -14.6285 -14.4578 -14.3975 -14.3246 -14.2503
   -14.2187 -14.1678 -14.1512 -14.1426 -14.1403 -14.1323 -14.1169 -14.0677
   -14.0634 -13.9813 -13.9491 -13.8294 -13.7142 -13.4885  -9.5978  -9.1804
    -8.9564  -8.9494  -8.6764  -8.6429  -8.2074  -8.1803  -8.1080  -8.0904
    -8.0801  -8.0141  -7.9645  -7.9441  -7.8413  -7.8192  -7.8024  -7.7818
    -7.7514  -7.6708  -7.6498  -7.6491  -7.6260  -7.4898  -2.9963  -2.9543
    -2.8464  -2.4513  -2.3330  -2.3093  -2.2869  -2.2762  -2.2414  -2.1808
    -2.1740  -2.0937  -2.0656  -2.0389  -2.0356  -1.9826  -1.8643  -1.8419
    -1.7858  -1.7660  -1.7471  -1.7320  -1.6754  -1.6218  -1.5958  -1.5937
    -1.4918  -1.3729  -1.3067  -1.2135  -1.1428  -1.1267  -1.0894  -1.0632
    -1.0607  -1.0596  -1.0571  -1.0467  -1.0446  -1.0282  -0.9583  -0.9327
    -0.9242  -0.8708  -0.7890  -0.7857  -0.7596  -0.7558  -0.7545  -0.6050
    -0.6001  -0.5995  -0.5472  -0.4561  -0.4427  -0.4261  -0.4228  -0.3663
    -0.3595  -0.3497  -0.3422  -0.3366  -0.2800  -0.2173  -0.1577  -0.1426
    -0.1401  -0.1267  -0.1230  -0.1021  -0.0990  -0.0896  -0.0802  -0.0396
    -0.0154   0.0374   0.1323   0.1337   0.1388   0.1394   0.1547   0.1563
     0.1834   0.1975   0.1988   0.2326   0.2903   0.2928   0.3110   0.3493
     0.3587   0.3698   0.3987   0.4205   0.4235   0.4445   0.4819   0.5520
     0.5571   0.5934   0.6940   0.7321   0.7466   0.7785   0.8079   0.8700
     0.8800   0.9064   0.9152   0.9337   0.9579   0.9774   1.0026   1.0221
     1.0502   1.1003   1.1173   1.1432   1.1907   1.1927   1.2082   1.2083
     1.2444   1.2908   1.3149   1.3343   1.4248   1.4464   1.4513   1.5166
     1.5557   1.5898   1.5940   1.5954   1.6626   1.6833   1.6874   1.6982
     1.7519   1.7625   1.7775   1.8351   1.8558   1.9198   1.9345   1.9590
     2.0087   2.0567   2.1227   2.1875   2.2147   2.3101   2.3373   2.3414
     2.4816   2.5251   2.5257   2.5855   2.7459   2.7690   4.8213   5.3237
     5.3340   5.5508   5.7421   6.0036   6.2846   6.4346   6.4397   6.4700
     6.6633   6.7680   6.8175   6.9671   7.3223   7.5326   7.6534   7.8444
     7.8910   7.9133   7.9708   8.0495   8.0703   8.1167   8.2267   8.2965
     8.3271   8.4076   8.4700   8.5221   8.5802   8.7008   8.7389   8.7436
     8.9760   9.0726

          k = 0.2500 0.2618 0.0000 ( 71526 PWs)   bands (ev):

   -38.1793 -37.8891 -35.8086 -35.4822 -24.2170 -23.8477 -22.9211 -22.8983
   -22.8318 -22.8100 -22.7689 -22.6498 -18.6161 -18.5346 -18.2967 -18.2960
   -18.2647 -18.0145 -17.1384 -17.0568 -16.9058 -16.7837 -16.7539 -16.5908
   -15.3619 -15.1675 -15.1533 -15.0725 -15.0241 -14.9841 -14.7596 -14.7431
   -14.6911 -14.6645 -14.6368 -14.6122 -14.3981 -14.3534 -14.2874 -14.2367
   -14.2188 -14.1962 -14.1835 -14.1342 -14.1250 -14.1236 -14.1116 -14.0948
   -14.0570 -14.0191 -13.9658 -13.8798 -13.7451 -13.5009  -9.5789  -9.1770
    -9.1106  -9.0259  -8.7255  -8.6789  -8.2018  -8.1757  -8.1313  -8.1084
    -8.1041  -8.0773  -8.0556  -8.0056  -7.9963  -7.9748  -7.8625  -7.8240
    -7.7796  -7.7581  -7.7366  -7.7154  -7.5887  -7.5666  -3.0936  -3.0303
    -2.8987  -2.4926  -2.4833  -2.4410  -2.3917  -2.3009  -2.2877  -2.2433
    -2.2085  -2.1988  -2.1860  -2.1484  -2.1345  -2.1199  -2.0751  -2.0646
    -2.0212  -1.9825  -1.9755  -1.9294  -1.7567  -1.7196  -1.6372  -1.5607
    -1.5553  -1.5033  -1.5017  -1.4845  -1.4839  -1.4765  -1.4184  -1.3933
    -1.3228  -1.3141  -1.2861  -1.1586  -1.0181  -0.9610  -0.9552  -0.9165
    -0.8612  -0.8517  -0.8285  -0.7992  -0.7864  -0.7711  -0.7297  -0.6821
    -0.6643  -0.6519  -0.6431  -0.6170  -0.5364  -0.5207  -0.4815  -0.4409
    -0.4028  -0.3918  -0.3539  -0.3259  -0.3127  -0.2362  -0.2223  -0.2072
    -0.1804  -0.1289  -0.1180  -0.0831  -0.0792  -0.0461  -0.0001   0.0260
     0.0311   0.0605   0.0777   0.0899   0.1007   0.1573   0.2225   0.2376
     0.2382   0.2495   0.2734   0.2872   0.2988   0.3017   0.3400   0.3584
     0.4088   0.4279   0.4341   0.4460   0.4892   0.5037   0.5266   0.5352
     0.5814   0.6682   0.7933   0.8236   0.8286   0.8400   0.9052   0.9169
     0.9212   0.9623   0.9927   1.0033   1.0287   1.0451   1.0869   1.0967
     1.1125   1.1191   1.1463   1.1800   1.1971   1.2005   1.2224   1.2393
     1.2773   1.3122   1.3484   1.3564   1.3712   1.4201   1.4279   1.5176
     1.5625   1.5723   1.5822   1.6081   1.6165   1.6379   1.6492   1.6793
     1.6843   1.6887   1.7258   1.8146   1.8785   1.9655   1.9879   2.1446
     2.2241   2.2869   2.4142   2.6648   2.6852   2.7092   2.7223   2.7865
     2.8004   2.8022   2.8671   2.9224   3.0455   3.1893   5.0165   5.6634
     5.6683   5.8029   5.8598   6.2464   6.3497   6.5710   6.5776   6.6028
     6.8383   6.9746   7.0767   7.1122   7.3903   7.5301   7.6361   7.7705
     7.8903   7.9688   7.9894   7.9964   8.1208   8.1893   8.2943   8.4012
     8.4189   8.4945   8.5533   8.5844   8.6545   8.7287   8.7883   8.8824
     8.9458   9.0417

          k = 0.2500 0.5236 0.0000 ( 71476 PWs)   bands (ev):

   -38.1728 -37.8826 -35.8045 -35.4780 -24.1712 -23.8033 -22.8626 -22.8398
   -22.7827 -22.7609 -22.7124 -22.6020 -18.5362 -18.5174 -18.5167 -18.2569
   -18.2473 -18.1949 -17.0653 -17.0486 -17.0413 -16.7440 -16.7366 -16.7004
   -15.1288 -14.9890 -14.9701 -14.9409 -14.8973 -14.8592 -14.7609 -14.6641
   -14.6621 -14.5929 -14.5508 -14.5301 -14.3629 -14.3066 -14.2709 -14.2568
   -14.2513 -14.1706 -14.1567 -14.1501 -14.1387 -14.0986 -14.0964 -14.0722
   -14.0700 -14.0228 -14.0087 -13.9773 -13.7630 -13.5235  -9.5348  -9.4567
    -9.2357  -9.0761  -8.9561  -8.6965  -8.4500  -8.4284  -8.2575  -8.1969
    -8.1754  -8.1599  -8.1337  -8.0976  -8.0749  -8.0745  -8.0161  -7.9948
    -7.9887  -7.9452  -7.8472  -7.7516  -7.7304  -7.5635  -3.4918  -3.3764
    -3.1400  -2.9734  -2.9102  -2.8703  -2.7822  -2.7373  -2.7279  -2.5284
    -2.4978  -2.4145  -2.3927  -2.3713  -2.3639  -2.3217  -2.3176  -2.1903
    -2.1863  -2.1860  -2.1679  -2.1668  -2.1612  -2.1404  -2.0135  -1.9523
    -1.9509  -1.9285  -1.8200  -1.7870  -1.7174  -1.6636  -1.5935  -1.5859
    -1.5204  -1.3854  -1.3717  -1.2542  -1.1547  -1.0942  -1.0638  -1.0580
    -1.0280  -1.0085  -1.0008  -0.9817  -0.9361  -0.9215  -0.8948  -0.8872
    -0.8705  -0.7794  -0.6972  -0.6944  -0.6584  -0.6431  -0.6039  -0.5856
    -0.5837  -0.5791  -0.5752  -0.5154  -0.4989  -0.4958  -0.4626  -0.4176
    -0.3499  -0.3433  -0.3320  -0.2327  -0.2117  -0.1205  -0.0672   0.0152
     0.0365   0.0961   0.1097   0.1441   0.1598   0.2261   0.2833   0.2895
     0.2983   0.3226   0.3692   0.4171   0.4328   0.4488   0.5047   0.5980
     0.6639   0.6693   0.6895   0.7288   0.7869   0.8096   0.8713   0.8937
     0.9382   0.9661   0.9986   1.0014   1.0229   1.0287   1.0421   1.0548
     1.0604   1.1111   1.1499   1.1615   1.1744   1.2232   1.2348   1.2738
     1.2813   1.2946   1.3277   1.3501   1.3553   1.3656   1.3745   1.3905
     1.3978   1.4125   1.4526   1.4685   1.5047   1.5068   1.5242   1.5592
     1.6035   1.6401   1.6923   1.7013   1.7577   1.7699   1.7878   1.7943
     1.8786   1.8926   1.8983   1.9534   1.9568   1.9891   2.0236   2.1490
     2.4429   2.4916   2.6690   2.8617   2.9916   2.9956   3.0313   3.0554
     3.3972   3.4411   3.6028   3.6415   3.7328   3.9354   5.3520   5.9027
     6.2679   6.4460   6.4762   6.4810   6.5652   6.5784   6.8647   6.9389
     7.0134   7.0984   7.2699   7.3028   7.8505   7.9062   7.9281   8.0437
     8.1019   8.2562   8.2745   8.2875   8.3251   8.4715   8.5435   8.5564
     8.6155   8.6970   8.7212   8.7674   8.8212   8.9113   8.9697   9.0048
     9.1660   9.1766

          k = 0.2500 0.7854 0.0000 ( 71504 PWs)   bands (ev):

   -38.1663 -37.8760 -35.8004 -35.4739 -24.1246 -23.7580 -22.8025 -22.7795
   -22.7323 -22.7106 -22.6545 -22.5529 -18.7449 -18.5003 -18.4652 -18.4111
   -18.2300 -18.0893 -17.1807 -17.0293 -16.9796 -16.8674 -16.7252 -16.6208
   -14.9433 -14.8877 -14.8086 -14.7696 -14.7603 -14.7452 -14.7149 -14.6430
   -14.6303 -14.5893 -14.4786 -14.4503 -14.4104 -14.3610 -14.3200 -14.3068
   -14.2740 -14.2532 -14.1573 -14.1411 -14.0560 -14.0484 -14.0402 -14.0245
   -14.0241 -14.0215 -14.0073 -13.9296 -13.7440 -13.5365  -9.7457  -9.4859
    -9.3713  -9.1919  -9.0131  -8.7477  -8.7262  -8.7042  -8.5268  -8.3650
    -8.3442  -8.2233  -8.2016  -8.1536  -8.1433  -8.1181  -8.1013  -8.0947
    -8.0750  -8.0393  -7.9136  -7.8007  -7.7797  -7.6030  -3.9729  -3.8495
    -3.5549  -3.4363  -3.3787  -3.3389  -3.3178  -3.1570  -3.1222  -2.9309
    -2.9305  -2.8839  -2.8837  -2.8061  -2.6378  -2.6153  -2.4834  -2.3271
    -2.2984  -2.2945  -2.2166  -2.2143  -2.2095  -2.2076  -2.1725  -2.1707
    -2.0284  -1.9671  -1.8933  -1.8755  -1.8260  -1.7770  -1.7244  -1.7022
    -1.6295  -1.4900  -1.4632  -1.3541  -1.3473  -1.3039  -1.2890  -1.2362
    -1.2240  -1.1691  -1.1564  -1.1554  -1.1343  -1.1029  -1.0571  -1.0038
    -0.9765  -0.9164  -0.8562  -0.8464  -0.8351  -0.8316  -0.7998  -0.7842
    -0.7597  -0.7227  -0.6929  -0.6167  -0.5977  -0.5785  -0.5698  -0.5416
    -0.4765  -0.4072  -0.3373  -0.3306  -0.3138  -0.1834  -0.0191   0.0129
     0.0495   0.1326   0.1662   0.1990   0.2242   0.2421   0.2879   0.2965
     0.3566   0.4064   0.4202   0.4995   0.5940   0.5994   0.6919   0.7121
     0.8181   0.8357   0.8977   0.9082   0.9378   0.9741   1.0376   1.0601
     1.1015   1.1141   1.1356   1.1517   1.1638   1.1705   1.2140   1.2210
     1.2411   1.2639   1.2932   1.3255   1.3472   1.3783   1.3940   1.4280
     1.4455   1.4627   1.4850   1.4956   1.5480   1.5861   1.6174   1.6419
     1.6449   1.6664   1.6815   1.6958   1.7288   1.7445   1.7620   1.7652
     1.7996   1.8072   1.8497   1.8641   1.9231   1.9416   1.9597   1.9868
     2.0550   2.0829   2.1483   2.2022   2.2045   2.3012   2.3599   2.3609
     2.4304   2.4833   2.6503   2.7893   2.8439   2.8463   2.9772   3.0206
     3.7304   3.7810   4.1267   4.1686   4.2148   4.4134   5.2509   6.0560
     6.2194   6.2284   6.3196   6.5493   6.7627   7.0135   7.1951   7.2168
     7.2222   7.4592   7.6289   7.6768   7.9030   8.0930   8.1735   8.3324
     8.4197   8.5189   8.5404   8.6813   8.7272   8.8490   8.8559   8.9868
     9.0375   9.0905   9.1218   9.1636   9.1885   9.2974   9.3167   9.3813
     9.3871   9.4440

          k = 0.2500-1.0472 0.0000 ( 71492 PWs)   bands (ev):

   -38.1636 -37.8733 -35.7987 -35.4722 -24.1050 -23.7389 -22.7771 -22.7540
   -22.7110 -22.6894 -22.6301 -22.5323 -18.8254 -18.5458 -18.4932 -18.3640
   -18.2228 -18.0419 -17.2312 -17.0239 -16.9434 -16.9177 -16.7196 -16.5841
   -14.9628 -14.9067 -14.7336 -14.7237 -14.6446 -14.6402 -14.6400 -14.6033
   -14.5882 -14.5648 -14.5067 -14.4768 -14.4686 -14.4257 -14.3114 -14.2934
   -14.2867 -14.2820 -14.2338 -14.1215 -14.0611 -14.0201 -14.0191 -14.0062
   -14.0060 -13.9821 -13.9393 -13.8754 -13.7550 -13.5364  -9.8450  -9.4756
    -9.4584  -9.2383  -8.9927  -8.8121  -8.7897  -8.7782  -8.6244  -8.5158
    -8.4953  -8.2777  -8.2099  -8.1881  -8.1529  -8.1262  -8.1094  -8.0953
    -8.0721  -8.0456  -7.9005  -7.8410  -7.8201  -7.6310  -4.1712  -4.0495
    -3.7441  -3.6402  -3.5466  -3.5231  -3.5051  -3.3483  -3.2756  -3.1659
    -3.1645  -3.1148  -3.1148  -2.9601  -2.6545  -2.6321  -2.4929  -2.4627
    -2.3203  -2.3135  -2.3101  -2.2209  -2.2162  -2.2096  -2.1973  -2.1713
    -2.1076  -2.0238  -1.8666  -1.8303  -1.8103  -1.7572  -1.7387  -1.7192
    -1.6554  -1.6464  -1.5867  -1.5219  -1.4239  -1.3682  -1.3412  -1.3259
    -1.2458  -1.2441  -1.2171  -1.1960  -1.1916  -1.1733  -1.1591  -1.0645
    -0.9989  -0.9325  -0.9273  -0.9182  -0.9158  -0.9148  -0.8846  -0.8683
    -0.8074  -0.7958  -0.7835  -0.6904  -0.6701  -0.5914  -0.5475  -0.5148
    -0.4808  -0.4092  -0.3144  -0.3103  -0.3093  -0.1995  -0.0199   0.0131
     0.0802   0.1331   0.1579   0.1939   0.2574   0.2593   0.2865   0.2983
     0.3438   0.3727   0.4604   0.4865   0.5146   0.6598   0.6844   0.8864
     0.9091   0.9169   0.9362   0.9597   0.9738   1.0769   1.0808   1.0899
     1.1207   1.1551   1.1652   1.2045   1.2323   1.2452   1.2483   1.2882
     1.3092   1.3243   1.3331   1.3357   1.3715   1.4146   1.4363   1.4452
     1.4958   1.5381   1.5827   1.6149   1.6331   1.6607   1.6917   1.6945
     1.7535   1.7708   1.7934   1.8225   1.8550   1.8866   1.8974   1.9113
     1.9733   2.0028   2.0177   2.0476   2.1080   2.1115   2.1224   2.1299
     2.1707   2.1727   2.2096   2.3423   2.3772   2.3970   2.3971   2.4430
     2.5229   2.5277   2.5280   2.6162   2.6227   2.6495   2.8560   2.9161
     3.7623   3.8731   4.2787   4.3260   4.3687   4.5584   5.1565   6.0285
     6.0385   6.0434   6.4352   6.6472   6.7953   7.0239   7.0938   7.2958
     7.4064   7.4226   7.6872   7.8556   7.9282   8.1177   8.2440   8.2907
     8.5447   8.6520   8.8895   8.9849   9.0227   9.0960   9.1066   9.1591
     9.1806   9.2037   9.2885   9.3083   9.3472   9.3552   9.4465   9.4934
     9.5102   9.5731

          k = 0.3750 0.0000 0.0000 ( 71576 PWs)   bands (ev):

   -38.1820 -37.8918 -35.8103 -35.4839 -24.2336 -23.8683 -22.9267 -22.9036
   -22.8707 -22.8492 -22.7809 -22.6809 -18.6529 -18.5337 -18.3336 -18.2640
   -18.1851 -17.9035 -17.1754 -17.0906 -16.8401 -16.8217 -16.7890 -16.5251
   -15.3706 -15.2012 -15.1585 -15.1409 -15.0540 -14.9945 -14.8729 -14.7959
   -14.7435 -14.7305 -14.6940 -14.6529 -14.4365 -14.3649 -14.3566 -14.2225
   -14.1834 -14.1578 -14.1524 -14.1471 -14.1412 -14.1351 -14.1259 -14.0787
   -14.0753 -14.0310 -13.9565 -13.8455 -13.7121 -13.4865  -9.6041  -9.1988
    -8.9483  -8.9168  -8.6816  -8.6523  -8.2115  -8.1846  -8.1140  -8.0990
    -8.0859  -8.0265  -7.9243  -7.9042  -7.8312  -7.8102  -7.8064  -7.7839
    -7.7154  -7.7083  -7.6869  -7.6388  -7.6184  -7.5234  -2.8411  -2.7995
    -2.7089  -2.4649  -2.4356  -2.3549  -2.2977  -2.2603  -2.2481  -2.1835
    -2.1708  -2.1449  -2.1236  -2.1052  -2.0579  -1.9743  -1.8642  -1.8617
    -1.8600  -1.7747  -1.7523  -1.7519  -1.6698  -1.6640  -1.6459  -1.5762
    -1.4342  -1.4069  -1.2288  -1.1722  -1.1441  -1.0868  -1.0834  -1.0601
    -1.0585  -1.0565  -1.0550  -1.0540  -0.9872  -0.9696  -0.9558  -0.9340
    -0.9108  -0.8232  -0.8180  -0.8175  -0.7245  -0.6730  -0.6673  -0.6479
    -0.6194  -0.5954  -0.5606  -0.5365  -0.5032  -0.4857  -0.4402  -0.4359
    -0.4195  -0.3749  -0.3486  -0.2885  -0.2772  -0.2527  -0.2261  -0.1686
    -0.1312  -0.1276  -0.1149  -0.1136  -0.1029  -0.0882  -0.0817  -0.0456
    -0.0299   0.0122   0.0837   0.1031   0.1386   0.1403   0.1525   0.1540
     0.2362   0.2496   0.2571   0.2611   0.2689   0.2801   0.3333   0.3774
     0.3787   0.3826   0.3955   0.4544   0.4600   0.4837   0.4897   0.5420
     0.6126   0.6149   0.6953   0.7135   0.7675   0.7724   0.7806   0.7829
     0.8100   0.8472   0.8659   0.9134   0.9245   0.9262   0.9730   0.9776
     1.0386   1.0909   1.1126   1.1808   1.2080   1.2471   1.2620   1.2647
     1.2689   1.2964   1.3155   1.3500   1.3940   1.4026   1.4316   1.4763
     1.5022   1.5057   1.5628   1.5677   1.5832   1.7224   1.7236   1.7364
     1.7906   1.7913   1.8125   1.8359   1.8528   1.8718   1.8892   1.8933
     2.0052   2.0841   2.1508   2.1649   2.2454   2.3237   2.3340   2.4670
     2.4775   2.5661   2.5666   2.5982   2.7022   2.7378   5.0177   5.5272
     5.5300   5.5699   5.8050   6.0891   6.0932   6.2232   6.2996   6.4346
     6.7969   6.8825   7.0184   7.0637   7.0965   7.4469   7.6034   7.7335
     7.7634   7.8675   8.0450   8.0524   8.1554   8.2627   8.2741   8.2991
     8.3760   8.4360   8.4677   8.6041   8.6281   8.7304   8.8463   8.9437
     8.9672   9.0515

          k = 0.3750 0.2618 0.0000 ( 71552 PWs)   bands (ev):

   -38.1793 -37.8891 -35.8086 -35.4822 -24.2150 -23.8500 -22.9039 -22.8808
   -22.8497 -22.8282 -22.7586 -22.6607 -18.6144 -18.5267 -18.2960 -18.2949
   -18.2569 -18.0145 -17.1451 -17.0831 -16.9056 -16.7911 -16.7811 -16.5907
   -15.2675 -15.1403 -15.0890 -15.0737 -15.0037 -14.9526 -14.8098 -14.7743
   -14.7054 -14.6989 -14.6611 -14.6304 -14.3835 -14.3241 -14.3108 -14.2252
   -14.2174 -14.1747 -14.1678 -14.1361 -14.1296 -14.1253 -14.1188 -14.0987
   -14.0785 -14.0592 -13.9729 -13.8872 -13.7409 -13.4975  -9.5824  -9.2065
    -9.1378  -9.0310  -8.6904  -8.6461  -8.2117  -8.1863  -8.1563  -8.1342
    -8.1129  -8.1041  -8.0814  -8.0294  -8.0199  -7.9981  -7.8788  -7.8575
    -7.7275  -7.7059  -7.6962  -7.6750  -7.5459  -7.5224  -2.9350  -2.8711
    -2.7524  -2.5795  -2.5284  -2.4512  -2.3394  -2.2854  -2.2641  -2.2599
    -2.2256  -2.1968  -2.1824  -2.1684  -2.1494  -2.1291  -2.1227  -2.1196
    -2.0852  -2.0737  -1.9871  -1.9697  -1.7924  -1.7530  -1.7426  -1.5714
    -1.5305  -1.4990  -1.4964  -1.4886  -1.4878  -1.4459  -1.3893  -1.3603
    -1.2591  -1.2034  -1.1810  -1.1155  -1.0351  -1.0133  -0.9614  -0.9520
    -0.9100  -0.8821  -0.8423  -0.8223  -0.8011  -0.7887  -0.7565  -0.7324
    -0.7304  -0.6943  -0.6614  -0.6196  -0.6135  -0.5328  -0.5160  -0.4783
    -0.4501  -0.3593  -0.3427  -0.3142  -0.2978  -0.2501  -0.2243  -0.2081
    -0.1785  -0.1650  -0.1437  -0.1047  -0.0558  -0.0510  -0.0043   0.0233
     0.0472   0.0496   0.0866   0.0981   0.1193   0.1322   0.2036   0.2123
     0.2553   0.2814   0.2829   0.2990   0.3024   0.3113   0.3528   0.3813
     0.4168   0.4293   0.4375   0.4478   0.4927   0.5214   0.5350   0.5654
     0.6287   0.6333   0.7778   0.8185   0.8453   0.8546   0.8979   0.9151
     0.9323   0.9432   0.9606   1.0086   1.0302   1.0381   1.0486   1.0737
     1.1342   1.1471   1.1554   1.1642   1.1796   1.2128   1.2234   1.2335
     1.2468   1.3169   1.3596   1.3804   1.4098   1.4127   1.4444   1.4496
     1.4910   1.5287   1.5414   1.5588   1.5965   1.6499   1.6587   1.6837
     1.6849   1.7165   1.7291   1.8308   1.8525   1.9114   1.9808   2.1333
     2.4030   2.4538   2.6060   2.6583   2.6980   2.7282   2.7741   2.8035
     2.8120   2.8446   2.8780   2.8907   2.9777   3.1476   5.1675   5.7041
     5.8302   5.8362   6.0320   6.2933   6.2971   6.3184   6.4566   6.5921
     6.8877   6.9790   7.1752   7.3312   7.3511   7.4723   7.6892   7.8197
     7.9025   7.9587   7.9624   7.9709   8.1465   8.1823   8.3157   8.3910
     8.4271   8.4959   8.5237   8.5550   8.6445   8.7151   8.8291   8.9805
     9.0368   9.1252

          k = 0.3750 0.5236 0.0000 ( 71469 PWs)   bands (ev):

   -38.1728 -37.8826 -35.8045 -35.4780 -24.1697 -23.8052 -22.8478 -22.8246
   -22.7980 -22.7766 -22.7037 -22.6111 -18.5361 -18.5152 -18.5098 -18.2567
   -18.2397 -18.1934 -17.0707 -17.0663 -17.0480 -16.7642 -16.7420 -16.7060
   -15.0411 -14.9745 -14.9491 -14.9116 -14.8910 -14.8524 -14.7549 -14.6613
   -14.6501 -14.6076 -14.5939 -14.5644 -14.3690 -14.2922 -14.2816 -14.2493
   -14.2362 -14.1902 -14.1524 -14.1491 -14.1331 -14.0967 -14.0941 -14.0848
   -14.0774 -14.0639 -14.0218 -13.9766 -13.7563 -13.5188  -9.5327  -9.4517
    -9.3223  -9.0754  -8.8835  -8.6941  -8.4482  -8.4266  -8.3106  -8.2893
    -8.2505  -8.1592  -8.1327  -8.1183  -8.0917  -8.0691  -8.0572  -7.9455
    -7.9052  -7.8839  -7.7545  -7.7385  -7.7332  -7.5672  -3.3468  -3.2333
    -3.0524  -2.9974  -2.9712  -2.8653  -2.7886  -2.7669  -2.5932  -2.4956
    -2.4693  -2.4313  -2.3887  -2.3742  -2.3639  -2.3149  -2.3081  -2.2298
    -2.2216  -2.2160  -2.1620  -2.1582  -2.1567  -2.1049  -2.1020  -2.0758
    -2.0677  -1.8027  -1.7649  -1.7495  -1.6883  -1.6744  -1.6203  -1.5597
    -1.5231  -1.4320  -1.3827  -1.3146  -1.2693  -1.2221  -1.2154  -1.1140
    -1.0817  -1.0238  -1.0177  -0.9897  -0.9647  -0.9486  -0.9187  -0.8898
    -0.8806  -0.8355  -0.7621  -0.6983  -0.6824  -0.6514  -0.5987  -0.5834
    -0.5703  -0.5582  -0.5554  -0.5179  -0.5054  -0.4976  -0.4811  -0.3931
    -0.3437  -0.2989  -0.2900  -0.2546  -0.2215  -0.2054  -0.1327  -0.0069
     0.0070   0.0618   0.0912   0.1117   0.2152   0.2477   0.2927   0.2970
     0.3498   0.3671   0.4013   0.4415   0.4515   0.4790   0.5117   0.5703
     0.6612   0.7225   0.7439   0.7772   0.8229   0.8362   0.8640   0.8843
     0.9228   0.9650   0.9831   0.9905   0.9919   1.0117   1.0145   1.0249
     1.0386   1.0774   1.1596   1.1862   1.1958   1.2175   1.2645   1.2669
     1.2947   1.3022   1.3183   1.3266   1.3440   1.3745   1.3882   1.4227
     1.4408   1.4676   1.4723   1.4737   1.4783   1.5084   1.5295   1.5434
     1.5732   1.5833   1.6792   1.6986   1.7449   1.7960   1.8111   1.8326
     1.8457   1.8967   1.9077   1.9174   1.9291   1.9358   2.0742   2.0876
     2.7946   2.8291   2.9452   2.9948   2.9969   3.0260   3.0796   3.2478
     3.3982   3.4119   3.4502   3.4663   3.5716   3.7814   5.4713   6.0028
     6.1423   6.4146   6.5247   6.5319   6.5788   6.5902   6.9262   7.0201
     7.0581   7.1420   7.2984   7.3450   7.8023   7.9744   8.0829   8.1026
     8.1341   8.1684   8.2476   8.2655   8.2821   8.3920   8.4226   8.4998
     8.5671   8.7214   8.7473   8.8246   8.8615   8.9490   8.9848   9.0326
     9.0642   9.1002

          k = 0.3750 0.7854 0.0000 ( 71522 PWs)   bands (ev):

   -38.1663 -37.8760 -35.8004 -35.4739 -24.1233 -23.7595 -22.7903 -22.7669
   -22.7449 -22.7236 -22.6474 -22.5604 -18.7448 -18.4928 -18.4651 -18.4098
   -18.2226 -18.0880 -17.1806 -17.0514 -16.9848 -16.8674 -16.7480 -16.6264
   -14.8928 -14.8457 -14.7880 -14.7673 -14.7540 -14.7516 -14.7325 -14.6220
   -14.5716 -14.5714 -14.4794 -14.4733 -14.4184 -14.3964 -14.3526 -14.2839
   -14.2696 -14.2266 -14.1937 -14.1603 -14.0523 -14.0434 -14.0383 -14.0374
   -14.0304 -14.0286 -14.0071 -13.9831 -13.7372 -13.5403  -9.6646  -9.4861
    -9.4034  -9.1873  -9.0097  -8.8194  -8.6448  -8.6229  -8.4482  -8.3724
    -8.3508  -8.2199  -8.1988  -8.1757  -8.1348  -8.1087  -8.1063  -8.0993
    -8.0822  -8.0173  -7.9145  -7.9057  -7.8846  -7.6995  -3.8313  -3.7159
    -3.4855  -3.4425  -3.4094  -3.3980  -3.3196  -3.1752  -3.0514  -2.9208
    -2.9198  -2.8945  -2.8938  -2.8403  -2.5585  -2.5343  -2.4128  -2.3374
    -2.3231  -2.2389  -2.2050  -2.1955  -2.1899  -2.1596  -2.0971  -2.0675
    -2.0475  -2.0336  -2.0327  -1.9354  -1.8679  -1.7585  -1.7132  -1.7017
    -1.6743  -1.6109  -1.5936  -1.5410  -1.5208  -1.4106  -1.3228  -1.2863
    -1.2581  -1.2199  -1.1831  -1.1628  -1.1541  -1.1305  -1.0693  -0.9941
    -0.9479  -0.9154  -0.8488  -0.8472  -0.8087  -0.7846  -0.7758  -0.7561
    -0.7417  -0.7215  -0.6825  -0.6286  -0.5959  -0.5914  -0.5675  -0.5408
    -0.4483  -0.4037  -0.3866  -0.3376  -0.3188  -0.2339  -0.0520  -0.0470
     0.0428   0.1057   0.1389   0.2037   0.2603   0.3109   0.3141   0.4099
     0.4487   0.4727   0.4879   0.5364   0.5587   0.5940   0.7350   0.7507
     0.8546   0.8894   0.9101   0.9285   0.9408   0.9708   0.9822   1.0631
     1.0741   1.1136   1.1153   1.1752   1.1862   1.2280   1.2474   1.2655
     1.2749   1.3120   1.3344   1.3380   1.3546   1.3713   1.3891   1.3909
     1.4118   1.4139   1.4180   1.4728   1.5122   1.5520   1.5865   1.5904
     1.6153   1.6433   1.6487   1.6735   1.7024   1.7169   1.7408   1.7673
     1.7851   1.8081   1.8267   1.8471   1.8759   1.9140   1.9215   1.9529
     2.0632   2.0945   2.1470   2.2132   2.2394   2.2409   2.3251   2.3261
     2.7809   2.7894   2.8486   2.8537   2.9600   3.0502   3.1903   3.3475
     3.7305   3.7810   3.8319   3.8671   3.9423   4.1363   5.4378   6.0121
     6.1940   6.4505   6.4620   6.6037   6.8534   6.9662   7.0155   7.0464
     7.2707   7.4154   7.5685   7.5849   7.7441   8.0413   8.1385   8.3456
     8.4783   8.5578   8.5731   8.6609   8.7545   8.8045   8.8145   9.0060
     9.0588   9.1011   9.2040   9.2509   9.3415   9.3754   9.3779   9.4010
     9.4556   9.5318

          k = 0.3750-1.0472 0.0000 ( 71526 PWs)   bands (ev):

   -38.1636 -37.8733 -35.7987 -35.4722 -24.1039 -23.7403 -22.7660 -22.7425
   -22.7224 -22.7012 -22.6236 -22.5390 -18.8253 -18.5457 -18.4858 -18.3628
   -18.2155 -18.0407 -17.2312 -17.0453 -16.9482 -16.9178 -16.7417 -16.5893
   -14.9146 -14.8543 -14.7689 -14.7142 -14.6564 -14.6548 -14.6221 -14.5944
   -14.5511 -14.5051 -14.4985 -14.4686 -14.4524 -14.3927 -14.3542 -14.3515
   -14.2843 -14.2823 -14.2629 -14.1588 -14.0457 -14.0167 -14.0165 -14.0094
   -14.0094 -13.9970 -13.9546 -13.9177 -13.7404 -13.5531  -9.7195  -9.4577
    -9.3833  -9.3645  -8.9922  -8.8899  -8.6806  -8.6583  -8.5011  -8.3777
    -8.3570  -8.3526  -8.3309  -8.1763  -8.1582  -8.1373  -8.1132  -8.1114
    -8.1033  -8.0880  -8.0078  -7.9868  -7.9025  -7.7811  -4.0281  -3.9159
    -3.6635  -3.6336  -3.5987  -3.5782  -3.5201  -3.3354  -3.2443  -3.1548
    -3.1535  -3.1264  -3.1256  -3.0005  -2.5633  -2.5396  -2.4095  -2.3439
    -2.3381  -2.3278  -2.2392  -2.1996  -2.1945  -2.1928  -2.1576  -2.0781
[...]
    -0.9641  -0.9373  -0.9266  -0.8673  -0.8664  -0.7567  -0.7326  -0.7069
    -0.6998  -0.6698  -0.6661  -0.6369  -0.6327  -0.6184  -0.5571  -0.4630
    -0.4623  -0.3504  -0.3371  -0.3105  -0.2608  -0.2578  -0.2308  -0.2216
    -0.1983  -0.1627  -0.1366  -0.1175  -0.0963  -0.0354   0.0061   0.0231
     0.0408   0.0432   0.0903   0.1101   0.1167   0.1524   0.1693   0.2144
     0.2603   0.2940   0.2973   0.3055   0.3216   0.3424   0.3721   0.3756
     0.3825   0.4080   0.4240   0.4639   0.4952   0.5561   0.5568   0.5776
     0.6213   0.6578   0.7535   0.8171   0.8357   0.8568   0.8645   0.9200
     0.9368   0.9535   0.9606   0.9795   1.0005   1.0270   1.0413   1.0777
     1.1008   1.1710   1.1734   1.1754   1.2150   1.2183   1.2353   1.2794
     1.2829   1.3141   1.3230   1.3677   1.3896   1.3987   1.4432   1.4686
     1.4776   1.4818   1.4971   1.5194   1.6105   1.6706   1.6773   1.6864
     1.7039   1.7403   1.7414   1.7462   1.8378   1.9171   1.9809   2.1226
     2.5032   2.5489   2.6115   2.6672   2.7232   2.7502   2.7603   2.8238
     2.8247   2.8322   2.8623   2.9061   2.9868   3.0933   5.2659   5.6118
     6.0347   6.0390   6.0520   6.0557   6.2301   6.2513   6.5201   6.5878
     6.9014   7.0318   7.0396   7.3516   7.6153   7.6444   7.6669   7.6968
     7.8198   7.8679   7.8965   7.9985   8.0688   8.1871   8.2304   8.3893
     8.4449   8.5578   8.5805   8.6347   8.7158   8.8052   8.8354   8.9041
     9.0354   9.0616

          k =-0.5000 0.5236 0.0000 ( 71498 PWs)   bands (ev):

   -38.1728 -37.8826 -35.8045 -35.4780 -24.1690 -23.8060 -22.8377 -22.8137
   -22.8083 -22.7876 -22.6996 -22.6155 -18.5360 -18.5146 -18.5065 -18.2567
   -18.2365 -18.1928 -17.0765 -17.0724 -17.0484 -16.7741 -16.7426 -16.7082
   -14.9846 -14.9613 -14.9593 -14.9027 -14.8785 -14.8569 -14.7505 -14.6867
   -14.6397 -14.6155 -14.5968 -14.5787 -14.3706 -14.2951 -14.2641 -14.2583
   -14.2306 -14.1978 -14.1492 -14.1464 -14.1280 -14.1199 -14.0923 -14.0885
   -14.0798 -14.0684 -14.0279 -13.9765 -13.7540 -13.5170  -9.5315  -9.4245
    -9.3828  -9.0750  -8.8431  -8.7042  -8.4142  -8.3924  -8.3851  -8.3641
    -8.2177  -8.1828  -8.1586  -8.1322  -8.0912  -8.0686  -8.0630  -7.9455
    -7.8152  -7.8043  -7.7941  -7.7827  -7.6752  -7.5929  -3.2221  -3.1436
    -3.1039  -3.0635  -2.9064  -2.8652  -2.8102  -2.7874  -2.5009  -2.4676
    -2.4584  -2.4371  -2.4184  -2.3925  -2.3149  -2.3010  -2.2914  -2.2848
    -2.2758  -2.2708  -2.1563  -2.1525  -2.1508  -2.1363  -2.1273  -2.1140
    -2.0025  -1.9077  -1.7683  -1.6843  -1.6048  -1.5981  -1.5546  -1.5353
    -1.5035  -1.4764  -1.4489  -1.4226  -1.4047  -1.3526  -1.1285  -1.1150
    -1.1113  -1.0692  -1.0205  -0.9943  -0.9873  -0.9443  -0.9269  -0.9158
    -0.8945  -0.8007  -0.7792  -0.7318  -0.6740  -0.6687  -0.5979  -0.5825
    -0.5601  -0.5414  -0.5344  -0.5301  -0.5276  -0.5059  -0.4294  -0.4049
    -0.3569  -0.3166  -0.2510  -0.2418  -0.2402  -0.1794  -0.1506  -0.1291
     0.0237   0.0309   0.0844   0.1076   0.2409   0.2554   0.3004   0.3570
     0.3593   0.3917   0.4027   0.4150   0.4976   0.5145   0.5255   0.5269
     0.6772   0.7389   0.7399   0.8337   0.8362   0.8507   0.8858   0.8923
     0.9018   0.9426   0.9486   0.9766   0.9781   0.9828   0.9835   1.0365
     1.0506   1.0561   1.1393   1.1943   1.2071   1.2377   1.2567   1.2690
     1.2954   1.3101   1.3296   1.3353   1.3564   1.3644   1.4034   1.4108
     1.4353   1.4505   1.4717   1.4778   1.4798   1.4878   1.5200   1.5948
     1.6316   1.6352   1.6577   1.6759   1.6780   1.7803   1.8167   1.8590
     1.8688   1.8742   1.8745   1.9064   1.9202   1.9506   2.0543   2.0933
     2.9617   2.9688   2.9919   2.9975   3.1374   3.1837   3.1882   3.2456
     3.2784   3.3696   3.4063   3.4434   3.5076   3.5847   5.5365   6.0088
     6.1368   6.3683   6.5521   6.5628   6.5783   6.5866   6.9733   7.0713
     7.0876   7.1300   7.2992   7.3720   7.7868   7.9391   8.0852   8.1511
     8.2086   8.2201   8.2288   8.2398   8.2918   8.3577   8.3729   8.4101
     8.6259   8.7659   8.7753   8.8278   8.8748   8.9164   8.9356   8.9837
     9.0431   9.1782

          k =-0.5000 0.7854 0.0000 ( 71502 PWs)   bands (ev):

   -38.1663 -37.8760 -35.8004 -35.4739 -24.1228 -23.7601 -22.7824 -22.7584
   -22.7528 -22.7322 -22.6441 -22.5638 -18.7448 -18.4897 -18.4651 -18.4093
   -18.2195 -18.0874 -17.1806 -17.0605 -16.9869 -16.8673 -16.7574 -16.6287
   -14.8516 -14.8240 -14.8011 -14.7946 -14.7659 -14.7530 -14.6892 -14.6042
   -14.5604 -14.5368 -14.5234 -14.4898 -14.4065 -14.3910 -14.3885 -14.2667
   -14.2459 -14.2336 -14.2008 -14.1830 -14.0503 -14.0420 -14.0380 -14.0355
   -14.0351 -14.0321 -14.0121 -14.0066 -13.7343 -13.5422  -9.5891  -9.4975
    -9.4735  -9.1470  -9.0017  -8.8678  -8.5409  -8.5183  -8.5023  -8.4814
    -8.3684  -8.2772  -8.1383  -8.1238  -8.1121  -8.1010  -8.0985  -8.0444
    -8.0438  -8.0232  -8.0223  -7.9387  -7.8977  -7.7845  -3.7330  -3.6241
    -3.5550  -3.4736  -3.4126  -3.3670  -3.2996  -3.2280  -2.9920  -2.9100
    -2.9076  -2.9067  -2.9047  -2.8691  -2.4787  -2.4571  -2.3985  -2.3717
    -2.3310  -2.2949  -2.1813  -2.1615  -2.1592  -2.1379  -2.1376  -2.1143
    -2.0343  -1.9571  -1.9218  -1.9173  -1.8977  -1.8610  -1.8450  -1.8129
    -1.7006  -1.6992  -1.5710  -1.5179  -1.4757  -1.4645  -1.3979  -1.3391
    -1.2797  -1.2700  -1.1915  -1.1673  -1.1511  -1.1330  -1.0496  -0.9664
    -0.9445  -0.8558  -0.8473  -0.8429  -0.8321  -0.7941  -0.7698  -0.7536
    -0.7364  -0.7321  -0.6259  -0.6207  -0.6115  -0.5837  -0.5721  -0.5389
    -0.4431  -0.4357  -0.4219  -0.3851  -0.2316  -0.1808  -0.1660  -0.1320
     0.0860   0.1257   0.1357   0.1422   0.3309   0.3482   0.3831   0.3972
     0.4391   0.4527   0.4931   0.5749   0.6408   0.6530   0.6724   0.7559
     0.8767   0.8937   0.9229   0.9625   0.9705   1.0008   1.0027   1.0162
     1.0525   1.0570   1.0843   1.1963   1.2240   1.2340   1.2708   1.2719
     1.3170   1.3248   1.3255   1.3578   1.3587   1.3594   1.3770   1.3854
     1.3990   1.4510   1.4669   1.4692   1.4855   1.5043   1.5247   1.5614
     1.5645   1.6245   1.6720   1.6746   1.6869   1.7071   1.7448   1.7553
     1.7676   1.7708   1.8249   1.8347   1.8847   1.9003   1.9040   1.9291
     2.0641   2.1127   2.1417   2.1644   2.2776   2.2788   2.2877   2.2890
     2.8291   2.8335   2.8540   2.8587   3.3780   3.4238   3.4439   3.4982
     3.5666   3.5760   3.7651   3.7653   3.7680   3.7970   5.5779   5.8968
     6.1753   6.6198   6.6983   6.7119   6.7326   6.7599   6.9548   7.0175
     7.2971   7.3913   7.5053   7.6078   7.6329   8.0349   8.1253   8.3558
     8.5056   8.6157   8.6320   8.6594   8.7146   8.7341   8.7795   9.0217
     9.0761   9.0860   9.1939   9.3599   9.4017   9.4221   9.4440   9.4719
     9.5309   9.5702

          k =-0.5000-1.0472 0.0000 ( 71492 PWs)   bands (ev):

   -38.1636 -37.8733 -35.7987 -35.4722 -24.1034 -23.7408 -22.7591 -22.7350
   -22.7294 -22.7088 -22.6207 -22.5421 -18.8253 -18.5456 -18.4827 -18.3623
   -18.2124 -18.0402 -17.2312 -17.0541 -16.9502 -16.9178 -16.7508 -16.5914
   -14.8764 -14.8078 -14.7952 -14.7797 -14.6533 -14.6482 -14.5936 -14.5748
   -14.5298 -14.4972 -14.4699 -14.4654 -14.4540 -14.3957 -14.3797 -14.3600
   -14.3231 -14.2809 -14.2391 -14.1868 -14.0331 -14.0135 -14.0135 -14.0128
   -14.0127 -14.0088 -13.9561 -13.9422 -13.7335 -13.5609  -9.6232  -9.4611
    -9.4574  -9.3301  -8.9896  -8.9536  -8.5443  -8.5209  -8.4936  -8.4729
    -8.3922  -8.2882  -8.2192  -8.1971  -8.1957  -8.1757  -8.1172  -8.1170
    -8.1049  -8.0914  -8.0910  -8.0552  -7.9022  -7.8932  -3.9340  -3.8295
    -3.7191  -3.6383  -3.6186  -3.5748  -3.4922  -3.3880  -3.1876  -3.1423
    -3.1404  -3.1397  -3.1357  -3.0323  -2.4843  -2.4649  -2.3747  -2.3500
    -2.3333  -2.2638  -2.2491  -2.1649  -2.1414  -2.1305  -2.1245  -2.0886
    -2.0773  -2.0614  -2.0530  -2.0041  -1.9935  -1.9798  -1.8639  -1.8390
    -1.7879  -1.7619  -1.6031  -1.5890  -1.5646  -1.5041  -1.4816  -1.3936
    -1.3681  -1.3389  -1.2529  -1.2336  -1.2237  -1.2128  -1.0771  -0.9718
    -0.9476  -0.9301  -0.9218  -0.8506  -0.8496  -0.8494  -0.8352  -0.8190
    -0.8092  -0.8079  -0.6809  -0.6793  -0.6642  -0.5835  -0.5820  -0.5100
    -0.4758  -0.4705  -0.4419  -0.4014  -0.2371  -0.1845  -0.1403  -0.1217
     0.0997   0.1494   0.1901   0.1914   0.3925   0.3950   0.4059   0.4227
     0.4570   0.5178   0.5383   0.6234   0.6463   0.6824   0.7701   0.8402
     0.8467   0.8877   0.9559   1.0319   1.0327   1.0617   1.0646   1.0917
     1.1202   1.1327   1.1480   1.2161   1.2671   1.2713   1.2738   1.2818
     1.2974   1.3492   1.3589   1.4039   1.4053   1.4223   1.4356   1.4356
     1.4427   1.4879   1.5101   1.5150   1.5213   1.5415   1.5772   1.6010
     1.7016   1.7064   1.7362   1.7367   1.8013   1.8269   1.8287   1.8294
     1.8351   1.9234   1.9902   2.0384   2.0936   2.1088   2.1090   2.1117
     2.1441   2.1682   2.2441   2.2797   2.4570   2.4573   2.4659   2.4669
     2.6267   2.6310   2.6414   2.6460   3.3915   3.4579   3.4776   3.5657
     3.5748   3.6524   3.7773   3.8254   3.8281   3.9055   5.4645   5.7580
     6.4685   6.6399   6.6501   6.6785   6.7425   6.8832   6.9294   7.0230
     7.1145   7.1236   7.5117   7.5812   7.6273   7.9982   8.2418   8.4468
     8.4510   8.5781   8.9472   9.0910   9.1715   9.2682   9.2882   9.3078
     9.3413   9.3447   9.3690   9.4132   9.6401   9.6690   9.6776   9.7199
     9.7437   9.7915

     the Fermi energy is     2.6377 ev

!    total energy              =   -3711.63501867 Ry
     Harris-Foulkes estimate   =   -3711.63501864 Ry
     estimated scf accuracy    <          6.5E-09 Ry

     The total energy is the sum of the following terms:

     one-electron contribution =  -57519.41774656 Ry
     hartree contribution      =   29063.69140128 Ry
     xc contribution           =   -1263.75971355 Ry
     ewald contribution        =   26007.86480942 Ry
     smearing contrib. (-TS)   =      -0.01376925 Ry

     convergence has been achieved in  35 iterations

     negative rho (up, down):  9.204E-02 0.000E+00

     Forces acting on atoms (cartesian axes, Ry/au):

     atom    1 type  4   force =    -0.00000657    0.00000000   -0.00010588
     atom    2 type  4   force =     0.00000657    0.00000000   -0.00010588
     atom    3 type  3   force =    -0.00001636    0.00000000   -0.00001425
     atom    4 type  3   force =     0.00001636    0.00000000   -0.00001425
     atom    5 type  4   force =     0.00000185    0.00000000   -0.00003662
     atom    6 type  4   force =    -0.00000185    0.00000000   -0.00003662
     atom    7 type  1   force =     0.00000000    0.00000000   -0.00018069
     atom    8 type  1   force =     0.00000000    0.00000000   -0.00016820
     atom    9 type  3   force =     0.00004824    0.00000000    0.00004843
     atom   10 type  3   force =    -0.00004824    0.00000000    0.00004843
     atom   11 type  4   force =     0.00000000    0.00000000    0.00023403
     atom   12 type  4   force =     0.00000658    0.00000000    0.00023526
     atom   13 type  4   force =    -0.00000658    0.00000000    0.00023526
     atom   14 type  4   force =     0.00000000    0.00000000    0.00035840
     atom   15 type  2   force =     0.00000000    0.00000000   -0.00095153
     atom   16 type  5   force =     0.00000000    0.00000000   -0.00146103
     atom   17 type  4   force =     0.00016315    0.00000000    0.00160023
     atom   18 type  4   force =    -0.00016315    0.00000000    0.00160023
     atom   19 type  4   force =     0.00000000    0.00000000    0.00185821
     atom   20 type  4   force =     0.00000000    0.00000000    0.00231716
     atom   21 type  3   force =    -0.00013855    0.00000000   -0.00181400
     atom   22 type  3   force =     0.00013855    0.00000000   -0.00181400
     atom   23 type  1   force =     0.00000000    0.00000000   -0.00572334
     atom   24 type  1   force =     0.00000000    0.00000000   -0.00653136
     atom   25 type  4   force =    -0.00087055    0.00000000    0.00604196
     atom   26 type  4   force =     0.00087055    0.00000000    0.00604196
     atom   27 type  4   force =     0.00008473    0.00000000    0.01399100
     atom   28 type  4   force =    -0.00008473    0.00000000    0.01399100
     atom   29 type  3   force =     0.00254164    0.00000000   -0.01307492
     atom   30 type  3   force =    -0.00254164    0.00000000   -0.01307492
     atom   31 type  4   force =    -0.00924088    0.00000000    0.02386371
     atom   32 type  4   force =     0.00924088    0.00000000    0.02386371
     atom   33 type  1   force =     0.00000000    0.00000000   -0.02094168
     atom   34 type  1   force =     0.00000000    0.00000000   -0.00692817
     atom   35 type  3   force =    -0.00868485    0.00000000   -0.00130873
     atom   36 type  3   force =     0.00868485    0.00000000   -0.00130873
     atom   37 type  4   force =     0.00000000    0.00000000    0.00573052
     atom   38 type  4   force =     0.00000000    0.00000000    0.01193219
     atom   39 type  4   force =     0.00196678    0.00000000    0.00501466
     atom   40 type  4   force =    -0.00196678    0.00000000    0.00501466
     atom   41 type  5   force =     0.00000000    0.00000000   -0.03606122
     atom   42 type  2   force =     0.00000000    0.00000000   -0.02833359
     atom   43 type  4   force =     0.00000000    0.00000000    0.00527416
     atom   44 type  4   force =     0.00040144    0.00000000    0.00266269
     atom   45 type  4   force =    -0.00040144    0.00000000    0.00266269
     atom   46 type  4   force =     0.00000000    0.00000000    0.00390484
     atom   47 type  3   force =     0.00055363    0.00000000    0.00104508
     atom   48 type  3   force =    -0.00055363    0.00000000    0.00104508
     atom   49 type  1   force =     0.00000000    0.00000000   -0.00084975
     atom   50 type  1   force =     0.00000000    0.00000000   -0.00100316
     atom   51 type  4   force =     0.00006976    0.00000000    0.00076834
     atom   52 type  4   force =    -0.00006976    0.00000000    0.00076834
     atom   53 type  3   force =    -0.00004537    0.00000000   -0.00041032
     atom   54 type  3   force =     0.00004537    0.00000000   -0.00041032
     atom   55 type  4   force =     0.00000344    0.00000000    0.00025545
     atom   56 type  4   force =    -0.00000344    0.00000000    0.00025545

     Total force =     0.072602     Total SCF correction =     0.000397


     Computing stress (Cartesian axis) and pressure


     negative rho (up, down):  9.204E-02 0.000E+00
          total   stress  (Ry/bohr**3)                   (kbar)     P=       -7.36
  -0.00007579   0.00000000   0.00000000          -11.15        0.00        0.00
   0.00000000  -0.00003904   0.00000000            0.00       -5.74        0.00
   0.00000000   0.00000000  -0.00003534            0.00        0.00       -5.20

 
     init_run     :     24.65s CPU     25.63s WALL (       1 calls)
     electrons    :   1761.26s CPU   1840.62s WALL (       1 calls)
     forces       :     10.20s CPU     10.85s WALL (       1 calls)
     stress       :    100.35s CPU    102.09s WALL (       1 calls)

     Called by init_run:
     wfcinit      :     20.13s CPU     20.46s WALL (       1 calls)
     potinit      :      1.01s CPU      1.04s WALL (       1 calls)
     hinit0       :      1.75s CPU      1.78s WALL (       1 calls)

     Called by electrons:
     c_bands      :   1478.33s CPU   1516.52s WALL (      35 calls)
     sum_band     :    213.01s CPU    235.94s WALL (      35 calls)
     v_of_rho     :      4.36s CPU      4.45s WALL (      36 calls)
     newd         :     30.76s CPU     49.09s WALL (      36 calls)
     mix_rho      :     35.22s CPU     35.53s WALL (      35 calls)

     Called by c_bands:
     init_us_2    :      8.17s CPU      8.26s WALL (    1825 calls)
     cegterg      :   1407.78s CPU   1444.74s WALL (     875 calls)

     Called by sum_band:
     sum_band:bec :      0.96s CPU      0.97s WALL (     875 calls)
     addusdens    :     31.85s CPU     52.62s WALL (      35 calls)

     Called by *egterg:
     h_psi        :    654.54s CPU    668.08s WALL (    4763 calls)
     s_psi        :     99.74s CPU    100.33s WALL (    4763 calls)
     g_psi        :      1.46s CPU      1.47s WALL (    3863 calls)
     cdiaghg      :    366.88s CPU    368.24s WALL (    4738 calls)

     Called by h_psi:
     h_psi:calbec :    108.15s CPU    108.63s WALL (    4763 calls)
     vloc_psi     :    442.83s CPU    449.05s WALL (    4763 calls)
     add_vuspsi   :    100.75s CPU    101.26s WALL (    4763 calls)

     General routines
     calbec       :    181.41s CPU    182.15s WALL (    5763 calls)
     fft          :      4.03s CPU      4.08s WALL (     491 calls)
     ffts         :     19.93s CPU     20.11s WALL (   21291 calls)
     fftw         :    513.44s CPU    520.47s WALL ( 1242552 calls)
     interpolate  :      0.36s CPU      0.37s WALL (      36 calls)
 
     Parallel routines
     fft_scatt_xy :     57.96s CPU     58.81s WALL ( 1264334 calls)
     fft_scatt_yz :    342.77s CPU    347.42s WALL ( 1264334 calls)
 
     PWSCF        :  31m37.46s CPU  33m 0.30s WALL

 
   This run was terminated on:  17:10:40  25May2021            

=------------------------------------------------------------------------------=
   JOB DONE.
=------------------------------------------------------------------------------=
[1621977040.954217] [holy7c04203:187635:0]          mpool.c:43   UCX  WARN  object 0x2c67680 was not returned to mpool ucp_requests
[1621977040.954236] [holy7c04203:187635:0]          mpool.c:43   UCX  WARN  object 0x2c67a00 was not returned to mpool ucp_requests
[1621977040.954239] [holy7c04203:187635:0]          mpool.c:43   UCX  WARN  object 0x2c67f40 was not returned to mpool ucp_requests
[1621977040.959327] [holy7c04510:52050:0]          mpool.c:43   UCX  WARN  object 0x2e8bcc0 was not returned to mpool ucp_requests
[1621977040.957862] [holy7c04312:199942:0]          mpool.c:43   UCX  WARN  object 0x3291bc0 was not returned to mpool ucp_requests
[1621977040.959067] [holy7c04504:223907:0]          mpool.c:43   UCX  WARN  object 0x27ff540 was not returned to mpool ucp_requests
[1621977040.959085] [holy7c04504:223907:0]          mpool.c:43   UCX  WARN  object 0x27ffa80 was not returned to mpool ucp_requests
[1621977040.963173] [holy7c04202:111201:0]          mpool.c:43   UCX  WARN  object 0x4390180 was not returned to mpool ucp_requests
[1621977040.964646] [holy7c04509:223603:0]          mpool.c:43   UCX  WARN  object 0x33972c0 was not returned to mpool ucp_requests
[1621977040.957330] [holy7c04203:187633:0]          mpool.c:43   UCX  WARN  object 0x3037a80 was not returned to mpool ucp_requests
[1621977040.957348] [holy7c04203:187633:0]          mpool.c:43   UCX  WARN  object 0x3038180 was not returned to mpool ucp_requests
[1621977040.966663] [holy7c04203:187634:0]          mpool.c:43   UCX  WARN  object 0x419c600 was not returned to mpool ucp_requests
[1621977040.966671] [holy7c04510:52051:0]          mpool.c:43   UCX  WARN  object 0x437cd80 was not returned to mpool ucp_requests
[1621977040.967929] [holy7c04312:199943:0]          mpool.c:43   UCX  WARN  object 0x2d23140 was not returned to mpool ucp_requests
[1621977040.964096] [holy7c04202:111199:0]          mpool.c:43   UCX  WARN  object 0x2ff3280 was not returned to mpool ucp_requests
[1621977040.965986] [holy7c04202:111204:0]          mpool.c:43   UCX  WARN  object 0x2cc89c0 was not returned to mpool ucp_requests
[1621977040.966005] [holy7c04202:111204:0]          mpool.c:43   UCX  WARN  object 0x2cc9280 was not returned to mpool ucp_requests
[1621977040.967485] [holy7c04509:223633:0]          mpool.c:43   UCX  WARN  object 0x459b6c0 was not returned to mpool ucp_requests
[1621977040.967498] [holy7c04509:223633:0]          mpool.c:43   UCX  WARN  object 0x459c300 was not returned to mpool ucp_requests
[1621977040.967997] [holy7c04509:223604:0]          mpool.c:43   UCX  WARN  object 0x2ee3040 was not returned to mpool ucp_requests
