
     Program PWSCF v.6.5 starts on 27May2021 at 23:57:31 

     This program is part of the open-source Quantum ESPRESSO suite
     for quantum simulation of materials; please cite
         "P. Giannozzi et al., J. Phys.:Condens. Matter 21 395502 (2009);
         "P. Giannozzi et al., J. Phys.:Condens. Matter 29 465901 (2017);
          URL http://www.quantum-espresso.org", 
     in publications or presentations arising from this work. More details at
     http://www.quantum-espresso.org/quote

     Parallel version (MPI), running on    32 processors

     MPI processes distributed on     4 nodes
     R & G space division:  proc/nbgrp/npool/nimage =      32
     Reading input from YCBCO50_212_Y_cleave_1.0_sep.pwi
Warning: card &IONS ignored
Warning: card     ION_DYNAMICS = 'BFGS' ignored
Warning: card / ignored
Warning: card &CELL ignored
Warning: card     CELL_DYNAMICS = 'BFGS' ignored
Warning: card     PRESS_CONV_THR = 5 ignored
Warning: card / ignored

     Current dimensions of program PWSCF are:
     Max number of different atomic species (ntypx) = 10
     Max number of k-points (npk) =  40000
     Max angular momentum in pseudopotentials (lmaxx) =  3

     Subspace diagonalization in iterative solution of the eigenvalue problem:
     one sub-group per band group will be used
     scalapack distributed-memory algorithm (size of sub-group:  5*  5 procs)

     Message from routine setup:
     using ibrav=0 with symmetry is DISCOURAGED, use correct ibrav instead
 
     Parallelization info
     --------------------
     sticks:   dense  smooth     PW     G-vecs:    dense   smooth      PW
     Min         188      62     17                90874    17478    2607
     Max         189      63     18                90902    17523    2646
     Sum        6019    2003    565              2908509   560041   84211
 


     bravais-lattice index     =            0
     lattice parameter (alat)  =      14.8133  a.u.
     unit-cell volume          =    8915.2456 (a.u.)^3
     number of atoms/cell      =           56
     number of atomic types    =            5
     number of electrons       =       456.00
     number of Kohn-Sham states=          274
     kinetic-energy cutoff     =      60.0000  Ry
     charge density cutoff     =     720.0000  Ry
     convergence threshold     =      1.0E-08
     mixing beta               =       0.5000
     number of iterations used =           10  local-TF  mixing
     Exchange-correlation= SLA PW PBE PBE
                           (   1   4   3   4   0   0   0)

     celldm(1)=  14.813271  celldm(2)=   0.000000  celldm(3)=   0.000000
     celldm(4)=   0.000000  celldm(5)=   0.000000  celldm(6)=   0.000000

     crystal axes: (cart. coord. in units of alat)
               a(1) = (   1.000000   0.000000   0.000000 )  
               a(2) = (   0.000000   0.477453   0.000000 )  
               a(3) = (   0.000000   0.000000   5.744471 )  

     reciprocal axes: (cart. coord. in units 2 pi/alat)
               b(1) = (  1.000000  0.000000  0.000000 )  
               b(2) = (  0.000000  2.094448  0.000000 )  
               b(3) = (  0.000000  0.000000  0.174080 )  


     PseudoPot. # 1 for Ba read from file:
     ./pseudo/Ba.pbe-nsp-van.UPF
     MD5 check sum: 2b9c31dd849566dd297d80989662b7a0
     Pseudo is Ultrasoft + core correction, Zval = 10.0
     Generated by new atomic code, or converted to UPF format
     Using radial grid of  907 points,  6 beta functions with: 
                l(1) =   0
                l(2) =   0
                l(3) =   1
                l(4) =   1
                l(5) =   2
                l(6) =   2
     Q(r) pseudized with  6 coefficients,  rinner =    1.200   1.200   1.200
                                                       1.200   1.200

     PseudoPot. # 2 for Ca read from file:
     ./pseudo/Ca.pbe-nsp-van.UPF
     MD5 check sum: 6471098428ff4fa451746d08035ff179
     Pseudo is Ultrasoft + core correction, Zval = 10.0
     Generated by new atomic code, or converted to UPF format
     Using radial grid of  845 points,  6 beta functions with: 
                l(1) =   0
                l(2) =   0
                l(3) =   1
                l(4) =   1
                l(5) =   2
                l(6) =   2
     Q(r) pseudized with  6 coefficients,  rinner =    1.200   1.200   1.200
                                                       1.200   1.200

     PseudoPot. # 3 for Cu read from file:
     ./pseudo/Cu.pbe-n-van_ak.UPF
     MD5 check sum: 34e3282627ffb533726feb647e090d62
     Pseudo is Ultrasoft + core correction, Zval = 11.0
     Generated by new atomic code, or converted to UPF format
     Using radial grid of  867 points,  6 beta functions with: 
                l(1) =   0
                l(2) =   0
                l(3) =   1
                l(4) =   1
                l(5) =   2
                l(6) =   2
     Q(r) pseudized with  8 coefficients,  rinner =    1.400   1.400   1.400
                                                       1.400   1.400

     PseudoPot. # 4 for O  read from file:
     ./pseudo/O.pbe-van_ak.UPF
     MD5 check sum: 783ce7fe4c79b6a4916957118fed0856
     Pseudo is Ultrasoft, Zval =  6.0
     Generated by new atomic code, or converted to UPF format
     Using radial grid of  737 points,  4 beta functions with: 
                l(1) =   0
                l(2) =   0
                l(3) =   1
                l(4) =   1
     Q(r) pseudized with  8 coefficients,  rinner =    0.800   0.800   0.800


     PseudoPot. # 5 for Y  read from file:
     ./pseudo/Y.pbe-nsp-van.UPF
     MD5 check sum: 4412fed3ab108fed87a1b7d6a69a4a38
     Pseudo is Ultrasoft + core correction, Zval = 11.0
     Generated by new atomic code, or converted to UPF format
     Using radial grid of  885 points,  6 beta functions with: 
                l(1) =   0
                l(2) =   0
                l(3) =   1
                l(4) =   1
                l(5) =   2
                l(6) =   2
     Q(r) pseudized with  6 coefficients,  rinner =    1.200   1.200   1.200
                                                       1.200   1.200

     atomic species   valence    mass     pseudopotential
        Ba            10.00   137.32700     Ba( 1.00)
        Ca            10.00    40.07800     Ca( 1.00)
        Cu            11.00    63.54600     Cu( 1.00)
        O              6.00    15.99900     O ( 1.00)
        Y             11.00    88.90584     Y ( 1.00)

      4 Sym. Ops. (no inversion) found ( 2 have fractional translation)



   Cartesian axes

     site n.     atom                  positions (alat units)
         1           O   tau(   1) = (  -0.0008343   0.2387265  -0.0222443  )
         2           O   tau(   2) = (   0.5008340   0.2387265  -0.0222443  )
         3           Cu  tau(   3) = (   0.5017257   0.0000000   0.0109608  )
         4           Cu  tau(   4) = (  -0.0017260   0.0000000   0.0109608  )
         5           O   tau(   5) = (  -0.0028933   0.0000000   0.2506504  )
         6           O   tau(   6) = (   0.5028929   0.0000000   0.2506504  )
         7           Ba  tau(   7) = (   0.7499995   0.2387265   0.2749435  )
         8           Ba  tau(   8) = (   0.2499998   0.2387265   0.2755214  )
         9           Cu  tau(   9) = (   0.4980963   0.0000000   0.5208446  )
        10           Cu  tau(  10) = (   0.0019033   0.0000000   0.5208446  )
        11           O   tau(  11) = (   0.2499998   0.0000000   0.5341884  )
        12           O   tau(  12) = (   0.5083351   0.2387265   0.5569851  )
        13           O   tau(  13) = (  -0.0083354   0.2387265   0.5569851  )
        14           O   tau(  14) = (   0.7499995   0.0000000   0.5573831  )
        15           Ca  tau(  15) = (   0.2499998   0.2387265   0.7436937  )
        16           Y   tau(  16) = (   0.7499995   0.2387265   0.7469544  )
        17           O   tau(  17) = (  -0.0063798   0.2387265   0.9248530  )
        18           O   tau(  18) = (   0.5063794   0.2387265   0.9248530  )
        19           O   tau(  19) = (   0.7499995   0.0000000   0.9338544  )
        20           O   tau(  20) = (   0.2499998   0.0000000   0.9461329  )
        21           Cu  tau(  21) = (   0.0015717   0.0000000   0.9686860  )
        22           Cu  tau(  22) = (   0.4984280   0.0000000   0.9686860  )
        23           Ba  tau(  23) = (   0.2499998   0.2387265   1.2085224  )
        24           Ba  tau(  24) = (   0.7499995   0.2387265   1.2233294  )
        25           O   tau(  25) = (   0.0063772   0.0000000   1.2547537  )
        26           O   tau(  26) = (   0.4936224   0.0000000   1.2547537  )
        27           O   tau(  27) = (   0.5384045   0.2387265   1.4952521  )
        28           O   tau(  28) = (  -0.0384049   0.2387265   1.4952521  )
        29           Cu  tau(  29) = (   0.5006120   0.0000000   1.4952546  )
        30           Cu  tau(  30) = (  -0.0006123   0.0000000   1.4952546  )
        31           O   tau(  31) = (   0.4936212   0.0000000   1.7357531  )
        32           O   tau(  32) = (   0.0063785   0.0000000   1.7357531  )
        33           Ba  tau(  33) = (   0.7499995   0.2387265   1.7671824  )
        34           Ba  tau(  34) = (   0.2499998   0.2387265   1.7819920  )
        35           Cu  tau(  35) = (   0.4984280   0.0000000   2.0218232  )
        36           Cu  tau(  36) = (   0.0015717   0.0000000   2.0218232  )
        37           O   tau(  37) = (   0.2499998   0.0000000   2.0443814  )
        38           O   tau(  38) = (   0.7499995   0.0000000   2.0566511  )
        39           O   tau(  39) = (   0.5063781   0.2387265   2.0656562  )
        40           O   tau(  40) = (  -0.0063785   0.2387265   2.0656562  )
        41           Y   tau(  41) = (   0.7499995   0.2387265   2.2435498  )
        42           Ca  tau(  42) = (   0.2499998   0.2387265   2.2468194  )
        43           O   tau(  43) = (   0.7499995   0.0000000   2.5606870  )
        44           O   tau(  44) = (  -0.0083354   0.2387265   2.5610889  )
        45           O   tau(  45) = (   0.5083351   0.2387265   2.5610889  )
        46           O   tau(  46) = (   0.2499998   0.0000000   2.5838869  )
        47           Cu  tau(  47) = (   0.0019059   0.0000000   2.5972205  )
        48           Cu  tau(  48) = (   0.4980938   0.0000000   2.5972205  )
        49           Ba  tau(  49) = (   0.2499998   0.2387265   2.8425602  )
        50           Ba  tau(  50) = (   0.7499995   0.2387265   2.8431023  )
        51           O   tau(  51) = (  -0.0028895   0.0000000   2.8674095  )
        52           O   tau(  52) = (   0.5028891   0.0000000   2.8674095  )
        53           Cu  tau(  53) = (   0.5017844   0.0000000   3.1070940  )
        54           Cu  tau(  54) = (  -0.0017847   0.0000000   3.1070940  )
        55           O   tau(  55) = (   0.5008990   0.2387265   3.1403004  )
        56           O   tau(  56) = (  -0.0008994   0.2387265   3.1403004  )

     number of k points=    25  Gaussian smearing, width (Ry)=  0.0100
                       cart. coord. in units 2pi/alat
        k(    1) = (   0.0000000   0.0000000   0.0000000), wk =   0.0312500
        k(    2) = (   0.0000000   0.2618060   0.0000000), wk =   0.0625000
        k(    3) = (   0.0000000   0.5236121   0.0000000), wk =   0.0625000
        k(    4) = (   0.0000000   0.7854181   0.0000000), wk =   0.0625000
        k(    5) = (   0.0000000  -1.0472241   0.0000000), wk =   0.0312500
        k(    6) = (   0.1250000   0.0000000   0.0000000), wk =   0.0625000
        k(    7) = (   0.1250000   0.2618060   0.0000000), wk =   0.1250000
        k(    8) = (   0.1250000   0.5236121   0.0000000), wk =   0.1250000
        k(    9) = (   0.1250000   0.7854181   0.0000000), wk =   0.1250000
        k(   10) = (   0.1250000  -1.0472241   0.0000000), wk =   0.0625000
        k(   11) = (   0.2500000   0.0000000   0.0000000), wk =   0.0625000
        k(   12) = (   0.2500000   0.2618060   0.0000000), wk =   0.1250000
        k(   13) = (   0.2500000   0.5236121   0.0000000), wk =   0.1250000
        k(   14) = (   0.2500000   0.7854181   0.0000000), wk =   0.1250000
        k(   15) = (   0.2500000  -1.0472241   0.0000000), wk =   0.0625000
        k(   16) = (   0.3750000   0.0000000   0.0000000), wk =   0.0625000
        k(   17) = (   0.3750000   0.2618060   0.0000000), wk =   0.1250000
        k(   18) = (   0.3750000   0.5236121   0.0000000), wk =   0.1250000
        k(   19) = (   0.3750000   0.7854181   0.0000000), wk =   0.1250000
        k(   20) = (   0.3750000  -1.0472241   0.0000000), wk =   0.0625000
        k(   21) = (  -0.5000000   0.0000000   0.0000000), wk =   0.0312500
        k(   22) = (  -0.5000000   0.2618060   0.0000000), wk =   0.0625000
        k(   23) = (  -0.5000000   0.5236121   0.0000000), wk =   0.0625000
        k(   24) = (  -0.5000000   0.7854181   0.0000000), wk =   0.0625000
        k(   25) = (  -0.5000000  -1.0472241   0.0000000), wk =   0.0312500

     Dense  grid:  2908509 G-vectors     FFT dimensions: ( 128,  64, 729)

     Smooth grid:   560041 G-vectors     FFT dimensions: (  80,  36, 432)

     Estimated max dynamical RAM per process >     842.52 MB

     Estimated total dynamical RAM >      26.33 GB

     Initial potential from superposition of free atoms

     starting charge  455.69457, renormalised to  456.00000

     negative rho (up, down):  9.344E-02 0.000E+00
     Starting wfcs are  396 randomized atomic wfcs

     total cpu time spent up to now is       27.0 secs

     Self-consistent Calculation

     iteration #  1     ecut=    60.00 Ry     beta= 0.50
     Davidson diagonalization with overlap
     ethr =  1.00E-02,  avg # of iterations =  2.0

     negative rho (up, down):  8.573E-02 0.000E+00

     total cpu time spent up to now is       74.6 secs

     total energy              =   -3708.41680402 Ry
     Harris-Foulkes estimate   =   -3716.32761342 Ry
     estimated scf accuracy    <      30.33246062 Ry

     iteration #  2     ecut=    60.00 Ry     beta= 0.50
     Davidson diagonalization with overlap
     ethr =  6.65E-03,  avg # of iterations =  2.0

     negative rho (up, down):  8.511E-02 0.000E+00

     total cpu time spent up to now is      120.8 secs

     total energy              =   -3711.07962010 Ry
     Harris-Foulkes estimate   =   -3712.20972954 Ry
     estimated scf accuracy    <       5.90819108 Ry

     iteration #  3     ecut=    60.00 Ry     beta= 0.50
     Davidson diagonalization with overlap
     ethr =  1.30E-03,  avg # of iterations =  2.0

     negative rho (up, down):  8.531E-02 0.000E+00

     total cpu time spent up to now is      167.2 secs

     total energy              =   -3711.57180293 Ry
     Harris-Foulkes estimate   =   -3711.85406943 Ry
     estimated scf accuracy    <       8.15474089 Ry

     iteration #  4     ecut=    60.00 Ry     beta= 0.50
     Davidson diagonalization with overlap
     ethr =  1.30E-03,  avg # of iterations =  1.0

     negative rho (up, down):  8.579E-02 0.000E+00

     total cpu time spent up to now is      209.2 secs

     total energy              =   -3711.58507081 Ry
     Harris-Foulkes estimate   =   -3711.71339458 Ry
     estimated scf accuracy    <       3.02431652 Ry

     iteration #  5     ecut=    60.00 Ry     beta= 0.50
     Davidson diagonalization with overlap
     ethr =  6.63E-04,  avg # of iterations =  1.1

     negative rho (up, down):  8.725E-02 0.000E+00

     total cpu time spent up to now is      251.9 secs

     total energy              =   -3711.50499368 Ry
     Harris-Foulkes estimate   =   -3711.63376982 Ry
     estimated scf accuracy    <       1.22608541 Ry

     iteration #  6     ecut=    60.00 Ry     beta= 0.50
     Davidson diagonalization with overlap
     ethr =  2.69E-04,  avg # of iterations =  7.8

     negative rho (up, down):  8.803E-02 0.000E+00

     total cpu time spent up to now is      316.5 secs

     total energy              =   -3711.52807850 Ry
     Harris-Foulkes estimate   =   -3711.56006611 Ry
     estimated scf accuracy    <       2.55940251 Ry

     iteration #  7     ecut=    60.00 Ry     beta= 0.50
     Davidson diagonalization with overlap
     ethr =  2.69E-04,  avg # of iterations =  2.0

     negative rho (up, down):  8.884E-02 0.000E+00

     total cpu time spent up to now is      361.4 secs

     total energy              =   -3711.51774911 Ry
     Harris-Foulkes estimate   =   -3711.54037194 Ry
     estimated scf accuracy    <       1.20841367 Ry

     iteration #  8     ecut=    60.00 Ry     beta= 0.50
     Davidson diagonalization with overlap
     ethr =  2.65E-04,  avg # of iterations =  1.0

     negative rho (up, down):  8.960E-02 0.000E+00

     total cpu time spent up to now is      404.7 secs

     total energy              =   -3711.50563530 Ry
     Harris-Foulkes estimate   =   -3711.53084459 Ry
     estimated scf accuracy    <       1.48522068 Ry

     iteration #  9     ecut=    60.00 Ry     beta= 0.50
     Davidson diagonalization with overlap
     ethr =  2.65E-04,  avg # of iterations =  1.5

     negative rho (up, down):  8.981E-02 0.000E+00

     total cpu time spent up to now is      448.2 secs

     total energy              =   -3711.50633315 Ry
     Harris-Foulkes estimate   =   -3711.51477930 Ry
     estimated scf accuracy    <       0.42302899 Ry

     iteration # 10     ecut=    60.00 Ry     beta= 0.50
     Davidson diagonalization with overlap
     ethr =  9.28E-05,  avg # of iterations =  8.1

     negative rho (up, down):  8.967E-02 0.000E+00

     total cpu time spent up to now is      511.3 secs

     total energy              =   -3711.50098455 Ry
     Harris-Foulkes estimate   =   -3711.50893138 Ry
     estimated scf accuracy    <       0.22042849 Ry

     iteration # 11     ecut=    60.00 Ry     beta= 0.50
     Davidson diagonalization with overlap
     ethr =  4.83E-05,  avg # of iterations =  6.5

     negative rho (up, down):  8.953E-02 0.000E+00

     total cpu time spent up to now is      570.8 secs

     total energy              =   -3711.50132957 Ry
     Harris-Foulkes estimate   =   -3711.50349343 Ry
     estimated scf accuracy    <       0.18925797 Ry

     iteration # 12     ecut=    60.00 Ry     beta= 0.50
     Davidson diagonalization with overlap
     ethr =  4.15E-05,  avg # of iterations =  1.0

     negative rho (up, down):  8.932E-02 0.000E+00

     total cpu time spent up to now is      612.8 secs

     total energy              =   -3711.50034690 Ry
     Harris-Foulkes estimate   =   -3711.50201987 Ry
     estimated scf accuracy    <       0.16919566 Ry

     iteration # 13     ecut=    60.00 Ry     beta= 0.50
     Davidson diagonalization with overlap
     ethr =  3.71E-05,  avg # of iterations =  1.0

     negative rho (up, down):  8.918E-02 0.000E+00

     total cpu time spent up to now is      656.5 secs

     total energy              =   -3711.49740530 Ry
     Harris-Foulkes estimate   =   -3711.50058448 Ry
     estimated scf accuracy    <       0.13383186 Ry

     iteration # 14     ecut=    60.00 Ry     beta= 0.50
     Davidson diagonalization with overlap
     ethr =  2.93E-05,  avg # of iterations =  3.0

     negative rho (up, down):  9.554E-02 0.000E+00

     total cpu time spent up to now is      704.8 secs

     total energy              =   -3711.49510600 Ry
     Harris-Foulkes estimate   =   -3711.49804453 Ry
     estimated scf accuracy    <       0.10954078 Ry

     iteration # 15     ecut=    60.00 Ry     beta= 0.50
     Davidson diagonalization with overlap
     c_bands:  1 eigenvalues not converged
     ethr =  2.40E-05,  avg # of iterations =  5.3

     negative rho (up, down):  9.691E-02 0.000E+00

     total cpu time spent up to now is      759.4 secs

     total energy              =   -3711.49409480 Ry
     Harris-Foulkes estimate   =   -3711.49559402 Ry
     estimated scf accuracy    <       0.04997116 Ry

     iteration # 16     ecut=    60.00 Ry     beta= 0.50
     Davidson diagonalization with overlap
     ethr =  1.10E-05,  avg # of iterations = 10.0

     negative rho (up, down):  1.090E-01 0.000E+00

     total cpu time spent up to now is      827.5 secs

     total energy              =   -3711.49195521 Ry
     Harris-Foulkes estimate   =   -3711.49433918 Ry
     estimated scf accuracy    <       0.03732637 Ry

     iteration # 17     ecut=    60.00 Ry     beta= 0.50
     Davidson diagonalization with overlap
     ethr =  8.19E-06,  avg # of iterations =  8.8

     negative rho (up, down):  1.183E-01 0.000E+00

     total cpu time spent up to now is      892.9 secs

     total energy              =   -3711.49074407 Ry
     Harris-Foulkes estimate   =   -3711.49226651 Ry
     estimated scf accuracy    <       0.01869648 Ry

     iteration # 18     ecut=    60.00 Ry     beta= 0.50
     Davidson diagonalization with overlap
     c_bands:  1 eigenvalues not converged
     ethr =  4.10E-06,  avg # of iterations = 11.6

     negative rho (up, down):  1.044E-01 0.000E+00

     total cpu time spent up to now is      970.0 secs

     total energy              =   -3711.49011619 Ry
     Harris-Foulkes estimate   =   -3711.49101068 Ry
     estimated scf accuracy    <       0.01000642 Ry

     iteration # 19     ecut=    60.00 Ry     beta= 0.50
     Davidson diagonalization with overlap
     c_bands:  1 eigenvalues not converged
     ethr =  2.19E-06,  avg # of iterations =  6.9

     negative rho (up, down):  9.433E-02 0.000E+00

     total cpu time spent up to now is     1031.7 secs

     total energy              =   -3711.48983640 Ry
     Harris-Foulkes estimate   =   -3711.49022777 Ry
     estimated scf accuracy    <       0.00363031 Ry

     iteration # 20     ecut=    60.00 Ry     beta= 0.50
     Davidson diagonalization with overlap
     c_bands:  1 eigenvalues not converged
     ethr =  7.96E-07,  avg # of iterations =  7.6

     negative rho (up, down):  8.935E-02 0.000E+00

     total cpu time spent up to now is     1093.3 secs

     total energy              =   -3711.48984820 Ry
     Harris-Foulkes estimate   =   -3711.48989445 Ry
     estimated scf accuracy    <       0.00274730 Ry

     iteration # 21     ecut=    60.00 Ry     beta= 0.50
     Davidson diagonalization with overlap
     c_bands:  1 eigenvalues not converged
     ethr =  6.02E-07,  avg # of iterations =  4.6

     negative rho (up, down):  8.967E-02 0.000E+00

     total cpu time spent up to now is     1145.3 secs

     total energy              =   -3711.48990485 Ry
     Harris-Foulkes estimate   =   -3711.48988062 Ry
     estimated scf accuracy    <       0.00086411 Ry

     iteration # 22     ecut=    60.00 Ry     beta= 0.50
     Davidson diagonalization with overlap
     ethr =  1.89E-07,  avg # of iterations =  4.8

     negative rho (up, down):  9.051E-02 0.000E+00

     total cpu time spent up to now is     1198.4 secs

     total energy              =   -3711.48993124 Ry
     Harris-Foulkes estimate   =   -3711.48992084 Ry
     estimated scf accuracy    <       0.00029634 Ry

     iteration # 23     ecut=    60.00 Ry     beta= 0.50
     Davidson diagonalization with overlap
     ethr =  6.50E-08,  avg # of iterations =  4.6

     negative rho (up, down):  8.999E-02 0.000E+00

     total cpu time spent up to now is     1251.6 secs

     total energy              =   -3711.48994708 Ry
     Harris-Foulkes estimate   =   -3711.48993977 Ry
     estimated scf accuracy    <       0.00008097 Ry

     iteration # 24     ecut=    60.00 Ry     beta= 0.50
     Davidson diagonalization with overlap
     ethr =  1.78E-08,  avg # of iterations =  1.8

     negative rho (up, down):  9.071E-02 0.000E+00

     total cpu time spent up to now is     1296.2 secs

     total energy              =   -3711.48994952 Ry
     Harris-Foulkes estimate   =   -3711.48995084 Ry
     estimated scf accuracy    <       0.00004573 Ry

     iteration # 25     ecut=    60.00 Ry     beta= 0.50
     Davidson diagonalization with overlap
     ethr =  1.00E-08,  avg # of iterations =  2.3

     negative rho (up, down):  9.128E-02 0.000E+00

     total cpu time spent up to now is     1343.5 secs

     total energy              =   -3711.48994989 Ry
     Harris-Foulkes estimate   =   -3711.48995160 Ry
     estimated scf accuracy    <       0.00002275 Ry

     iteration # 26     ecut=    60.00 Ry     beta= 0.50
     Davidson diagonalization with overlap
     ethr =  4.99E-09,  avg # of iterations =  1.3

     negative rho (up, down):  9.116E-02 0.000E+00

     total cpu time spent up to now is     1386.3 secs

     total energy              =   -3711.48995066 Ry
     Harris-Foulkes estimate   =   -3711.48995080 Ry
     estimated scf accuracy    <       0.00001243 Ry

     iteration # 27     ecut=    60.00 Ry     beta= 0.50
     Davidson diagonalization with overlap
     ethr =  2.73E-09,  avg # of iterations =  1.1

     negative rho (up, down):  9.130E-02 0.000E+00

     total cpu time spent up to now is     1428.7 secs

     total energy              =   -3711.48995047 Ry
     Harris-Foulkes estimate   =   -3711.48995113 Ry
     estimated scf accuracy    <       0.00000617 Ry

     iteration # 28     ecut=    60.00 Ry     beta= 0.50
     Davidson diagonalization with overlap
     ethr =  1.35E-09,  avg # of iterations =  1.7

     negative rho (up, down):  9.122E-02 0.000E+00

     total cpu time spent up to now is     1472.8 secs

     total energy              =   -3711.48995074 Ry
     Harris-Foulkes estimate   =   -3711.48995075 Ry
     estimated scf accuracy    <       0.00000436 Ry

     iteration # 29     ecut=    60.00 Ry     beta= 0.50
     Davidson diagonalization with overlap
     ethr =  9.55E-10,  avg # of iterations =  1.1

     negative rho (up, down):  9.119E-02 0.000E+00

     total cpu time spent up to now is     1515.9 secs

     total energy              =   -3711.48995082 Ry
     Harris-Foulkes estimate   =   -3711.48995086 Ry
     estimated scf accuracy    <       0.00000122 Ry

     iteration # 30     ecut=    60.00 Ry     beta= 0.50
     Davidson diagonalization with overlap
     ethr =  2.68E-10,  avg # of iterations =  2.4

     negative rho (up, down):  9.121E-02 0.000E+00

     total cpu time spent up to now is     1562.4 secs

     total energy              =   -3711.48995080 Ry
     Harris-Foulkes estimate   =   -3711.48995090 Ry
     estimated scf accuracy    <       0.00000211 Ry

     iteration # 31     ecut=    60.00 Ry     beta= 0.50
     Davidson diagonalization with overlap
     ethr =  2.68E-10,  avg # of iterations =  1.0

     negative rho (up, down):  9.133E-02 0.000E+00

     total cpu time spent up to now is     1604.7 secs

     total energy              =   -3711.48995046 Ry
     Harris-Foulkes estimate   =   -3711.48995082 Ry
     estimated scf accuracy    <       0.00000087 Ry

     iteration # 32     ecut=    60.00 Ry     beta= 0.50
     Davidson diagonalization with overlap
     ethr =  1.91E-10,  avg # of iterations =  1.4

     negative rho (up, down):  9.143E-02 0.000E+00

     total cpu time spent up to now is     1648.2 secs

     total energy              =   -3711.48995027 Ry
     Harris-Foulkes estimate   =   -3711.48995050 Ry
     estimated scf accuracy    <       0.00000040 Ry

     iteration # 33     ecut=    60.00 Ry     beta= 0.50
     Davidson diagonalization with overlap
     ethr =  8.70E-11,  avg # of iterations =  1.6

     negative rho (up, down):  9.145E-02 0.000E+00

     total cpu time spent up to now is     1692.3 secs

     total energy              =   -3711.48995026 Ry
     Harris-Foulkes estimate   =   -3711.48995029 Ry
     estimated scf accuracy    <       0.00000006 Ry

     iteration # 34     ecut=    60.00 Ry     beta= 0.50
     Davidson diagonalization with overlap
     ethr =  1.30E-11,  avg # of iterations =  3.3

     negative rho (up, down):  9.143E-02 0.000E+00

     total cpu time spent up to now is     1742.4 secs

     total energy              =   -3711.48995029 Ry
     Harris-Foulkes estimate   =   -3711.48995027 Ry
     estimated scf accuracy    <       0.00000005 Ry

     iteration # 35     ecut=    60.00 Ry     beta= 0.50
     Davidson diagonalization with overlap
     ethr =  1.11E-11,  avg # of iterations =  1.0

     negative rho (up, down):  9.143E-02 0.000E+00

     total cpu time spent up to now is     1784.2 secs

     total energy              =   -3711.48995028 Ry
     Harris-Foulkes estimate   =   -3711.48995029 Ry
     estimated scf accuracy    <       0.00000005 Ry

     iteration # 36     ecut=    60.00 Ry     beta= 0.50
     Davidson diagonalization with overlap
     ethr =  1.06E-11,  avg # of iterations =  1.0

     negative rho (up, down):  9.143E-02 0.000E+00

     total cpu time spent up to now is     1825.9 secs

     total energy              =   -3711.48995028 Ry
     Harris-Foulkes estimate   =   -3711.48995028 Ry
     estimated scf accuracy    <       0.00000001 Ry

     iteration # 37     ecut=    60.00 Ry     beta= 0.50
     Davidson diagonalization with overlap
     ethr =  2.63E-12,  avg # of iterations =  1.1

     negative rho (up, down):  9.144E-02 0.000E+00

     total cpu time spent up to now is     1867.3 secs

     End of self-consistent calculation

          k = 0.0000 0.0000 0.0000 ( 70025 PWs)   bands (ev):

   -40.2991 -37.9887 -37.6897 -35.6156 -22.7864 -22.7822 -22.6538 -22.6517
   -22.6213 -22.5137 -22.4943 -22.3596 -20.3733 -20.3030 -20.2301 -18.7739
   -18.7160 -18.6855 -18.4640 -18.3599 -17.9919 -16.9636 -16.8285 -16.6452
   -15.7020 -15.3755 -15.2272 -15.0063 -14.9472 -14.8589 -14.8463 -14.8393
   -14.6878 -14.6200 -14.5202 -14.5165 -14.4428 -14.4194 -14.4163 -14.2944
   -14.2740 -14.0658 -13.9638 -13.9506 -13.9458 -13.9457 -13.9447 -13.9378
   -13.8694 -13.8497 -13.6220 -13.5843 -13.5067 -13.4850  -8.1200  -8.0229
    -8.0191  -7.9114  -7.8317  -7.7766  -7.7700  -7.7671  -7.7043  -7.6935
    -7.6923  -7.6851  -7.6599  -7.5972  -7.5946  -7.5482  -7.5010  -7.4609
    -7.4555  -7.4485  -7.3884  -7.3171  -7.3077  -7.1654  -3.2239  -2.9493
    -2.7747  -2.6607  -2.4863  -2.3282  -2.1390  -2.0997  -2.0872  -2.0518
    -2.0334  -2.0280  -2.0053  -2.0010  -1.9576  -1.8473  -1.8000  -1.7611
    -1.6282  -1.5930  -1.5681  -1.4930  -1.4210  -1.4058  -1.3661  -1.3264
    -1.2933  -1.2763  -1.2538  -1.1493  -1.1228  -1.0875  -1.0687  -1.0082
    -1.0004  -0.9382  -0.8872  -0.8865  -0.8858  -0.8851  -0.8390  -0.8326
    -0.8210  -0.7615  -0.6942  -0.6730  -0.6602  -0.6458  -0.6309  -0.6245
    -0.5155  -0.5152  -0.3528  -0.2951  -0.2646  -0.2330  -0.2321  -0.2204
    -0.1967  -0.1473  -0.1155  -0.1016  -0.0969  -0.0666  -0.0174   0.0215
     0.0256   0.0421   0.0702   0.0816   0.0915   0.0935   0.0995   0.1197
     0.1580   0.2114   0.2130   0.2793   0.2804   0.2871   0.3034   0.3074
     0.3425   0.3466   0.3500   0.3975   0.4281   0.4376   0.4475   0.4494
     0.4550   0.5174   0.5675   0.5967   0.6183   0.6403   0.6428   0.6702
     0.6851   0.7213   0.7511   0.8277   0.8582   0.9474   0.9782   1.0524
     1.0766   1.0954   1.1323   1.1341   1.1618   1.1899   1.2077   1.2767
     1.2957   1.3012   1.3086   1.3262   1.3369   1.3974   1.4343   1.4485
     1.4885   1.4990   1.5231   1.5453   1.5678   1.6513   1.6820   1.7344
     1.7377   1.7403   1.8027   1.8222   1.8290   1.8419   1.8776   1.9103
     1.9282   1.9363   2.0199   2.1071   2.1494   2.1642   2.2296   2.2342
     2.2404   2.3015   2.3511   2.3774   2.3948   2.4024   2.4803   2.4828
     2.5988   2.6617   2.6713   2.7652   2.9634   2.9702   4.2235   5.3142
     5.3680   5.7756   5.8503   5.9376   6.1612   6.2987   6.3468   6.6217
     6.7231   6.8208   6.9226   7.2372   7.3649   7.4281   7.4580   7.4748
     7.5043   7.6800   7.8140   7.8405   7.8586   8.1183   8.1326   8.2149
     8.2378   8.3132   8.4764   8.5833   8.5931   8.6078   8.6417   8.6952
     8.8206   8.8880

          k = 0.0000 0.2618 0.0000 ( 69989 PWs)   bands (ev):

   -40.2970 -37.9860 -37.6884 -35.6139 -22.7629 -22.7576 -22.6347 -22.6330
   -22.5965 -22.4902 -22.4752 -22.3408 -20.3694 -20.3323 -20.2367 -18.7714
   -18.7381 -18.6823 -18.4253 -18.3526 -18.1028 -16.9341 -16.8242 -16.7113
   -15.6512 -15.2695 -15.1877 -14.9972 -14.8906 -14.8021 -14.7867 -14.7803
   -14.6417 -14.5815 -14.5334 -14.5180 -14.4141 -14.4097 -14.3566 -14.2556
   -14.2370 -14.0619 -14.0128 -13.9530 -13.9503 -13.9403 -13.9248 -13.9041
   -13.8874 -13.8645 -13.6395 -13.6260 -13.5465 -13.5391  -8.1287  -8.0146
    -8.0120  -7.9246  -7.7880  -7.7787  -7.7714  -7.7470  -7.7361  -7.7290
    -7.7209  -7.7057  -7.6955  -7.6710  -7.6627  -7.6615  -7.6504  -7.5908
    -7.5875  -7.5144  -7.4917  -7.4309  -7.4045  -7.3780  -3.3385  -3.0486
    -2.8367  -2.7016  -2.6872  -2.3474  -2.2568  -2.2097  -2.1778  -2.1512
    -2.0867  -2.0809  -2.0619  -2.0321  -2.0260  -1.9423  -1.9313  -1.8414
    -1.7716  -1.7615  -1.7338  -1.7195  -1.6638  -1.5888  -1.5724  -1.5328
    -1.4403  -1.4180  -1.3325  -1.3310  -1.3102  -1.3010  -1.2995  -1.2980
    -1.2077  -1.1137  -1.0973  -0.9723  -0.9505  -0.9428  -0.9169  -0.8947
    -0.7731  -0.7628  -0.7359  -0.6731  -0.6700  -0.6427  -0.6007  -0.5542
    -0.5017  -0.4692  -0.3470  -0.3124  -0.2986  -0.2945  -0.2795  -0.2587
    -0.2490  -0.2348  -0.2143  -0.1534  -0.1467  -0.0935  -0.0632  -0.0448
    -0.0088   0.0090   0.0779   0.0840   0.0962   0.0968   0.1234   0.1281
     0.1890   0.2171   0.2445   0.2466   0.2765   0.2786   0.3133   0.3466
     0.3700   0.3741   0.3884   0.4343   0.4431   0.4474   0.4757   0.4923
     0.4995   0.5039   0.5228   0.5289   0.5460   0.5635   0.6950   0.7513
     0.7555   0.8481   0.8983   0.9029   0.9234   0.9336   1.0533   1.0972
     1.1382   1.1757   1.1793   1.2347   1.2560   1.2925   1.2936   1.3126
     1.3381   1.3626   1.3736   1.3840   1.4104   1.4158   1.4389   1.4846
     1.4896   1.5725   1.5731   1.5910   1.6140   1.6534   1.6930   1.7002
     1.7013   1.7587   1.7952   1.8020   1.8199   1.8880   1.8956   1.9200
     1.9255   1.9279   1.9941   2.0768   2.1231   2.1372   2.1854   2.2011
     2.2888   2.3435   2.3506   2.5470   2.8760   2.8956   2.9437   2.9522
     2.9854   3.0462   3.0571   3.1447   3.2393   3.3077   4.4447   5.6242
     5.6968   5.7256   5.9326   5.9747   6.3742   6.4651   6.4974   6.7572
     6.9322   7.0422   7.1977   7.2063   7.2666   7.4232   7.5669   7.6534
     7.6800   7.7494   7.7899   7.8556   7.8925   7.9889   8.2485   8.3107
     8.4089   8.4702   8.5581   8.7113   8.7713   8.7969   8.8012   8.8604
     9.0398   9.1032

          k = 0.0000 0.5236 0.0000 ( 69935 PWs)   bands (ev):

   -40.2919 -37.9795 -37.6850 -35.6098 -22.7048 -22.6971 -22.5879 -22.5870
   -22.5353 -22.4322 -22.4285 -22.2946 -20.4336 -20.3598 -20.2187 -18.7994
   -18.7654 -18.6652 -18.3430 -18.3351 -18.3257 -16.8637 -16.8514 -16.8137
   -15.5177 -15.0905 -15.0295 -14.9869 -14.7411 -14.6777 -14.6522 -14.5982
   -14.5924 -14.5810 -14.5093 -14.4872 -14.4109 -14.4050 -14.1874 -14.1638
   -14.1460 -14.1263 -14.0569 -13.9748 -13.9349 -13.9248 -13.8884 -13.8772
   -13.8536 -13.8194 -13.7761 -13.6812 -13.6546 -13.6326  -8.2139  -8.2010
    -8.0710  -8.0506  -8.0415  -8.0070  -7.9909  -7.9765  -7.9076  -7.9074
    -7.9045  -7.8002  -7.7885  -7.7453  -7.7410  -7.7374  -7.6992  -7.6711
    -7.6541  -7.6368  -7.5993  -7.5282  -7.5135  -7.3425  -3.7385  -3.4392
    -3.0826  -3.0463  -2.9015  -2.7420  -2.5834  -2.5666  -2.4904  -2.4305
    -2.4123  -2.3693  -2.2279  -2.2152  -2.1872  -2.1720  -2.1483  -2.1469
    -2.1446  -2.1018  -2.0339  -2.0254  -2.0032  -1.9928  -1.9874  -1.9736
    -1.8798  -1.7454  -1.6946  -1.5925  -1.5322  -1.5060  -1.4122  -1.3998
    -1.3454  -1.2392  -1.1361  -1.1058  -1.0637  -0.9790  -0.8867  -0.8745
    -0.8730  -0.8380  -0.7688  -0.7534  -0.7520  -0.7415  -0.7357  -0.6906
    -0.6118  -0.5774  -0.5701  -0.5683  -0.5554  -0.5099  -0.4829  -0.4685
    -0.4634  -0.4557  -0.4259  -0.4163  -0.4125  -0.3277  -0.2978  -0.2822
    -0.2551  -0.2358  -0.1823  -0.1649  -0.1391  -0.0402   0.0711   0.1473
     0.2169   0.2490   0.2934   0.3054   0.3428   0.3531   0.3826   0.4034
     0.4156   0.4484   0.4557   0.5036   0.5200   0.6829   0.6931   0.7216
     0.7413   0.8397   0.8623   0.9002   0.9237   0.9293   1.0246   1.0915
     1.1233   1.1461   1.1717   1.1834   1.2096   1.2179   1.2841   1.2892
     1.3042   1.3359   1.3434   1.3506   1.3814   1.3867   1.3927   1.3982
     1.4194   1.4248   1.4429   1.4937   1.5161   1.5371   1.5446   1.5584
     1.5827   1.5942   1.6662   1.6789   1.7021   1.7895   1.8060   1.8509
     1.8527   1.8555   1.9056   1.9425   1.9667   1.9679   1.9934   1.9949
     2.0109   2.0722   2.0971   2.1032   2.1660   2.1742   2.2569   2.2699
     2.3039   2.3569   2.4886   2.6478   3.1677   3.1927   3.2064   3.2494
     3.6971   3.7446   3.7980   3.9179   4.0433   4.0689   4.9095   5.2262
     5.9890   6.1980   6.5984   6.6282   6.6604   6.7185   6.7700   6.8112
     6.9384   7.0565   7.1970   7.2088   7.2392   7.7028   7.9000   7.9182
     8.0650   8.2250   8.2804   8.3601   8.4253   8.4897   8.5161   8.5834
     8.7289   8.7803   8.8094   8.8098   8.9139   8.9746   9.1202   9.2828
     9.3317   9.3463

          k = 0.0000 0.7854 0.0000 ( 69898 PWs)   bands (ev):

   -40.2868 -37.9730 -37.6817 -35.6056 -22.6451 -22.6347 -22.5400 -22.5399
   -22.4721 -22.3808 -22.3727 -22.2472 -20.5389 -20.3503 -20.1923 -18.8610
   -18.7595 -18.6463 -18.5520 -18.3177 -18.2197 -16.9860 -16.8033 -16.7778
   -15.3513 -15.0092 -14.9901 -14.8159 -14.6829 -14.6808 -14.6645 -14.5601
   -14.4763 -14.4739 -14.4161 -14.3504 -14.3351 -14.2724 -14.2480 -14.0844
   -14.0773 -14.0602 -14.0555 -13.9613 -13.9391 -13.8771 -13.8738 -13.8462
   -13.8422 -13.8334 -13.7812 -13.7800 -13.7780 -13.6928  -8.5961  -8.5728
    -8.4524  -8.3366  -8.2944  -8.2933  -8.2020  -8.1354  -7.9805  -7.9802
    -7.9644  -7.9111  -7.8694  -7.8673  -7.7868  -7.7548  -7.7211  -7.6842
    -7.6202  -7.5821  -7.5499  -7.4995  -7.4053  -7.2326  -4.1970  -3.9236
    -3.4866  -3.3535  -3.3055  -3.1506  -3.0838  -2.9566  -2.8854  -2.8846
    -2.7619  -2.7323  -2.6963  -2.6885  -2.6346  -2.5406  -2.5154  -2.3445
    -2.3416  -2.2455  -2.1099  -2.0904  -2.0695  -2.0562  -2.0425  -2.0089
    -1.9362  -1.8775  -1.7777  -1.6881  -1.6756  -1.5614  -1.5231  -1.4809
    -1.4086  -1.3748  -1.3126  -1.2426  -1.1204  -1.0915  -1.0861  -0.9994
    -0.9759  -0.9502  -0.9201  -0.8975  -0.8737  -0.8653  -0.8439  -0.8125
    -0.7942  -0.7819  -0.7622  -0.7545  -0.7233  -0.6913  -0.6910  -0.6657
    -0.6427  -0.6403  -0.6188  -0.5984  -0.5886  -0.5114  -0.5040  -0.4705
    -0.4524  -0.4479  -0.3876  -0.1147  -0.1008  -0.0517   0.0224   0.0273
     0.1157   0.1621   0.3078   0.3371   0.3677   0.3763   0.3912   0.4204
     0.4923   0.5588   0.6292   0.7476   0.7936   0.8967   0.9428   0.9577
     1.0179   1.0420   1.0975   1.1023   1.1027   1.1351   1.1618   1.2103
     1.2142   1.2301   1.2704   1.3014   1.3535   1.3815   1.3985   1.4060
     1.4248   1.4381   1.5018   1.5267   1.5382   1.5417   1.5659   1.5889
     1.6076   1.6083   1.6933   1.7011   1.7496   1.7573   1.7788   1.7907
     1.8068   1.8358   1.8396   1.8637   1.8692   1.9228   1.9345   1.9416
     1.9827   2.0082   2.0585   2.0759   2.0852   2.1166   2.1296   2.1339
     2.1654   2.3154   2.3426   2.3455   2.3533   2.3570   2.3872   2.4265
     2.5669   2.5702   2.5785   2.7938   3.0151   3.0364   3.1191   3.1619
     3.9812   4.0879   4.3217   4.5641   4.6306   4.7426   5.0119   5.4508
     5.7570   6.1846   6.1875   6.6087   6.7193   6.8307   6.8484   6.9401
     7.2120   7.4845   7.5354   7.5931   7.9204   8.0141   8.0987   8.3229
     8.4331   8.5568   8.6308   8.7143   8.7672   8.8329   8.8590   8.9311
     8.9473   9.1044   9.1454   9.1583   9.2734   9.3060   9.3548   9.3951
     9.4454   9.4637

          k = 0.0000-1.0472 0.0000 ( 70018 PWs)   bands (ev):

   -40.2847 -37.9703 -37.6803 -35.6039 -22.6198 -22.6083 -22.5202 -22.5197
   -22.4453 -22.3607 -22.3476 -22.2272 -20.5818 -20.3464 -20.1807 -18.8862
   -18.7570 -18.6383 -18.6326 -18.3105 -18.1724 -17.0364 -16.7991 -16.7420
   -15.2503 -15.0515 -14.9475 -14.8231 -14.7188 -14.7006 -14.6187 -14.5377
   -14.4556 -14.3972 -14.3840 -14.2945 -14.2139 -14.1724 -14.1383 -14.0931
   -14.0731 -14.0641 -14.0304 -14.0202 -13.9573 -13.8944 -13.8696 -13.8430
   -13.8348 -13.8317 -13.8245 -13.8149 -13.8069 -13.6653  -8.7493  -8.7259
    -8.6065  -8.4553  -8.4455  -8.4136  -8.3203  -8.1477  -8.0782  -7.9857
    -7.9473  -7.9048  -7.9037  -7.8970  -7.7960  -7.7573  -7.7546  -7.6723
    -7.6307  -7.5897  -7.4973  -7.4526  -7.3518  -7.1843  -4.3851  -4.1258
    -3.6730  -3.5025  -3.4787  -3.3122  -3.2802  -3.1664  -3.0761  -3.0335
    -2.9938  -2.9501  -2.9264  -2.9197  -2.6429  -2.6420  -2.5441  -2.3768
    -2.3703  -2.3639  -2.1322  -2.1135  -2.0816  -2.0491  -2.0297  -1.9976
    -1.9735  -1.8417  -1.7880  -1.7769  -1.6965  -1.6398  -1.5766  -1.5074
    -1.4747  -1.4546  -1.3262  -1.2232  -1.2080  -1.1688  -1.1513  -1.0982
    -1.0569  -0.9868  -0.9573  -0.9528  -0.9528  -0.9365  -0.8915  -0.8851
    -0.8775  -0.8720  -0.8637  -0.8287  -0.7989  -0.7355  -0.7310  -0.7242
    -0.7098  -0.7059  -0.7029  -0.6997  -0.6257  -0.5930  -0.5860  -0.5507
    -0.4449  -0.4304  -0.3772  -0.0794  -0.0726  -0.0707  -0.0570  -0.0094
     0.0347   0.1084   0.3159   0.3602   0.3749   0.3802   0.3805   0.4162
     0.5265   0.5934   0.6902   0.7862   0.8312   0.9934   1.0143   1.0303
     1.0368   1.0551   1.0790   1.1620   1.1740   1.2220   1.2300   1.2760
     1.2819   1.2851   1.3151   1.3224   1.3687   1.4606   1.4827   1.4940
     1.5013   1.5052   1.5166   1.5465   1.5485   1.5762   1.6232   1.6600
     1.7206   1.7225   1.7451   1.7637   1.7822   1.8409   1.8610   1.8941
     1.9360   1.9366   1.9480   1.9757   1.9979   2.0180   2.0292   2.0603
     2.0609   2.0926   2.1379   2.1595   2.2769   2.2819   2.3006   2.3070
     2.3125   2.3208   2.3345   2.3783   2.4787   2.5062   2.5491   2.5560
     2.5826   2.7335   2.7410   2.7823   2.8027   2.9502   2.9528   2.9926
     3.9821   4.1350   4.5047   4.7694   4.8395   4.9310   5.0181   5.6412
     5.7852   5.9479   6.0239   6.5046   6.7278   6.7476   6.8363   7.0285
     7.1446   7.7511   7.8806   7.9267   8.0224   8.2067   8.3813   8.4592
     8.4984   8.5154   8.6255   8.7220   8.7756   8.9257   8.9384   8.9654
     9.1226   9.1839   9.2308   9.2403   9.3360   9.3505   9.3881   9.3916
     9.4917   9.5157

          k = 0.1250 0.0000 0.0000 ( 70027 PWs)   bands (ev):

   -40.2991 -37.9887 -37.6898 -35.6156 -22.7827 -22.7777 -22.6586 -22.6557
   -22.6167 -22.5104 -22.4992 -22.3631 -20.3726 -20.3030 -20.2301 -18.7753
   -18.7159 -18.6855 -18.4633 -18.3567 -17.9919 -16.9666 -16.8405 -16.6452
   -15.6925 -15.3480 -15.2511 -14.9902 -14.9321 -14.8463 -14.8376 -14.8292
   -14.6920 -14.6126 -14.5327 -14.5169 -14.4896 -14.4269 -14.4265 -14.3226
   -14.2419 -14.0604 -13.9644 -13.9529 -13.9491 -13.9486 -13.9433 -13.9253
   -13.8543 -13.8453 -13.6245 -13.5961 -13.5140 -13.4905  -8.1216  -8.0275
    -8.0220  -7.9157  -7.8179  -7.7818  -7.7779  -7.7575  -7.7132  -7.6893
    -7.6852  -7.6723  -7.6524  -7.6037  -7.5955  -7.5397  -7.4872  -7.4662
    -7.4648  -7.4569  -7.3809  -7.3187  -7.3174  -7.1738  -3.1982  -2.9145
    -2.7418  -2.6252  -2.4818  -2.3724  -2.1350  -2.0936  -2.0788  -2.0702
    -2.0424  -2.0331  -2.0017  -1.9894  -1.9813  -1.8687  -1.7976  -1.7754
    -1.6356  -1.6349  -1.5570  -1.4731  -1.4192  -1.3984  -1.3648  -1.3357
    -1.2852  -1.2605  -1.2505  -1.2306  -1.0994  -1.0960  -1.0324  -1.0130
    -0.9581  -0.9272  -0.8858  -0.8852  -0.8842  -0.8829  -0.8668  -0.8326
    -0.8126  -0.7337  -0.7012  -0.6533  -0.6401  -0.6328  -0.6228  -0.6022
    -0.5260  -0.5097  -0.3674  -0.2835  -0.2711  -0.2474  -0.2336  -0.2294
    -0.2053  -0.1777  -0.1507  -0.1505  -0.1202  -0.0987  -0.0857  -0.0434
    -0.0220   0.0706   0.0813   0.0847   0.0912   0.1063   0.1287   0.1315
     0.2092   0.2281   0.2430   0.2644   0.3029   0.3048   0.3091   0.3354
     0.3404   0.3458   0.3739   0.3916   0.4073   0.4526   0.4556   0.4573
     0.4938   0.5008   0.5376   0.5712   0.6131   0.6466   0.6553   0.6661
     0.6704   0.6808   0.7449   0.8219   0.8314   0.9441   0.9984   1.0263
     1.0741   1.0927   1.1154   1.1308   1.1639   1.2051   1.2255   1.2483
     1.2639   1.2721   1.2946   1.3326   1.3520   1.3745   1.4693   1.4795
     1.4942   1.5268   1.5374   1.5530   1.5838   1.6176   1.6717   1.6809
     1.7340   1.8095   1.8290   1.8347   1.8428   1.8471   1.8815   1.8919
     1.9148   1.9572   1.9897   2.1359   2.1363   2.1577   2.2124   2.2318
     2.2388   2.2958   2.3461   2.3720   2.3835   2.3938   2.4834   2.4944
     2.6032   2.6792   2.6808   2.7618   2.9598   2.9680   4.2676   5.3641
     5.4074   5.6834   5.8192   6.0477   6.1989   6.3014   6.4216   6.6431
     6.7756   6.8323   6.9702   7.0001   7.0378   7.2664   7.5144   7.6550
     7.7749   7.7796   7.8324   7.8726   7.8855   8.0595   8.1584   8.2321
     8.2390   8.3740   8.5033   8.5737   8.5834   8.6160   8.6690   8.7354
     8.8323   8.9491

          k = 0.1250 0.2618 0.0000 ( 69979 PWs)   bands (ev):

   -40.2970 -37.9860 -37.6884 -35.6139 -22.7593 -22.7533 -22.6393 -22.6368
   -22.5921 -22.4871 -22.4799 -22.3441 -20.3687 -20.3323 -20.2368 -18.7728
   -18.7380 -18.6822 -18.4246 -18.3494 -18.1028 -16.9370 -16.8356 -16.7111
   -15.6422 -15.2428 -15.2117 -14.9804 -14.8775 -14.7917 -14.7777 -14.7738
   -14.6453 -14.5751 -14.5328 -14.5242 -14.4220 -14.4164 -14.4129 -14.2823
   -14.1997 -14.0573 -14.0151 -13.9510 -13.9509 -13.9415 -13.9264 -13.8972
   -13.8892 -13.8434 -13.6520 -13.6258 -13.5487 -13.5456  -8.1300  -8.0167
    -8.0146  -7.9307  -7.8440  -7.8052  -7.7808  -7.7777  -7.7708  -7.7536
    -7.7329  -7.6997  -7.6789  -7.6723  -7.6376  -7.6210  -7.6162  -7.6125
    -7.5281  -7.5279  -7.4737  -7.4730  -7.3555  -7.3327  -3.3102  -3.0126
    -2.8013  -2.6963  -2.6645  -2.3583  -2.2658  -2.2458  -2.1770  -2.1426
    -2.0887  -2.0771  -2.0544  -2.0377  -2.0280  -1.9472  -1.9229  -1.8577
    -1.7721  -1.7613  -1.7192  -1.6966  -1.6925  -1.6546  -1.5630  -1.5413
    -1.4322  -1.4026  -1.3306  -1.3283  -1.3029  -1.3003  -1.2882  -1.2776
    -1.2003  -1.1824  -1.0976  -1.0036  -0.9580  -0.9242  -0.9113  -0.8503
    -0.7843  -0.7621  -0.7443  -0.6796  -0.6589  -0.6452  -0.5910  -0.5670
    -0.5299  -0.4715  -0.4266  -0.3469  -0.3250  -0.3052  -0.2782  -0.2639
    -0.2485  -0.2444  -0.2051  -0.1990  -0.1526  -0.0704  -0.0509  -0.0369
    -0.0219   0.0067   0.0732   0.0806   0.0911   0.0948   0.1156   0.1653
     0.1931   0.2045   0.2476   0.2479   0.2622   0.2894   0.2924   0.3337
     0.3828   0.3862   0.3902   0.4223   0.4417   0.4694   0.4764   0.4900
     0.5015   0.5131   0.5239   0.5342   0.5829   0.5911   0.6893   0.7312
     0.7337   0.8303   0.8521   0.9094   0.9457   0.9498   1.0375   1.1241
     1.1442   1.1752   1.2067   1.2245   1.2600   1.2813   1.3045   1.3246
     1.3328   1.3525   1.3640   1.3711   1.3842   1.4078   1.4135   1.4923
     1.4967   1.5026   1.6028   1.6098   1.6273   1.6696   1.6880   1.6899
     1.7209   1.7712   1.8029   1.8077   1.8527   1.8574   1.8794   1.8981
     1.9310   1.9455   1.9707   2.0394   2.0828   2.1640   2.2229   2.2670
     2.2723   2.3567   2.4924   2.5655   2.8667   2.8924   2.9484   2.9553
     2.9868   3.0512   3.0554   3.1428   3.2422   3.2993   4.4711   5.5442
     5.7343   5.7674   5.9704   6.0154   6.4051   6.4248   6.5731   6.7680
     6.9415   7.0334   7.0881   7.0967   7.2511   7.4593   7.5409   7.6709
     7.7114   7.7836   7.8846   7.9092   7.9742   8.0240   8.2146   8.3383
     8.4184   8.4978   8.5697   8.6130   8.7659   8.8157   8.8517   8.8951
     9.0429   9.1341

          k = 0.1250 0.5236 0.0000 ( 69940 PWs)   bands (ev):

   -40.2919 -37.9795 -37.6851 -35.6098 -22.7017 -22.6933 -22.5918 -22.5903
   -22.5313 -22.4326 -22.4296 -22.2974 -20.4336 -20.3592 -20.2188 -18.7994
   -18.7668 -18.6651 -18.3430 -18.3320 -18.3251 -16.8654 -16.8523 -16.8238
   -15.5100 -15.1135 -15.0051 -14.9713 -14.7338 -14.6721 -14.6492 -14.5955
   -14.5893 -14.5789 -14.5122 -14.4819 -14.4090 -14.4049 -14.2410 -14.1840
   -14.1632 -14.0842 -14.0584 -13.9733 -13.9318 -13.9232 -13.8898 -13.8802
   -13.8395 -13.8179 -13.7767 -13.6849 -13.6540 -13.6367  -8.2348  -8.2305
    -8.0898  -8.0886  -7.9963  -7.9919  -7.9643  -7.9546  -7.9182  -7.9124
    -7.8684  -7.8547  -7.8430  -7.7623  -7.7540  -7.7251  -7.6891  -7.6702
    -7.6386  -7.6190  -7.5897  -7.5507  -7.4761  -7.3050  -3.7061  -3.4036
    -3.0586  -3.0455  -2.8661  -2.7514  -2.5838  -2.5658  -2.4901  -2.4325
    -2.4143  -2.3643  -2.2132  -2.2105  -2.1882  -2.1870  -2.1562  -2.1449
    -2.1414  -2.1038  -2.0373  -2.0207  -2.0039  -1.9918  -1.9871  -1.9717
    -1.8469  -1.7386  -1.7320  -1.5846  -1.5689  -1.5237  -1.4063  -1.3792
    -1.3287  -1.2448  -1.1480  -1.1423  -1.1194  -1.0104  -0.9030  -0.8904
    -0.8772  -0.8689  -0.8378  -0.7901  -0.7350  -0.7224  -0.7065  -0.6968
    -0.6291  -0.6159  -0.5789  -0.5671  -0.5547  -0.5168  -0.5007  -0.4936
    -0.4760  -0.4447  -0.4328  -0.4187  -0.4093  -0.3367  -0.3271  -0.2949
    -0.2498  -0.2452  -0.1761  -0.1506  -0.0975  -0.0251   0.0941   0.1671
     0.2143   0.2391   0.2488   0.2937   0.3312   0.3395   0.3982   0.4054
     0.4172   0.4276   0.4757   0.5105   0.5281   0.6793   0.6845   0.7261
     0.7693   0.8292   0.8553   0.9053   0.9382   0.9528   1.0437   1.0721
     1.1078   1.1216   1.1488   1.1791   1.1921   1.2365   1.2508   1.2825
     1.2943   1.3033   1.3466   1.3526   1.3675   1.3743   1.4166   1.4325
     1.4449   1.4606   1.4758   1.4932   1.5201   1.5511   1.5613   1.5740
     1.5858   1.5937   1.6731   1.6851   1.7086   1.7519   1.7598   1.8410
     1.8472   1.8511   1.9027   1.9225   1.9406   1.9538   1.9859   2.0221
     2.0477   2.0800   2.1412   2.1566   2.1710   2.1831   2.2722   2.2803
     2.4074   2.4164   2.5938   2.6945   3.1689   3.1946   3.2075   3.2516
     3.6754   3.7459   3.7885   3.8862   4.0154   4.0468   4.9162   5.2128
     6.0252   6.1990   6.6139   6.6273   6.6523   6.7264   6.7773   6.8349
     6.9428   7.0754   7.1661   7.2209   7.2886   7.7093   7.9158   7.9493
     8.0909   8.2213   8.3056   8.3393   8.4463   8.4939   8.5057   8.5719
     8.6559   8.6806   8.7973   8.8357   8.9323   8.9846   9.1264   9.1586
     9.3558   9.3636

          k = 0.1250 0.7854 0.0000 ( 69958 PWs)   bands (ev):

   -40.2868 -37.9730 -37.6817 -35.6056 -22.6424 -22.6315 -22.5433 -22.5429
   -22.4687 -22.3843 -22.3705 -22.2496 -20.5388 -20.3496 -20.1923 -18.8610
   -18.7608 -18.6462 -18.5520 -18.3147 -18.2191 -16.9859 -16.8127 -16.7799
   -15.3459 -15.0206 -14.9836 -14.8002 -14.6755 -14.6641 -14.6629 -14.5607
   -14.4818 -14.4716 -14.4156 -14.3503 -14.3360 -14.2664 -14.2480 -14.0930
   -14.0923 -14.0819 -14.0563 -13.9534 -13.9333 -13.8778 -13.8726 -13.8511
   -13.8430 -13.8271 -13.7886 -13.7795 -13.7740 -13.6968  -8.5863  -8.5609
    -8.4432  -8.2949  -8.2939  -8.2420  -8.1590  -8.1325  -7.9796  -7.9706
    -7.9478  -7.9164  -7.9121  -7.9003  -7.7884  -7.7853  -7.7355  -7.6868
    -7.6481  -7.6006  -7.5649  -7.5126  -7.4208  -7.2491  -4.1605  -3.8868
    -3.4518  -3.3711  -3.2748  -3.1645  -3.0817  -2.9589  -2.8930  -2.8896
    -2.7594  -2.7312  -2.6987  -2.6905  -2.6271  -2.5174  -2.5016  -2.3300
    -2.3289  -2.2171  -2.1114  -2.0921  -2.0903  -2.0532  -2.0414  -2.0051
    -1.9834  -1.8442  -1.7704  -1.6805  -1.6530  -1.5862  -1.5052  -1.4752
    -1.4627  -1.4006  -1.3618  -1.2720  -1.1448  -1.1179  -1.0904  -1.0542
    -0.9918  -0.9565  -0.9479  -0.9075  -0.8924  -0.8825  -0.8488  -0.8435
    -0.7933  -0.7920  -0.7562  -0.7359  -0.7214  -0.7057  -0.6788  -0.6724
    -0.6365  -0.6313  -0.6127  -0.6077  -0.5830  -0.5758  -0.5071  -0.5007
    -0.4720  -0.4158  -0.3095  -0.1253  -0.1093  -0.0330   0.0321   0.0819
     0.1716   0.2208   0.2795   0.3014   0.3215   0.3952   0.4015   0.4170
     0.4748   0.5478   0.6743   0.7241   0.8043   0.8716   0.8894   0.9676
     1.0187   1.0616   1.0736   1.0965   1.1384   1.1439   1.1871   1.1955
     1.2131   1.2421   1.2560   1.2884   1.3435   1.3779   1.3826   1.4029
     1.4192   1.4308   1.4949   1.5100   1.5208   1.5754   1.5881   1.5987
     1.6203   1.6303   1.6551   1.6959   1.7234   1.7627   1.7725   1.8110
     1.8267   1.8457   1.8567   1.8720   1.8952   1.9260   1.9481   1.9571
     1.9800   1.9841   2.0779   2.0827   2.1116   2.1233   2.1541   2.1615
     2.2389   2.2695   2.3045   2.3554   2.3651   2.4103   2.4758   2.4980
     2.5617   2.5719   2.6218   2.7647   3.0171   3.0401   3.1243   3.1677
     3.9836   4.0911   4.2648   4.5001   4.5733   4.6825   5.0122   5.4438
     5.8029   6.2362   6.2428   6.6097   6.7215   6.7657   6.8769   7.0076
     7.2143   7.4539   7.5017   7.5638   7.9085   8.0027   8.0882   8.3026
     8.4216   8.4481   8.6440   8.6920   8.7225   8.8561   8.8700   8.9340
     9.0148   9.1042   9.1713   9.1858   9.2837   9.3294   9.3787   9.3944
     9.4472   9.5059

          k = 0.1250-1.0472 0.0000 ( 70006 PWs)   bands (ev):

   -40.2847 -37.9703 -37.6803 -35.6039 -22.6174 -22.6054 -22.5228 -22.5228
   -22.4422 -22.3639 -22.3456 -22.2294 -20.5818 -20.3457 -20.1808 -18.8862
   -18.7583 -18.6382 -18.6325 -18.3075 -18.1719 -17.0364 -16.8081 -16.7440
   -15.2474 -15.0472 -14.9505 -14.8118 -14.7085 -14.7036 -14.5950 -14.5366
   -14.4428 -14.4177 -14.3991 -14.2881 -14.2143 -14.1719 -14.1314 -14.0918
   -14.0841 -14.0647 -14.0377 -14.0235 -13.9519 -13.9102 -13.8701 -13.8425
   -13.8380 -13.8313 -13.8254 -13.8159 -13.8026 -13.6711  -8.7191  -8.6965
    -8.5765  -8.4248  -8.4162  -8.3833  -8.2895  -8.1467  -8.0529  -7.9820
    -7.9442  -7.9357  -7.9320  -7.9077  -7.7975  -7.7924  -7.7514  -7.6751
    -7.6631  -7.5962  -7.5411  -7.4877  -7.3962  -7.2235  -4.3471  -4.0879
    -3.6386  -3.4983  -3.4722  -3.3255  -3.2812  -3.1686  -3.0794  -3.0436
    -2.9922  -2.9515  -2.9291  -2.9220  -2.6309  -2.6229  -2.5273  -2.3578
    -2.3490  -2.3446  -2.1345  -2.1142  -2.0914  -2.0478  -2.0305  -1.9951
    -1.9484  -1.8358  -1.7677  -1.7581  -1.7406  -1.6838  -1.5986  -1.5078
    -1.4953  -1.4255  -1.3319  -1.2944  -1.2601  -1.2078  -1.1680  -1.0903
    -1.0514  -1.0507  -1.0054  -0.9886  -0.9619  -0.9342  -0.9053  -0.8969
    -0.8860  -0.8639  -0.8223  -0.8206  -0.8054  -0.7318  -0.7235  -0.7137
    -0.7132  -0.7081  -0.6930  -0.6828  -0.6774  -0.6127  -0.5977  -0.5946
    -0.4338  -0.3618  -0.3525  -0.0923  -0.0812  -0.0506  -0.0286   0.0618
     0.1248   0.1543   0.2807   0.3049   0.3459   0.3892   0.4031   0.4062
     0.5108   0.5832   0.7398   0.7978   0.8269   0.9202   0.9831   1.0209
     1.0593   1.0938   1.1175   1.1551   1.1647   1.1819   1.2221   1.2441
     1.2612   1.2867   1.3186   1.3202   1.4091   1.4217   1.4482   1.4899
     1.4966   1.5086   1.5259   1.5529   1.5667   1.5893   1.6213   1.6571
     1.7133   1.7269   1.7583   1.7682   1.8029   1.8349   1.9011   1.9032
     1.9450   1.9462   1.9556   1.9818   2.0269   2.0289   2.0548   2.0744
     2.1077   2.1282   2.1338   2.2507   2.2763   2.2971   2.2974   2.3029
     2.3094   2.3295   2.3827   2.4059   2.4512   2.4845   2.5558   2.5629
     2.5788   2.7263   2.7342   2.7868   2.8094   2.9216   2.9612   3.0007
     3.9859   4.1452   4.4349   4.6912   4.7667   4.8653   5.0026   5.6700
     5.7977   6.0161   6.0741   6.5020   6.7351   6.7702   6.8389   7.0466
     7.1702   7.6318   7.8343   7.8933   7.9368   8.2005   8.3244   8.3800
     8.4532   8.5114   8.5174   8.7239   8.8773   8.9981   9.0071   9.0762
     9.1921   9.2402   9.2554   9.2750   9.3492   9.3937   9.4044   9.4068
     9.5109   9.5387

          k = 0.2500 0.0000 0.0000 ( 69961 PWs)   bands (ev):

   -40.2991 -37.9887 -37.6898 -35.6156 -22.7726 -22.7650 -22.6720 -22.6664
   -22.6034 -22.5133 -22.5018 -22.3725 -20.3709 -20.3031 -20.2301 -18.7788
   -18.7156 -18.6855 -18.4615 -18.3488 -17.9919 -16.9738 -16.8689 -16.6452
   -15.6666 -15.3047 -15.2742 -14.9565 -14.8948 -14.8175 -14.8116 -14.8008
   -14.7048 -14.6072 -14.5934 -14.5362 -14.5174 -14.4550 -14.4453 -14.3869
   -14.1971 -14.0461 -13.9685 -13.9586 -13.9519 -13.9500 -13.9461 -13.8941
   -13.8633 -13.7902 -13.6446 -13.6175 -13.5349 -13.5026  -8.1254  -8.0387
    -8.0271  -7.9233  -7.7907  -7.7897  -7.7848  -7.7473  -7.7222  -7.6883
    -7.6616  -7.6371  -7.6307  -7.6227  -7.6021  -7.5153  -7.4911  -7.4820
    -7.4805  -7.4544  -7.3597  -7.3445  -7.3242  -7.1973  -3.1269  -2.8137
    -2.6480  -2.5261  -2.4720  -2.4700  -2.1530  -2.1102  -2.0970  -2.0741
    -2.0481  -2.0442  -2.0327  -1.9926  -1.9640  -1.9204  -1.8600  -1.7911
    -1.6707  -1.6539  -1.5305  -1.4332  -1.4295  -1.4140  -1.4017  -1.3869
    -1.3669  -1.2582  -1.1809  -1.1753  -1.1214  -1.0583  -1.0105  -0.9152
    -0.9081  -0.8976  -0.8934  -0.8837  -0.8825  -0.8790  -0.8781  -0.8627
    -0.7500  -0.7121  -0.6975  -0.6911  -0.6006  -0.5893  -0.5809  -0.5510
    -0.5322  -0.4847  -0.3987  -0.3866  -0.3515  -0.2627  -0.2627  -0.2450
    -0.2382  -0.2206  -0.1795  -0.1768  -0.1542  -0.1484  -0.1417  -0.1077
    -0.0824   0.0544   0.0737   0.0781   0.0853   0.0993   0.1136   0.1592
     0.1615   0.2126   0.2626   0.3088   0.3115   0.3327   0.3356   0.3448
     0.3552   0.3630   0.3880   0.3964   0.4044   0.4308   0.4760   0.4799
     0.4963   0.5679   0.5712   0.6016   0.6023   0.6261   0.6626   0.6674
     0.6686   0.7109   0.7746   0.7972   0.8034   0.9352   0.9639   1.0378
     1.0470   1.0640   1.0898   1.1247   1.1268   1.1498   1.1807   1.2240
     1.2607   1.2915   1.3016   1.3571   1.3789   1.3863   1.4579   1.4657
     1.4859   1.5055   1.5379   1.5469   1.6288   1.6321   1.6508   1.6839
     1.7554   1.7725   1.8061   1.8292   1.8440   1.8648   1.8694   1.8960
     1.9023   2.0010   2.0407   2.1013   2.1661   2.1878   2.2110   2.2258
     2.2291   2.2930   2.3328   2.3335   2.3599   2.3965   2.4894   2.5242
     2.6111   2.7034   2.7307   2.7505   2.9376   2.9618   4.3842   5.4255
     5.5026   5.5679   5.9301   6.1489   6.3032   6.3079   6.5720   6.6139
     6.6414   6.7010   6.8447   6.9482   7.1161   7.3614   7.5179   7.6226
     7.6579   7.7275   7.9032   8.0159   8.0813   8.1515   8.2053   8.2418
     8.3314   8.3480   8.4912   8.5299   8.5835   8.6395   8.7729   8.8372
     8.8592   8.9009

          k = 0.2500 0.2618 0.0000 ( 69968 PWs)   bands (ev):

   -40.2970 -37.9860 -37.6884 -35.6139 -22.7497 -22.7413 -22.6520 -22.6470
   -22.5794 -22.4933 -22.4789 -22.3529 -20.3670 -20.3323 -20.2368 -18.7763
   -18.7378 -18.6821 -18.4229 -18.3417 -18.1028 -16.9438 -16.8627 -16.7109
   -15.6175 -15.2639 -15.1707 -14.9477 -14.8452 -14.7642 -14.7567 -14.7530
   -14.6564 -14.5641 -14.5488 -14.5309 -14.5035 -14.4429 -14.4277 -14.3433
   -14.1555 -14.0464 -14.0202 -13.9523 -13.9478 -13.9459 -13.9301 -13.8989
   -13.8685 -13.7952 -13.6810 -13.6328 -13.5641 -13.5522  -8.1330  -8.0270
    -8.0217  -7.9509  -7.8975  -7.8563  -7.8171  -7.8103  -7.8028  -7.7896
    -7.7749  -7.7285  -7.6998  -7.6485  -7.5999  -7.5811  -7.5722  -7.5569
    -7.5558  -7.5018  -7.4550  -7.4154  -7.2947  -7.2713  -3.2310  -2.9085
    -2.7302  -2.7007  -2.5605  -2.3869  -2.3059  -2.2976  -2.1941  -2.1214
    -2.1135  -2.0635  -2.0467  -2.0448  -2.0255  -1.9583  -1.9124  -1.9015
    -1.7997  -1.7662  -1.7591  -1.7456  -1.7101  -1.6035  -1.5600  -1.5542
    -1.4183  -1.4002  -1.3689  -1.3231  -1.3221  -1.3056  -1.3036  -1.2558
    -1.1977  -1.1053  -1.0910  -1.0456  -0.9872  -0.9141  -0.8632  -0.8148
    -0.7998  -0.7873  -0.7631  -0.7298  -0.6646  -0.6345  -0.6172  -0.5933
    -0.5685  -0.5309  -0.5001  -0.4357  -0.3739  -0.3494  -0.2992  -0.2793
    -0.2568  -0.2353  -0.2097  -0.1891  -0.1523  -0.0635  -0.0545  -0.0374
    -0.0167   0.0124   0.0599   0.0732   0.0767   0.0921   0.1035   0.1139
     0.1281   0.2189   0.2416   0.2465   0.2571   0.2697   0.2749   0.3584
     0.4148   0.4180   0.4193   0.4255   0.4604   0.4715   0.4863   0.4918
     0.5056   0.5163   0.5284   0.5465   0.6314   0.6738   0.6901   0.6978
     0.7440   0.7931   0.8438   0.9153   0.9802   0.9964   1.0207   1.1049
     1.1466   1.2116   1.2271   1.2334   1.2560   1.2783   1.2839   1.2957
     1.3129   1.3165   1.3366   1.3673   1.3721   1.3838   1.4072   1.4286
     1.5243   1.5482   1.5607   1.6070   1.6154   1.6630   1.6763   1.7509
     1.7524   1.7574   1.7911   1.8025   1.8161   1.8302   1.8559   1.8692
     1.9177   1.9396   1.9885   2.0034   2.0890   2.1982   2.2570   2.3592
     2.3791   2.4314   2.6453   2.7000   2.8344   2.8795   2.9594   2.9641
     2.9922   3.0450   3.0679   3.1326   3.2402   3.2698   4.5440   5.3943
     5.8420   5.8719   6.0342   6.1137   6.3965   6.5031   6.6734   6.7506
     6.7932   6.7983   6.9637   7.2552   7.3814   7.4923   7.5755   7.5903
     7.7142   7.8481   7.8929   7.9798   8.1643   8.1743   8.2190   8.3588
     8.4009   8.4946   8.5731   8.6420   8.7006   8.8371   8.9370   8.9539
     8.9644   9.0421

          k = 0.2500 0.5236 0.0000 ( 69928 PWs)   bands (ev):

   -40.2919 -37.9795 -37.6851 -35.6098 -22.6932 -22.6828 -22.6029 -22.5992
   -22.5202 -22.4443 -22.4226 -22.3049 -20.4336 -20.3575 -20.2189 -18.7994
   -18.7701 -18.6649 -18.3429 -18.3245 -18.3237 -16.8702 -16.8545 -16.8470
   -15.4892 -15.1591 -14.9460 -14.9390 -14.7179 -14.6580 -14.6416 -14.5870
   -14.5828 -14.5732 -14.5207 -14.4678 -14.4051 -14.4020 -14.3358 -14.2320
   -14.1727 -14.0711 -14.0554 -13.9615 -13.9248 -13.9189 -13.8939 -13.8867
   -13.8135 -13.8083 -13.7786 -13.6939 -13.6528 -13.6480  -8.2703  -8.2510
    -8.1264  -8.1008  -8.0172  -8.0003  -7.9807  -7.9793  -7.9358  -7.9172
    -7.8717  -7.8375  -7.8362  -7.7697  -7.7478  -7.7225  -7.6968  -7.6756
    -7.6388  -7.5719  -7.5666  -7.5135  -7.4291  -7.2672  -3.6154  -3.3030
    -3.1000  -2.9434  -2.7849  -2.7696  -2.5882  -2.5619  -2.4902  -2.4413
    -2.4197  -2.3474  -2.2824  -2.2022  -2.1924  -2.1494  -2.1429  -2.1232
    -2.1192  -2.1052  -2.0394  -2.0179  -2.0110  -1.9886  -1.9870  -1.9639
    -1.8305  -1.7610  -1.7407  -1.7093  -1.5128  -1.5058  -1.3885  -1.3608
    -1.3491  -1.2810  -1.2431  -1.1835  -1.1729  -1.1109  -1.0170  -0.9570
    -0.9538  -0.8974  -0.8313  -0.8123  -0.7956  -0.7381  -0.7244  -0.6859
    -0.6643  -0.6573  -0.6163  -0.6017  -0.5575  -0.5343  -0.5047  -0.4868
    -0.4833  -0.4643  -0.4115  -0.4023  -0.3990  -0.3877  -0.3179  -0.3078
    -0.2606  -0.2189  -0.1650  -0.1486  -0.0520  -0.0087   0.0719   0.0829
     0.1780   0.2076   0.2702   0.2967   0.3118   0.3454   0.3773   0.4484
     0.4579   0.4675   0.5049   0.5280   0.5931   0.6657   0.6736   0.7039
     0.7909   0.8416   0.8632   0.9234   0.9548   0.9782   0.9971   1.0695
     1.0820   1.1184   1.1621   1.1644   1.1805   1.2016   1.2127   1.2289
     1.2406   1.2454   1.3369   1.3414   1.3534   1.4099   1.4251   1.4615
     1.5076   1.5176   1.5282   1.5546   1.5565   1.5721   1.5912   1.5957
     1.6166   1.6343   1.6624   1.6861   1.7014   1.7224   1.7355   1.7954
     1.8116   1.8195   1.8710   1.8722   1.9420   1.9535   1.9657   2.0286
     2.0346   2.1077   2.1355   2.1471   2.2349   2.2609   2.3172   2.3688
     2.5636   2.6385   2.8785   2.8950   3.1715   3.1989   3.2140   3.2637
     3.5902   3.7487   3.7663   3.7947   3.9267   3.9722   4.9339   5.1799
     6.1174   6.2036   6.5901   6.6546   6.6918   6.7443   6.7881   6.8622
     6.9492   7.1243   7.1370   7.2762   7.3639   7.7187   7.9139   8.0834
     8.1190   8.2368   8.2723   8.3538   8.4526   8.4604   8.4955   8.5288
     8.5477   8.5699   8.7893   8.8996   8.9883   9.0226   9.0635   9.1653
     9.3693   9.3787

          k = 0.2500 0.7854 0.0000 ( 69960 PWs)   bands (ev):

   -40.2868 -37.9730 -37.6817 -35.6056 -22.6352 -22.6226 -22.5525 -22.5503
   -22.4592 -22.3942 -22.3647 -22.2557 -20.5388 -20.3480 -20.1925 -18.8610
   -18.7639 -18.6460 -18.5519 -18.3073 -18.2179 -16.9859 -16.8351 -16.7851
   -15.3320 -15.0418 -14.9751 -14.7607 -14.6635 -14.6513 -14.6129 -14.5728
   -14.5044 -14.4567 -14.4078 -14.3499 -14.3382 -14.2493 -14.2478 -14.1629
   -14.1148 -14.1139 -14.0408 -13.9500 -13.9176 -13.8795 -13.8692 -13.8559
   -13.8456 -13.8190 -13.8063 -13.7784 -13.7660 -13.7069  -8.5464  -8.5184
    -8.4041  -8.2535  -8.1853  -8.1412  -8.1228  -8.0476  -8.0436  -8.0246
    -7.9640  -7.9614  -7.9188  -7.9011  -7.8529  -7.7878  -7.7490  -7.7324
    -7.6932  -7.6211  -7.6197  -7.5553  -7.4781  -7.3037  -4.0589  -3.7843
    -3.4271  -3.3573  -3.2104  -3.1933  -3.0766  -2.9651  -2.9194  -2.9048
    -2.7523  -2.7278  -2.7058  -2.6961  -2.6027  -2.4574  -2.4484  -2.2919
    -2.2809  -2.1883  -2.1358  -2.1163  -2.0919  -2.0538  -2.0378  -2.0272
    -1.9877  -1.7834  -1.7723  -1.7025  -1.6497  -1.6048  -1.5867  -1.5724
    -1.4402  -1.4355  -1.3798  -1.2816  -1.2695  -1.2301  -1.1663  -1.1330
    -1.1066  -1.0165  -0.9881  -0.9558  -0.9183  -0.8877  -0.8740  -0.8572
    -0.8503  -0.8138  -0.7481  -0.7267  -0.6881  -0.6687  -0.6601  -0.6572
    -0.6327  -0.6256  -0.6157  -0.5976  -0.5897  -0.5618  -0.5136  -0.5093
    -0.4830  -0.3854  -0.1636  -0.1590  -0.1347  -0.0266   0.0325   0.0555
     0.1383   0.2842   0.2958   0.3371   0.3578   0.4288   0.4502   0.4744
     0.4898   0.5204   0.6659   0.7738   0.7960   0.8068   0.8583   0.9723
     0.9939   1.0219   1.0778   1.1152   1.1240   1.1396   1.1831   1.2140
     1.2406   1.2611   1.2844   1.3096   1.3318   1.3487   1.3726   1.4124
     1.4170   1.4406   1.4590   1.4736   1.5154   1.5781   1.6152   1.6187
     1.6361   1.6544   1.6619   1.6875   1.7066   1.7215   1.7522   1.7984
     1.8295   1.8414   1.8633   1.8782   1.9013   1.9210   1.9412   1.9528
     1.9848   2.0049   2.0405   2.0491   2.0933   2.1000   2.1366   2.2184
     2.2488   2.3693   2.3801   2.3904   2.5039   2.5380   2.5474   2.5641
     2.6194   2.6397   2.8307   2.8457   3.0232   3.0500   3.1607   3.2072
     3.9716   4.0931   4.1160   4.3113   4.4031   4.5021   5.0169   5.4251
     5.9333   6.3707   6.3993   6.6287   6.6753   6.7244   6.9520   7.0962
     7.1733   7.3772   7.4013   7.4713   7.8560   7.9948   8.0671   8.2767
     8.3115   8.3813   8.5378   8.6732   8.7026   8.8504   8.8658   9.0036
     9.0474   9.1030   9.2250   9.2640   9.3053   9.3888   9.4088   9.4635
     9.5236   9.5320

          k = 0.2500-1.0472 0.0000 ( 69940 PWs)   bands (ev):

   -40.2847 -37.9703 -37.6803 -35.6039 -22.6107 -22.5972 -22.5312 -22.5297
   -22.4334 -22.3731 -22.3403 -22.2349 -20.5818 -20.3441 -20.1809 -18.8862
   -18.7614 -18.6380 -18.6324 -18.3002 -18.1707 -17.0364 -16.8298 -16.7488
   -15.2402 -15.0354 -14.9593 -14.7794 -14.7133 -14.6755 -14.5442 -14.5304
   -14.4540 -14.4407 -14.4081 -14.2804 -14.2155 -14.1708 -14.1147 -14.1122
   -14.0884 -14.0869 -14.0664 -14.0040 -13.9456 -13.9370 -13.8806 -13.8477
   -13.8410 -13.8302 -13.8279 -13.8185 -13.7897 -13.6874  -8.6323  -8.6130
    -8.4902  -8.3361  -8.3329  -8.2961  -8.1997  -8.1398  -8.0302  -8.0254
    -7.9976  -7.9717  -7.9260  -7.9157  -7.8908  -7.8021  -7.7540  -7.7426
    -7.6836  -7.6613  -7.6340  -7.5613  -7.5173  -7.3288  -4.2410  -3.9829
    -3.5605  -3.5440  -3.3921  -3.3735  -3.2792  -3.1744  -3.0927  -3.0760
    -2.9861  -2.9537  -2.9368  -2.9282  -2.5945  -2.5647  -2.4741  -2.3015
    -2.3009  -2.2684  -2.1419  -2.1265  -2.1153  -2.0456  -2.0303  -1.9807
    -1.9773  -1.8888  -1.8230  -1.7746  -1.6966  -1.6832  -1.5737  -1.5628
    -1.5039  -1.4697  -1.4426  -1.3555  -1.3382  -1.2693  -1.2390  -1.1914
    -1.1335  -1.0871  -1.0733  -1.0298  -1.0189  -0.9649  -0.9384  -0.9227
    -0.9093  -0.8746  -0.8165  -0.7510  -0.7474  -0.7321  -0.7285  -0.7179
    -0.7033  -0.6875  -0.6799  -0.6618  -0.6250  -0.6060  -0.6029  -0.5983
    -0.4494  -0.3504  -0.1660  -0.1353  -0.1201  -0.0450   0.0082   0.0396
     0.1281   0.3001   0.3084   0.3273   0.3526   0.4351   0.4492   0.4628
     0.4854   0.5566   0.7234   0.8518   0.8734   0.8773   0.9388   1.0331
     1.0667   1.1007   1.1273   1.1410   1.1834   1.1938   1.2065   1.2454
     1.2749   1.2901   1.2923   1.3307   1.3429   1.3534   1.4525   1.4888
     1.4944   1.5102   1.5329   1.5667   1.5907   1.6059   1.6363   1.6629
     1.6755   1.7106   1.7157   1.7476   1.7678   1.8159   1.8733   1.9113
     1.9300   1.9396   1.9474   1.9598   1.9693   2.0117   2.0360   2.0416
     2.1169   2.1896   2.2494   2.2899   2.2916   2.3002   2.3128   2.3544
     2.3758   2.4019   2.4772   2.5265   2.5712   2.5753   2.5825   2.6428
     2.7057   2.7111   2.7148   2.8015   2.8287   2.8371   3.0393   3.0621
     3.9895   4.1632   4.2397   4.4639   4.5557   4.6453   4.9967   5.6918
     5.8728   6.2088   6.2437   6.4953   6.7413   6.8451   6.8497   7.0814
     7.2310   7.3439   7.5857   7.7060   7.9330   8.0509   8.1811   8.3643
     8.4076   8.4266   8.5094   8.7151   9.0007   9.0997   9.1742   9.2349
     9.2972   9.3160   9.3830   9.4042   9.4398   9.4442   9.4539   9.5104
     9.5849   9.5997

          k = 0.3750 0.0000 0.0000 ( 70026 PWs)   bands (ev):

   -40.2991 -37.9887 -37.6898 -35.6156 -22.7599 -22.7469 -22.6909 -22.6798
   -22.5836 -22.5339 -22.4917 -22.3832 -20.3692 -20.3032 -20.2301 -18.7823
   -18.7153 -18.6855 -18.4598 -18.3408 -17.9919 -16.9808 -16.8965 -16.6452
   -15.6341 -15.3591 -15.1793 -14.9258 -14.8716 -14.7910 -14.7735 -14.7620
   -14.7254 -14.6750 -14.6067 -14.5455 -14.5185 -14.4922 -14.4668 -14.4509
   -14.1698 -14.0310 -13.9719 -13.9656 -13.9538 -13.9517 -13.9499 -13.8774
   -13.8384 -13.7330 -13.6994 -13.6242 -13.5640 -13.5135  -8.1294  -8.0490
    -8.0312  -7.9289  -7.7992  -7.7966  -7.7482  -7.7446  -7.7293  -7.6687
    -7.6515  -7.6266  -7.6172  -7.5987  -7.5980  -7.5286  -7.5151  -7.5059
    -7.4785  -7.4204  -7.3840  -7.3337  -7.3294  -7.2299  -3.0321  -2.6587
    -2.5903  -2.5090  -2.4566  -2.3790  -2.2839  -2.1650  -2.1276  -2.0854
    -2.0791  -2.0603  -1.9898  -1.9834  -1.9828  -1.9636  -1.9259  -1.7827
    -1.6732  -1.6675  -1.6660  -1.5033  -1.4591  -1.3963  -1.3831  -1.3760
    -1.3725  -1.2545  -1.1599  -1.0911  -1.0277  -1.0041  -0.9592  -0.9133
    -0.9063  -0.8810  -0.8806  -0.8772  -0.8770  -0.8509  -0.8324  -0.7912
    -0.7902  -0.7673  -0.6971  -0.6255  -0.6252  -0.5921  -0.5703  -0.5301
    -0.4941  -0.4525  -0.4368  -0.4275  -0.3797  -0.3671  -0.2996  -0.2961
    -0.2611  -0.2486  -0.2452  -0.2260  -0.1816  -0.1679  -0.1434  -0.1122
    -0.0797  -0.0173   0.0234   0.0558   0.0643   0.0669   0.0753   0.0806
     0.1158   0.2004   0.2827   0.3149   0.3181   0.3292   0.3299   0.3320
     0.3449   0.4200   0.4336   0.4365   0.4753   0.5076   0.5111   0.5283
     0.5386   0.5628   0.5790   0.5890   0.6439   0.6476   0.6509   0.6625
     0.7280   0.7709   0.7890   0.8060   0.8402   0.9070   0.9247   0.9574
     0.9775   0.9892   1.0723   1.1112   1.1220   1.1411   1.1979   1.2568
     1.2792   1.2799   1.3241   1.3705   1.4010   1.4298   1.4346   1.4362
     1.4578   1.4641   1.5178   1.5535   1.5689   1.5844   1.6318   1.6360
     1.6517   1.7745   1.7859   1.8296   1.8455   1.9020   1.9163   1.9297
     1.9914   2.0169   2.0461   2.0584   2.1070   2.1823   2.2194   2.2586
     2.2696   2.2704   2.3116   2.3481   2.3844   2.4051   2.4927   2.5564
     2.6232   2.7193   2.7505   2.7989   2.8907   2.9394   4.5276   5.2475
     5.7077   5.7417   6.0581   6.2085   6.2674   6.3043   6.3145   6.4663
     6.6924   6.7548   6.8683   7.1930   7.2898   7.3341   7.5190   7.5749
     7.6926   7.7332   7.9108   7.9213   8.0162   8.0479   8.1890   8.2447
     8.2759   8.3625   8.4923   8.5590   8.5835   8.6976   8.7078   8.9718
     8.9871   9.0644

          k = 0.3750 0.2618 0.0000 ( 69986 PWs)   bands (ev):

   -40.2970 -37.9860 -37.6884 -35.6139 -22.7376 -22.7241 -22.6699 -22.6596
   -22.5604 -22.5130 -22.4694 -22.3630 -20.3653 -20.3324 -20.2369 -18.7796
   -18.7377 -18.6819 -18.4213 -18.3337 -18.1028 -16.9506 -16.8890 -16.7108
   -15.5868 -15.3159 -15.0765 -14.9203 -14.8221 -14.7336 -14.7315 -14.7228
   -14.6749 -14.6122 -14.5822 -14.5298 -14.5147 -14.4668 -14.4437 -14.4064
   -14.1311 -14.0378 -14.0252 -13.9533 -13.9507 -13.9445 -13.9346 -13.9018
   -13.8293 -13.7452 -13.7232 -13.6428 -13.5895 -13.5541  -8.1354  -8.0450
    -8.0316  -7.9763  -7.9242  -7.8772  -7.8467  -7.8404  -7.8351  -7.8098
    -7.8042  -7.7348  -7.7254  -7.6601  -7.5911  -7.5745  -7.5477  -7.5241
    -7.5165  -7.4808  -7.4027  -7.3751  -7.2522  -7.2270  -3.1211  -2.7998
    -2.7496  -2.5541  -2.4211  -2.4098  -2.3946  -2.3400  -2.2500  -2.1613
    -2.1049  -2.0835  -2.0465  -2.0195  -1.9842  -1.9725  -1.9656  -1.9261
    -1.8933  -1.7881  -1.7626  -1.7560  -1.7013  -1.6513  -1.5796  -1.5487
    -1.4548  -1.3828  -1.3380  -1.3203  -1.3153  -1.3103  -1.3088  -1.2075
    -1.1030  -1.0880  -1.0557  -1.0291  -0.9874  -0.9668  -0.8942  -0.8684
    -0.8244  -0.8205  -0.7737  -0.7557  -0.7154  -0.6805  -0.6378  -0.6004
    -0.5641  -0.5278  -0.5170  -0.4980  -0.4298  -0.4165  -0.3408  -0.2966
    -0.2814  -0.2208  -0.1811  -0.1713  -0.1462  -0.0841  -0.0689  -0.0335
    -0.0247   0.0079   0.0359   0.0518   0.0598   0.0640   0.0712   0.0905
     0.1404   0.1776   0.2189   0.2303   0.2510   0.2663   0.2850   0.3598
     0.4329   0.4448   0.4612   0.4630   0.4761   0.4848   0.4887   0.5014
     0.5201   0.5482   0.5676   0.5857   0.6158   0.6174   0.7014   0.7330
     0.7858   0.8123   0.8949   0.9413   0.9898   1.0226   1.0561   1.0779
     1.1024   1.1458   1.2046   1.2182   1.2399   1.2620   1.2825   1.3141
     1.3345   1.3421   1.3483   1.3565   1.3821   1.3908   1.4004   1.4236
     1.5191   1.5278   1.5704   1.6022   1.6065   1.6256   1.6648   1.6958
     1.7113   1.7130   1.7373   1.7933   1.8026   1.8372   1.8466   1.8839
     1.8963   1.9112   1.9748   2.0699   2.1226   2.1601   2.3439   2.3916
     2.4916   2.5903   2.7679   2.8045   2.8503   2.8585   2.9708   2.9784
     3.0151   3.0252   3.0853   3.1123   3.2057   3.2222   4.6387   5.2491
     6.0083   6.0309   6.0953   6.2113   6.3796   6.4720   6.5081   6.6511
     6.7498   6.8405   6.9707   7.3664   7.4824   7.5112   7.5871   7.7372
     7.7415   7.8275   7.9793   8.0232   8.1394   8.1516   8.2119   8.2981
     8.4025   8.4805   8.6154   8.6745   8.6968   8.7862   8.8037   8.9519
     8.9824   9.0621

          k = 0.3750 0.5236 0.0000 ( 69907 PWs)   bands (ev):

   -40.2919 -37.9795 -37.6851 -35.6098 -22.6828 -22.6680 -22.6182 -22.6101
   -22.5036 -22.4615 -22.4146 -22.3134 -20.4336 -20.3558 -20.2190 -18.7993
   -18.7733 -18.6647 -18.3427 -18.3223 -18.3168 -16.8758 -16.8721 -16.8536
   -15.4642 -15.2019 -14.9276 -14.8524 -14.7104 -14.6431 -14.6335 -14.5775
   -14.5728 -14.5657 -14.5341 -14.4542 -14.4231 -14.4059 -14.3866 -14.2861
   -14.1796 -14.0947 -14.0416 -13.9454 -13.9158 -13.9146 -13.8990 -13.8956
   -13.8063 -13.7817 -13.7774 -13.7035 -13.6631 -13.6520  -8.2684  -8.2424
    -8.1309  -8.1250  -8.1190  -8.0718  -7.9990  -7.9877  -7.9791  -7.9303
    -7.9119  -7.8182  -7.7824  -7.7355  -7.7255  -7.7206  -7.7057  -7.6310
    -7.5841  -7.5747  -7.5357  -7.4399  -7.4325  -7.2698  -3.4880  -3.1778
    -3.1579  -2.8654  -2.7973  -2.6446  -2.6096  -2.5536  -2.4925  -2.4652
    -2.4258  -2.3642  -2.3149  -2.2091  -2.1725  -2.1423  -2.1359  -2.1195
    -2.0668  -2.0570  -2.0467  -2.0320  -1.9905  -1.9832  -1.9713  -1.9364
    -1.9252  -1.9081  -1.6845  -1.6020  -1.5916  -1.4828  -1.4709  -1.4294
    -1.3754  -1.3070  -1.2702  -1.2244  -1.1501  -1.1274  -1.1219  -1.0505
    -1.0229  -1.0049  -0.9118  -0.8583  -0.7921  -0.7776  -0.7647  -0.7500
    -0.6542  -0.6484  -0.6104  -0.5822  -0.5721  -0.5403  -0.5344  -0.5026
    -0.4735  -0.4600  -0.3926  -0.3885  -0.3771  -0.3607  -0.3358  -0.2842
    -0.2768  -0.1965  -0.1607  -0.1563  -0.1069  -0.0555   0.0248   0.0637
     0.1663   0.1736   0.2583   0.2943   0.3398   0.3736   0.4111   0.4360
     0.5062   0.5360   0.5488   0.6143   0.6201   0.6567   0.6970   0.7053
     0.7316   0.8326   0.8982   0.9233   0.9705   1.0058   1.0112   1.0476
     1.0705   1.0927   1.1106   1.1514   1.1674   1.1716   1.1859   1.1941
     1.2094   1.2570   1.2703   1.3018   1.3979   1.4199   1.4625   1.4833
     1.5226   1.5340   1.5413   1.5556   1.5655   1.6106   1.6353   1.6486
     1.6590   1.6653   1.6733   1.7113   1.7223   1.7317   1.7461   1.7497
     1.7716   1.7945   1.8187   1.8767   1.9287   1.9518   1.9754   1.9975
     2.0378   2.0914   2.1139   2.1704   2.1726   2.2858   2.3013   2.4601
     2.8598   2.9779   3.1334   3.1433   3.1750   3.2027   3.2694   3.3475
     3.4232   3.6025   3.7416   3.7541   3.7969   3.8286   4.9554   5.1445
     6.2051   6.2285   6.5547   6.7029   6.7406   6.7575   6.7920   6.8617
     6.9531   7.1096   7.2197   7.3243   7.4566   7.7170   7.9045   8.0272
     8.1800   8.2628   8.2771   8.3385   8.3566   8.4196   8.4485   8.5222
     8.6353   8.7037   8.7869   8.9137   9.0631   9.0969   9.1170   9.2158
     9.2425   9.2695

          k = 0.3750 0.7854 0.0000 ( 69976 PWs)   bands (ev):

   -40.2868 -37.9730 -37.6817 -35.6057 -22.6265 -22.6104 -22.5651 -22.5594
   -22.4451 -22.4087 -22.3583 -22.2625 -20.5388 -20.3464 -20.1926 -18.8610
   -18.7671 -18.6458 -18.5518 -18.2998 -18.2166 -16.9859 -16.8572 -16.7903
   -15.3164 -15.0623 -14.9691 -14.7109 -14.6609 -14.6185 -14.6064 -14.5384
   -14.5383 -14.4373 -14.3898 -14.3495 -14.3423 -14.2609 -14.2265 -14.2241
   -14.1600 -14.1434 -14.0159 -13.9627 -13.8944 -13.8811 -13.8639 -13.8578
   -13.8501 -13.8312 -13.8140 -13.7773 -13.7558 -13.7191  -8.4651  -8.4401
    -8.3230  -8.1927  -8.1812  -8.1549  -8.1132  -8.0515  -8.0401  -8.0141
    -7.9568  -7.9545  -7.9253  -7.8983  -7.8809  -7.8177  -7.7286  -7.7258
    -7.7223  -7.7035  -7.6557  -7.5961  -7.5839  -7.3950  -3.9187  -3.6432
    -3.5207  -3.2932  -3.2333  -3.0914  -3.0771  -2.9733  -2.9614  -2.9376
    -2.7416  -2.7218  -2.7165  -2.7043  -2.5577  -2.3780  -2.3512  -2.3110
    -2.2166  -2.2106  -2.1581  -2.0976  -2.0717  -2.0321  -2.0214  -1.9923
    -1.9333  -1.8903  -1.8778  -1.8373  -1.6791  -1.6149  -1.5329  -1.5279
    -1.5020  -1.4724  -1.4491  -1.4064  -1.3198  -1.2944  -1.2710  -1.1987
    -1.1418  -1.0966  -1.0383  -1.0312  -1.0000  -0.8794  -0.8656  -0.8607
    -0.8352  -0.8032  -0.7758  -0.7255  -0.6855  -0.6673  -0.6426  -0.6285
    -0.6082  -0.5915  -0.5762  -0.5606  -0.5525  -0.5389  -0.5125  -0.5031
    -0.4793  -0.3829  -0.2093  -0.1843  -0.1482  -0.1229   0.0327   0.1032
     0.1969   0.2288   0.3409   0.3722   0.4261   0.4715   0.4780   0.5602
     0.5834   0.6000   0.6538   0.7108   0.7516   0.8136   0.8669   0.9425
     0.9710   1.0174   1.0544   1.0832   1.1110   1.1492   1.1634   1.1846
     1.2444   1.2634   1.2810   1.3321   1.3667   1.3730   1.3861   1.4369
     1.4485   1.4726   1.4970   1.5071   1.5416   1.5491   1.5751   1.6051
     1.6256   1.6419   1.6723   1.6852   1.7001   1.7079   1.7523   1.7751
     1.8177   1.8234   1.8427   1.8701   1.8979   1.9023   1.9177   1.9417
     1.9502   1.9836   2.0077   2.0278   2.0746   2.1012   2.1035   2.2190
     2.2758   2.3347   2.4173   2.4254   2.5031   2.5147   2.5298   2.5422
     2.9571   2.9635   3.0225   3.0287   3.0628   3.1469   3.3786   3.4307
     3.7640   3.9808   4.0708   4.0829   4.1449   4.2123   5.0252   5.4039
     6.1161   6.5043   6.6049   6.6313   6.6767   6.7676   6.9603   7.0834
     7.1295   7.1986   7.2957   7.4265   7.7511   8.0212   8.0612   8.2283
     8.2685   8.3239   8.4156   8.6743   8.7358   8.8319   8.8768   8.9668
     9.0003   9.1089   9.1419   9.3109   9.3878   9.4676   9.5282   9.5727
     9.6023   9.6493

          k = 0.3750-1.0472 0.0000 ( 69970 PWs)   bands (ev):

   -40.2847 -37.9703 -37.6803 -35.6039 -22.6027 -22.5861 -22.5426 -22.5380
   -22.4204 -22.3864 -22.3345 -22.2410 -20.5818 -20.3424 -20.1811 -18.8863
   -18.7645 -18.6378 -18.6323 -18.2928 -18.1695 -17.0365 -16.8512 -16.7537
   -15.2327 -15.0195 -14.9723 -14.7307 -14.7224 -14.6261 -14.5856 -14.4996
   -14.4664 -14.4453 -14.3650 -14.2786 -14.2179 -14.1709 -14.1569 -14.1519
   -14.0841 -14.0833 -14.0691 -13.9913 -13.9712 -13.9164 -13.9049 -13.8635
   -13.8384 -13.8313 -13.8283 -13.8220 -13.7686 -13.7112  -8.5009  -8.4905
    -8.3591  -8.2087  -8.1980  -8.1728  -8.1672  -8.1541  -8.1270  -8.0597
[...]
    -2.5644  -2.5624  -2.4290  -2.4192  -2.3526  -2.3460  -2.2991  -2.2225
    -2.1145  -2.0716  -2.0411  -2.0177  -1.9994  -1.9893  -1.9599  -1.8968
    -1.8742  -1.8338  -1.8019  -1.7599  -1.7530  -1.6970  -1.5903  -1.5457
    -1.3993  -1.3253  -1.3159  -1.3148  -1.3144  -1.3099  -1.2803  -1.2000
    -1.1428  -1.1358  -1.0504  -0.9788  -0.9656  -0.9651  -0.9316  -0.8659
    -0.8473  -0.8207  -0.8130  -0.7815  -0.7307  -0.6765  -0.6598  -0.6388
    -0.5638  -0.5185  -0.5027  -0.5015  -0.4304  -0.4269  -0.3783  -0.3322
    -0.2906  -0.2142  -0.1803  -0.1498  -0.1400  -0.0910  -0.0837  -0.0701
    -0.0075   0.0130   0.0267   0.0412   0.0441   0.0524   0.0529   0.0991
     0.1574   0.1578   0.2146   0.2226   0.2521   0.2622   0.2952   0.3585
     0.4372   0.4454   0.4710   0.4817   0.4857   0.4879   0.4994   0.5225
     0.5449   0.5458   0.5631   0.5748   0.5997   0.6442   0.7185   0.7471
     0.8123   0.8302   0.8409   0.9656   1.0290   1.0402   1.0568   1.0633
     1.1325   1.1355   1.1506   1.1645   1.2198   1.2699   1.2716   1.3316
     1.3489   1.3540   1.3581   1.3663   1.3920   1.4116   1.4517   1.4761
     1.4981   1.5199   1.5272   1.5305   1.5653   1.6468   1.6583   1.6688
     1.6798   1.6990   1.7283   1.7391   1.8340   1.8493   1.8653   1.8693
     1.8925   1.8995   1.9880   2.0854   2.1067   2.1670   2.3573   2.4096
     2.5928   2.6873   2.6940   2.8040   2.9062   2.9201   2.9751   2.9957
     3.0077   3.0520   3.0553   3.1422   3.1467   3.1889   4.6906   5.1804
     6.1126   6.2130   6.2300   6.2315   6.2396   6.2827   6.3775   6.7273
     6.8023   6.8807   6.9515   7.2263   7.5682   7.5922   7.7359   7.7976
     7.8433   7.8492   7.9587   7.9945   8.0181   8.0766   8.2566   8.2702
     8.3150   8.3611   8.6607   8.6942   8.6953   8.8164   8.9099   8.9349
     9.0538   9.0762

          k =-0.5000 0.5236 0.0000 ( 69914 PWs)   bands (ev):

   -40.2919 -37.9795 -37.6851 -35.6098 -22.6774 -22.6579 -22.6285 -22.6157
   -22.4881 -22.4771 -22.4108 -22.3173 -20.4336 -20.3552 -20.2191 -18.7993
   -18.7747 -18.6646 -18.3427 -18.3217 -18.3136 -16.8824 -16.8775 -16.8540
   -15.4517 -15.2206 -14.9211 -14.7966 -14.7212 -14.6368 -14.6299 -14.5753
   -14.5614 -14.5594 -14.5469 -14.4764 -14.4334 -14.4083 -14.3707 -14.3176
   -14.1816 -14.1074 -14.0369 -13.9382 -13.9140 -13.9061 -13.9053 -13.9008
   -13.8020 -13.7839 -13.7631 -13.7079 -13.6716 -13.6516  -8.2344  -8.2088
    -8.2053  -8.1750  -8.0897  -8.0832  -8.0639  -7.9994  -7.9786  -7.9113
    -7.9012  -7.8807  -7.7830  -7.7346  -7.7040  -7.6912  -7.6355  -7.6245
    -7.6061  -7.5576  -7.4950  -7.4823  -7.3819  -7.2929  -3.3945  -3.2507
    -3.0333  -2.9560  -2.6849  -2.6671  -2.5614  -2.5471  -2.5013  -2.4948
    -2.4284  -2.3996  -2.2782  -2.2380  -2.1385  -2.1298  -2.1229  -2.1100
    -2.1056  -2.0958  -2.0330  -2.0274  -1.9945  -1.9778  -1.9777  -1.9537
    -1.8630  -1.8435  -1.7880  -1.6817  -1.6261  -1.4572  -1.4124  -1.3836
    -1.3776  -1.3531  -1.3013  -1.2867  -1.1843  -1.1387  -1.1276  -1.1018
    -1.0355  -0.9799  -0.9197  -0.9161  -0.8856  -0.7762  -0.7741  -0.7481
    -0.6510  -0.6408  -0.5951  -0.5794  -0.5718  -0.5570  -0.5388  -0.5193
    -0.4676  -0.4340  -0.3860  -0.3826  -0.3621  -0.3508  -0.3281  -0.3135
    -0.2291  -0.2085  -0.1798  -0.1627  -0.1319  -0.1228   0.0441   0.0890
     0.1328   0.1785   0.2286   0.3175   0.3231   0.3996   0.4147   0.4548
     0.5501   0.5510   0.5750   0.6170   0.6457   0.6522   0.6911   0.6986
     0.7430   0.8470   0.8834   0.9283   0.9867   0.9890   1.0401   1.0476
     1.0765   1.0799   1.0833   1.1402   1.1427   1.1615   1.1647   1.1741
     1.1777   1.2559   1.2759   1.3143   1.3934   1.4403   1.4877   1.5031
     1.5294   1.5308   1.5477   1.5630   1.5647   1.5812   1.6195   1.6523
     1.6672   1.6781   1.6839   1.6919   1.7028   1.7246   1.7339   1.8034
     1.8160   1.8370   1.8591   1.8717   1.8925   1.9227   1.9910   2.0264
     2.0417   2.0497   2.0699   2.0932   2.1967   2.2951   2.3156   2.4853
     3.1281   3.1420   3.1719   3.1928   3.1983   3.2152   3.3207   3.3732
     3.4768   3.5466   3.5595   3.6534   3.7550   3.7816   4.9663   5.1283
     6.2146   6.2737   6.5369   6.7296   6.7573   6.7574   6.8050   6.8489
     6.9530   7.1042   7.2828   7.3249   7.5168   7.7146   7.8601   7.9815
     8.1375   8.2621   8.2834   8.3705   8.3861   8.4081   8.4723   8.4892
     8.7072   8.7788   8.8986   8.9430   8.9682   9.0557   9.1853   9.2177
     9.2222   9.3310

          k =-0.5000 0.7854 0.0000 ( 69938 PWs)   bands (ev):

   -40.2868 -37.9730 -37.6817 -35.6057 -22.6221 -22.6025 -22.5731 -22.5640
   -22.4325 -22.4214 -22.3553 -22.2656 -20.5388 -20.3457 -20.1927 -18.8610
   -18.7684 -18.6457 -18.5518 -18.2967 -18.2160 -16.9858 -16.8663 -16.7924
   -15.3092 -15.0711 -14.9669 -14.6693 -14.6601 -14.6435 -14.5826 -14.5745
   -14.4916 -14.4216 -14.3802 -14.3556 -14.3490 -14.2981 -14.2141 -14.2050
   -14.1972 -14.1642 -13.9879 -13.9870 -13.8817 -13.8741 -13.8594 -13.8583
   -13.8550 -13.8514 -13.8124 -13.7768 -13.7491 -13.7265  -8.3641  -8.3611
    -8.3225  -8.2565  -8.2156  -8.1852  -8.1252  -8.0892  -7.9950  -7.9584
    -7.9524  -7.9437  -7.8984  -7.8646  -7.8640  -7.8443  -7.7563  -7.7392
    -7.7318  -7.7003  -7.6966  -7.6388  -7.5853  -7.4709  -3.8249  -3.5951
    -3.5455  -3.3652  -3.1440  -3.1030  -3.0153  -2.9917  -2.9840  -2.9748
    -2.7295  -2.7286  -2.7148  -2.7121  -2.5134  -2.4092  -2.2984  -2.2442
    -2.2180  -2.1717  -2.1193  -2.1120  -2.1037  -2.0380  -2.0154  -1.9870
    -1.9816  -1.9402  -1.8394  -1.8339  -1.7127  -1.7076  -1.6129  -1.5865
    -1.5223  -1.4379  -1.4200  -1.3581  -1.3417  -1.3189  -1.3027  -1.2484
    -1.1491  -1.1216  -1.1197  -1.0393  -1.0095  -0.8604  -0.8600  -0.8549
    -0.8325  -0.8220  -0.7584  -0.7234  -0.6922  -0.6656  -0.6541  -0.6435
    -0.5945  -0.5630  -0.5572  -0.5508  -0.5429  -0.5206  -0.5105  -0.5088
    -0.4284  -0.3633  -0.2429  -0.2136  -0.2108  -0.1993   0.1128   0.1602
     0.1650   0.2880   0.2993   0.4003   0.4201   0.4878   0.5161   0.5534
     0.6198   0.6733   0.6861   0.7014   0.7549   0.7855   0.7958   0.9244
     0.9751   0.9945   1.0791   1.0964   1.1285   1.1486   1.1558   1.1855
     1.1938   1.2140   1.3037   1.3669   1.3671   1.3829   1.4069   1.4383
     1.4707   1.4850   1.4902   1.5245   1.5388   1.5469   1.5716   1.6430
     1.6478   1.6538   1.6554   1.6695   1.6925   1.7364   1.7566   1.7700
     1.7808   1.7899   1.8314   1.8594   1.8750   1.8914   1.8946   1.9202
     1.9352   1.9728   2.0252   2.0375   2.0635   2.0810   2.1181   2.2233
     2.2991   2.3143   2.4346   2.4555   2.4658   2.4750   2.4829   2.5444
     3.0081   3.0335   3.0513   3.0685   3.3776   3.4072   3.5645   3.6097
     3.7547   3.7689   3.7932   3.8657   4.0742   4.1016   5.0296   5.3943
     6.2322   6.5494   6.5698   6.6707   6.8494   6.8863   6.9207   6.9693
     6.9812   7.1658   7.2432   7.4443   7.6842   8.0392   8.0819   8.1831
     8.2568   8.3081   8.3683   8.6743   8.7983   8.8208   8.8944   8.9395
     8.9551   9.0063   9.1376   9.3269   9.3625   9.6188   9.6483   9.6522
     9.6717   9.7525

          k =-0.5000-1.0472 0.0000 ( 69948 PWs)   bands (ev):

   -40.2847 -37.9703 -37.6803 -35.6040 -22.5987 -22.5792 -22.5497 -22.5421
   -22.4090 -22.3979 -22.3318 -22.2438 -20.5818 -20.3418 -20.1812 -18.8863
   -18.7658 -18.6377 -18.6323 -18.2897 -18.1690 -17.0365 -16.8600 -16.7556
   -15.2296 -15.0090 -14.9816 -14.7263 -14.6908 -14.6272 -14.5671 -14.5624
   -14.4655 -14.3908 -14.3453 -14.2790 -14.2211 -14.1987 -14.1772 -14.1672
   -14.0816 -14.0709 -14.0591 -14.0193 -13.9392 -13.9370 -13.9011 -13.8767
   -13.8354 -13.8346 -13.8258 -13.8252 -13.7481 -13.7325  -8.3895  -8.3645
    -8.3138  -8.2577  -8.2177  -8.1801  -8.1290  -8.0966  -8.0411  -8.0394
    -8.0160  -8.0008  -7.9628  -7.9492  -7.9370  -7.9341  -7.8925  -7.8775
    -7.7810  -7.7419  -7.7218  -7.6943  -7.5884  -7.5652  -4.0008  -3.7469
    -3.7346  -3.5261  -3.3400  -3.2948  -3.2253  -3.1823  -3.1673  -3.1615
    -2.9623  -2.9616  -2.9488  -2.9438  -2.4344  -2.4095  -2.3721  -2.3042
    -2.2123  -2.1942  -2.1909  -2.1256  -2.1136  -2.0955  -2.0467  -2.0049
    -1.9642  -1.9114  -1.8897  -1.8615  -1.8129  -1.7620  -1.7064  -1.6362
    -1.5237  -1.4860  -1.4783  -1.4503  -1.4398  -1.3845  -1.3578  -1.2842
    -1.1666  -1.1535  -1.1273  -1.0882  -1.0633  -0.9647  -0.9512  -0.9329
    -0.9143  -0.9141  -0.7646  -0.7287  -0.7286  -0.7249  -0.7063  -0.6668
    -0.6379  -0.6348  -0.6301  -0.6232  -0.5979  -0.5425  -0.5337  -0.4929
    -0.4626  -0.3776  -0.2651  -0.2385  -0.2224  -0.2194   0.1620   0.1659
     0.1756   0.3359   0.3361   0.4317   0.4554   0.5043   0.5458   0.5851
     0.6365   0.6501   0.7118   0.7772   0.7778   0.8124   0.8992   0.9836
     1.0944   1.1293   1.1541   1.1938   1.2237   1.2274   1.2685   1.2997
     1.3069   1.3145   1.3490   1.3597   1.3993   1.4024   1.4135   1.4269
     1.4490   1.4690   1.4696   1.5281   1.5462   1.5466   1.6000   1.6256
     1.6400   1.6500   1.6816   1.7127   1.7841   1.7955   1.8092   1.8692
     1.9004   1.9060   1.9292   1.9303   1.9484   1.9717   1.9935   2.0198
     2.0919   2.1173   2.1466   2.1824   2.2693   2.2855   2.2872   2.2878
     2.2937   2.4729   2.5627   2.6344   2.6350   2.6440   2.6583   2.6724
     2.8060   2.8212   2.8537   2.8648   3.4242   3.4269   3.5794   3.6641
     3.7541   3.7632   3.8425   3.9269   4.1177   4.1896   5.0021   5.6426
     6.1751   6.4856   6.6710   6.7927   6.8147   6.8189   6.8537   6.8684
     7.0015   7.0904   7.2735   7.3082   7.7086   8.0391   8.1588   8.2800
     8.3511   8.3760   8.5214   8.6909   9.1023   9.2096   9.3076   9.3851
     9.4120   9.4581   9.5018   9.5162   9.5640   9.5964   9.6534   9.7997
     9.8262   9.8704

     the Fermi energy is     2.8152 ev

!    total energy              =   -3711.48995027 Ry
     Harris-Foulkes estimate   =   -3711.48995028 Ry
     estimated scf accuracy    <          5.0E-09 Ry

     The total energy is the sum of the following terms:

     one-electron contribution =  -62994.41100827 Ry
     hartree contribution      =   31802.98451286 Ry
     xc contribution           =   -1263.63861648 Ry
     ewald contribution        =   28743.58885609 Ry
     smearing contrib. (-TS)   =      -0.01369447 Ry

     convergence has been achieved in  37 iterations

     negative rho (up, down):  9.144E-02 0.000E+00

     Forces acting on atoms (cartesian axes, Ry/au):

     atom    1 type  4   force =    -0.00000753    0.00000000   -0.00011162
     atom    2 type  4   force =     0.00000753    0.00000000   -0.00011162
     atom    3 type  3   force =    -0.00001831    0.00000000   -0.00006423
     atom    4 type  3   force =     0.00001831    0.00000000   -0.00006423
     atom    5 type  4   force =    -0.00000370    0.00000000   -0.00001298
     atom    6 type  4   force =     0.00000370    0.00000000   -0.00001298
     atom    7 type  1   force =     0.00000000    0.00000000   -0.00008634
     atom    8 type  1   force =     0.00000000    0.00000000   -0.00007805
     atom    9 type  3   force =     0.00002194    0.00000000    0.00002909
     atom   10 type  3   force =    -0.00002194    0.00000000    0.00002909
     atom   11 type  4   force =     0.00000000    0.00000000    0.00005154
     atom   12 type  4   force =    -0.00001106    0.00000000   -0.00001648
     atom   13 type  4   force =     0.00001106    0.00000000   -0.00001648
     atom   14 type  4   force =     0.00000000    0.00000000    0.00006610
     atom   15 type  2   force =     0.00000000    0.00000000   -0.00026897
     atom   16 type  5   force =     0.00000000    0.00000000   -0.00039177
     atom   17 type  4   force =     0.00005283    0.00000000    0.00037698
     atom   18 type  4   force =    -0.00005283    0.00000000    0.00037698
     atom   19 type  4   force =     0.00000000    0.00000000    0.00041066
     atom   20 type  4   force =     0.00000000    0.00000000    0.00055720
     atom   21 type  3   force =    -0.00005134    0.00000000   -0.00062041
     atom   22 type  3   force =     0.00005134    0.00000000   -0.00062041
     atom   23 type  1   force =     0.00000000    0.00000000   -0.00111313
     atom   24 type  1   force =     0.00000000    0.00000000   -0.00118036
     atom   25 type  4   force =    -0.00011180    0.00000000    0.00256488
     atom   26 type  4   force =     0.00011180    0.00000000    0.00256488
     atom   27 type  4   force =     0.00012822    0.00000000    0.00325390
     atom   28 type  4   force =    -0.00012822    0.00000000    0.00325390
     atom   29 type  3   force =     0.00092056    0.00000000   -0.00588238
     atom   30 type  3   force =    -0.00092056    0.00000000   -0.00588238
     atom   31 type  4   force =     0.00033884    0.00000000    0.00770753
     atom   32 type  4   force =    -0.00033884    0.00000000    0.00770753
     atom   33 type  1   force =     0.00000000    0.00000000   -0.01758396
     atom   34 type  1   force =     0.00000000    0.00000000   -0.01231769
     atom   35 type  3   force =    -0.00303772    0.00000000    0.00304364
     atom   36 type  3   force =     0.00303772    0.00000000    0.00304364
     atom   37 type  4   force =     0.00000000    0.00000000    0.03994254
     atom   38 type  4   force =     0.00000000    0.00000000    0.06577230
     atom   39 type  4   force =     0.01585215    0.00000000    0.05422906
     atom   40 type  4   force =    -0.01585215    0.00000000    0.05422906
     atom   41 type  5   force =     0.00000000    0.00000000   -0.01451780
     atom   42 type  2   force =     0.00000000    0.00000000    0.00168099
     atom   43 type  4   force =     0.00000000    0.00000000   -0.03745651
     atom   44 type  4   force =    -0.00144770    0.00000000   -0.02893446
     atom   45 type  4   force =     0.00144770    0.00000000   -0.02893446
     atom   46 type  4   force =     0.00000000    0.00000000   -0.01266119
     atom   47 type  3   force =     0.00051726    0.00000000   -0.01827731
     atom   48 type  3   force =    -0.00051726    0.00000000   -0.01827731
     atom   49 type  1   force =     0.00000000    0.00000000   -0.01963676
     atom   50 type  1   force =     0.00000000    0.00000000   -0.02493019
     atom   51 type  4   force =     0.00051558    0.00000000   -0.00037551
     atom   52 type  4   force =    -0.00051558    0.00000000   -0.00037551
     atom   53 type  3   force =    -0.00012159    0.00000000   -0.00064906
     atom   54 type  3   force =     0.00012159    0.00000000   -0.00064906
     atom   55 type  4   force =     0.00001845    0.00000000    0.00061006
     atom   56 type  4   force =    -0.00001845    0.00000000    0.00061006

     Total force =     0.134781     Total SCF correction =     0.000338


     Computing stress (Cartesian axis) and pressure


     negative rho (up, down):  9.144E-02 0.000E+00
          total   stress  (Ry/bohr**3)                   (kbar)     P=       -9.34
  -0.00001373   0.00000000   0.00000000           -2.02        0.00        0.00
   0.00000000   0.00000156   0.00000000            0.00        0.23        0.00
   0.00000000   0.00000000  -0.00017834            0.00        0.00      -26.23

 
     init_run     :     24.84s CPU     25.75s WALL (       1 calls)
     electrons    :   1746.24s CPU   1840.31s WALL (       1 calls)
     forces       :     11.44s CPU     12.10s WALL (       1 calls)
     stress       :    117.81s CPU    119.54s WALL (       1 calls)

     Called by init_run:
     wfcinit      :     19.91s CPU     20.22s WALL (       1 calls)
     potinit      :      0.98s CPU      1.00s WALL (       1 calls)
     hinit0       :      1.90s CPU      1.93s WALL (       1 calls)

     Called by electrons:
     c_bands      :   1430.97s CPU   1482.32s WALL (      37 calls)
     sum_band     :    231.18s CPU    255.20s WALL (      37 calls)
     v_of_rho     :      5.41s CPU      5.49s WALL (      38 calls)
     newd         :     42.81s CPU     61.56s WALL (      38 calls)
     mix_rho      :     36.25s CPU     36.57s WALL (      37 calls)

     Called by c_bands:
     init_us_2    :      8.51s CPU      8.56s WALL (    1925 calls)
     cegterg      :   1343.93s CPU   1380.14s WALL (     925 calls)

     Called by sum_band:
     sum_band:bec :      1.13s CPU      1.14s WALL (     925 calls)
     addusdens    :     33.10s CPU     54.92s WALL (      37 calls)

     Called by *egterg:
     h_psi        :    644.20s CPU    657.95s WALL (    4107 calls)
     s_psi        :    101.65s CPU    102.25s WALL (    4107 calls)
     g_psi        :      1.50s CPU      1.52s WALL (    3157 calls)
     cdiaghg      :    270.55s CPU    271.63s WALL (    4082 calls)

     Called by h_psi:
     h_psi:calbec :    119.66s CPU    120.11s WALL (    4107 calls)
     vloc_psi     :    419.32s CPU    425.87s WALL (    4107 calls)
     add_vuspsi   :    102.23s CPU    102.72s WALL (    4107 calls)

     General routines
     calbec       :    211.75s CPU    212.50s WALL (    5157 calls)
     fft          :      5.61s CPU      5.66s WALL (     517 calls)
     ffts         :     18.59s CPU     18.76s WALL (   21079 calls)
     fftw         :    481.33s CPU    488.65s WALL ( 1308266 calls)
     interpolate  :      0.46s CPU      0.46s WALL (      38 calls)
 
     Parallel routines
     fft_scatt_xy :     62.07s CPU     63.02s WALL ( 1329862 calls)
     fft_scatt_yz :    298.51s CPU    303.00s WALL ( 1329862 calls)
 
     PWSCF        :  31m41.59s CPU  33m19.04s WALL

 
   This run was terminated on:   0:30:50  28May2021            

=------------------------------------------------------------------------------=
   JOB DONE.
=------------------------------------------------------------------------------=
[1622176250.660368] [holy7c12108:183088:0]          mpool.c:43   UCX  WARN  object 0x3c7fa40 was not returned to mpool ucp_requests
[1622176250.704179] [holy7c12412:13033:0]          mpool.c:43   UCX  WARN  object 0x33c6600 was not returned to mpool ucp_requests
[1622176250.722265] [holy7c12412:13047:0]          mpool.c:43   UCX  WARN  object 0x3800740 was not returned to mpool ucp_requests
[1622176250.725223] [holy7c12412:13039:0]          mpool.c:43   UCX  WARN  object 0x43cd7c0 was not returned to mpool ucp_requests
[1622176250.725249] [holy7c12412:13039:0]          mpool.c:43   UCX  WARN  object 0x43cd980 was not returned to mpool ucp_requests
[1622176250.727436] [holy7c12412:13049:0]          mpool.c:43   UCX  WARN  object 0x4111480 was not returned to mpool ucp_requests
[1622176250.727470] [holy7c12412:13049:0]          mpool.c:43   UCX  WARN  object 0x41119c0 was not returned to mpool ucp_requests
[1622176250.727474] [holy7c12412:13049:0]          mpool.c:43   UCX  WARN  object 0x4111d40 was not returned to mpool ucp_requests
[1622176250.704490] [holy7c12412:13037:0]          mpool.c:43   UCX  WARN  object 0x4452100 was not returned to mpool ucp_requests
[1622176250.716208] [holy7c12412:13042:0]          mpool.c:43   UCX  WARN  object 0x4464700 was not returned to mpool ucp_requests
[1622176250.716691] [holy7c12412:13052:0]          mpool.c:43   UCX  WARN  object 0x3601100 was not returned to mpool ucp_requests
[1622176250.716978] [holy7c12412:13051:0]          mpool.c:43   UCX  WARN  object 0x3fba3c0 was not returned to mpool ucp_requests
[1622176250.726257] [holy7c12412:13034:0]          mpool.c:43   UCX  WARN  object 0x315eb80 was not returned to mpool ucp_requests
[1622176250.726283] [holy7c12412:13034:0]          mpool.c:43   UCX  WARN  object 0x315ef00 was not returned to mpool ucp_requests
[1622176250.730457] [holy7c12412:13044:0]          mpool.c:43   UCX  WARN  object 0x2eb1740 was not returned to mpool ucp_requests
[1622176250.730483] [holy7c12412:13044:0]          mpool.c:43   UCX  WARN  object 0x2eb1900 was not returned to mpool ucp_requests
[1622176250.727094] [holy7c12412:13046:0]          mpool.c:43   UCX  WARN  object 0x43c80c0 was not returned to mpool ucp_requests
