
     Program PWSCF v.6.5 starts on 25May2021 at 16:37:39 

     This program is part of the open-source Quantum ESPRESSO suite
     for quantum simulation of materials; please cite
         "P. Giannozzi et al., J. Phys.:Condens. Matter 21 395502 (2009);
         "P. Giannozzi et al., J. Phys.:Condens. Matter 29 465901 (2017);
          URL http://www.quantum-espresso.org", 
     in publications or presentations arising from this work. More details at
     http://www.quantum-espresso.org/quote

     Parallel version (MPI), running on    32 processors

     MPI processes distributed on    23 nodes
     R & G space division:  proc/nbgrp/npool/nimage =      32
     Reading input from YCBCO50_212_BaO_cleave_2.25_sep.pwi
Warning: card &IONS ignored
Warning: card     ION_DYNAMICS = 'BFGS' ignored
Warning: card / ignored
Warning: card &CELL ignored
Warning: card     CELL_DYNAMICS = 'BFGS' ignored
Warning: card     PRESS_CONV_THR = 5 ignored
Warning: card / ignored

     Current dimensions of program PWSCF are:
     Max number of different atomic species (ntypx) = 10
     Max number of k-points (npk) =  40000
     Max angular momentum in pseudopotentials (lmaxx) =  3

     Subspace diagonalization in iterative solution of the eigenvalue problem:
     one sub-group per band group will be used
     scalapack distributed-memory algorithm (size of sub-group:  5*  5 procs)

     Message from routine setup:
     using ibrav=0 with symmetry is DISCOURAGED, use correct ibrav instead
 
     Parallelization info
     --------------------
     sticks:   dense  smooth     PW     G-vecs:    dense   smooth      PW
     Min         188      62     17                93398    17968    2679
     Max         189      63     18                93428    18017    2722
     Sum        6019    2003    565              2989253   575753   86561
 


     bravais-lattice index     =            0
     lattice parameter (alat)  =      14.8133  a.u.
     unit-cell volume          =    9162.7262 (a.u.)^3
     number of atoms/cell      =           56
     number of atomic types    =            5
     number of electrons       =       456.00
     number of Kohn-Sham states=          274
     kinetic-energy cutoff     =      60.0000  Ry
     charge density cutoff     =     720.0000  Ry
     convergence threshold     =      1.0E-08
     mixing beta               =       0.5000
     number of iterations used =           10  local-TF  mixing
     Exchange-correlation= SLA PW PBE PBE
                           (   1   4   3   4   0   0   0)

     celldm(1)=  14.813271  celldm(2)=   0.000000  celldm(3)=   0.000000
     celldm(4)=   0.000000  celldm(5)=   0.000000  celldm(6)=   0.000000

     crystal axes: (cart. coord. in units of alat)
               a(1) = (   1.000000   0.000000   0.000000 )  
               a(2) = (   0.000000   0.477453   0.000000 )  
               a(3) = (   0.000000   0.000000   5.903933 )  

     reciprocal axes: (cart. coord. in units 2 pi/alat)
               b(1) = (  1.000000  0.000000  0.000000 )  
               b(2) = (  0.000000  2.094448  0.000000 )  
               b(3) = (  0.000000  0.000000  0.169379 )  


     PseudoPot. # 1 for Ba read from file:
     ./pseudo/Ba.pbe-nsp-van.UPF
     MD5 check sum: 2b9c31dd849566dd297d80989662b7a0
     Pseudo is Ultrasoft + core correction, Zval = 10.0
     Generated by new atomic code, or converted to UPF format
     Using radial grid of  907 points,  6 beta functions with: 
                l(1) =   0
                l(2) =   0
                l(3) =   1
                l(4) =   1
                l(5) =   2
                l(6) =   2
     Q(r) pseudized with  6 coefficients,  rinner =    1.200   1.200   1.200
                                                       1.200   1.200

     PseudoPot. # 2 for Ca read from file:
     ./pseudo/Ca.pbe-nsp-van.UPF
     MD5 check sum: 6471098428ff4fa451746d08035ff179
     Pseudo is Ultrasoft + core correction, Zval = 10.0
     Generated by new atomic code, or converted to UPF format
     Using radial grid of  845 points,  6 beta functions with: 
                l(1) =   0
                l(2) =   0
                l(3) =   1
                l(4) =   1
                l(5) =   2
                l(6) =   2
     Q(r) pseudized with  6 coefficients,  rinner =    1.200   1.200   1.200
                                                       1.200   1.200

     PseudoPot. # 3 for Cu read from file:
     ./pseudo/Cu.pbe-n-van_ak.UPF
     MD5 check sum: 34e3282627ffb533726feb647e090d62
     Pseudo is Ultrasoft + core correction, Zval = 11.0
     Generated by new atomic code, or converted to UPF format
     Using radial grid of  867 points,  6 beta functions with: 
                l(1) =   0
                l(2) =   0
                l(3) =   1
                l(4) =   1
                l(5) =   2
                l(6) =   2
     Q(r) pseudized with  8 coefficients,  rinner =    1.400   1.400   1.400
                                                       1.400   1.400

     PseudoPot. # 4 for O  read from file:
     ./pseudo/O.pbe-van_ak.UPF
     MD5 check sum: 783ce7fe4c79b6a4916957118fed0856
     Pseudo is Ultrasoft, Zval =  6.0
     Generated by new atomic code, or converted to UPF format
     Using radial grid of  737 points,  4 beta functions with: 
                l(1) =   0
                l(2) =   0
                l(3) =   1
                l(4) =   1
     Q(r) pseudized with  8 coefficients,  rinner =    0.800   0.800   0.800


     PseudoPot. # 5 for Y  read from file:
     ./pseudo/Y.pbe-nsp-van.UPF
     MD5 check sum: 4412fed3ab108fed87a1b7d6a69a4a38
     Pseudo is Ultrasoft + core correction, Zval = 11.0
     Generated by new atomic code, or converted to UPF format
     Using radial grid of  885 points,  6 beta functions with: 
                l(1) =   0
                l(2) =   0
                l(3) =   1
                l(4) =   1
                l(5) =   2
                l(6) =   2
     Q(r) pseudized with  6 coefficients,  rinner =    1.200   1.200   1.200
                                                       1.200   1.200

     atomic species   valence    mass     pseudopotential
        Ba            10.00   137.32700     Ba( 1.00)
        Ca            10.00    40.07800     Ca( 1.00)
        Cu            11.00    63.54600     Cu( 1.00)
        O              6.00    15.99900     O ( 1.00)
        Y             11.00    88.90584     Y ( 1.00)

      4 Sym. Ops. (no inversion) found ( 2 have fractional translation)



   Cartesian axes

     site n.     atom                  positions (alat units)
         1           O   tau(   1) = (  -0.0008343   0.2387265  -0.0222443  )
         2           O   tau(   2) = (   0.5008340   0.2387265  -0.0222443  )
         3           Cu  tau(   3) = (   0.5017257   0.0000000   0.0109608  )
         4           Cu  tau(   4) = (  -0.0017260   0.0000000   0.0109608  )
         5           O   tau(   5) = (  -0.0028933   0.0000000   0.2506504  )
         6           O   tau(   6) = (   0.5028929   0.0000000   0.2506504  )
         7           Ba  tau(   7) = (   0.7499995   0.2387265   0.2749435  )
         8           Ba  tau(   8) = (   0.2499998   0.2387265   0.2755214  )
         9           Cu  tau(   9) = (   0.4980963   0.0000000   0.5208446  )
        10           Cu  tau(  10) = (   0.0019033   0.0000000   0.5208446  )
        11           O   tau(  11) = (   0.2499998   0.0000000   0.5341884  )
        12           O   tau(  12) = (   0.5083351   0.2387265   0.5569851  )
        13           O   tau(  13) = (  -0.0083354   0.2387265   0.5569851  )
        14           O   tau(  14) = (   0.7499995   0.0000000   0.5573831  )
        15           Ca  tau(  15) = (   0.2499998   0.2387265   0.7436937  )
        16           Y   tau(  16) = (   0.7499995   0.2387265   0.7469544  )
        17           O   tau(  17) = (  -0.0063798   0.2387265   0.9248530  )
        18           O   tau(  18) = (   0.5063794   0.2387265   0.9248530  )
        19           O   tau(  19) = (   0.7499995   0.0000000   0.9338544  )
        20           O   tau(  20) = (   0.2499998   0.0000000   0.9461329  )
        21           Cu  tau(  21) = (   0.0015717   0.0000000   0.9686860  )
        22           Cu  tau(  22) = (   0.4984280   0.0000000   0.9686860  )
        23           Ba  tau(  23) = (   0.2499998   0.2387265   1.2085224  )
        24           Ba  tau(  24) = (   0.7499995   0.2387265   1.2233294  )
        25           O   tau(  25) = (   0.0063772   0.0000000   1.2547537  )
        26           O   tau(  26) = (   0.4936224   0.0000000   1.2547537  )
        27           O   tau(  27) = (   0.5384045   0.2387265   1.4952521  )
        28           O   tau(  28) = (  -0.0384049   0.2387265   1.4952521  )
        29           Cu  tau(  29) = (   0.5006120   0.0000000   1.4952546  )
        30           Cu  tau(  30) = (  -0.0006123   0.0000000   1.4952546  )
        31           O   tau(  31) = (   0.4936212   0.0000000   1.7357531  )
        32           O   tau(  32) = (   0.0063785   0.0000000   1.7357531  )
        33           Ba  tau(  33) = (   0.7499995   0.2387265   1.7671824  )
        34           Ba  tau(  34) = (   0.2499998   0.2387265   1.7819920  )
        35           Cu  tau(  35) = (   0.4984280   0.0000000   2.3088553  )
        36           Cu  tau(  36) = (   0.0015717   0.0000000   2.3088553  )
        37           O   tau(  37) = (   0.2499998   0.0000000   2.3314135  )
        38           O   tau(  38) = (   0.7499995   0.0000000   2.3436831  )
        39           O   tau(  39) = (   0.5063781   0.2387265   2.3526883  )
        40           O   tau(  40) = (  -0.0063785   0.2387265   2.3526883  )
        41           Y   tau(  41) = (   0.7499995   0.2387265   2.5305818  )
        42           Ca  tau(  42) = (   0.2499998   0.2387265   2.5338515  )
        43           O   tau(  43) = (   0.7499995   0.0000000   2.7201493  )
        44           O   tau(  44) = (  -0.0083354   0.2387265   2.7205511  )
        45           O   tau(  45) = (   0.5083351   0.2387265   2.7205511  )
        46           O   tau(  46) = (   0.2499998   0.0000000   2.7433491  )
        47           Cu  tau(  47) = (   0.0019059   0.0000000   2.7566827  )
        48           Cu  tau(  48) = (   0.4980938   0.0000000   2.7566827  )
        49           Ba  tau(  49) = (   0.2499998   0.2387265   3.0020224  )
        50           Ba  tau(  50) = (   0.7499995   0.2387265   3.0025646  )
        51           O   tau(  51) = (  -0.0028895   0.0000000   3.0268718  )
        52           O   tau(  52) = (   0.5028891   0.0000000   3.0268718  )
        53           Cu  tau(  53) = (   0.5017844   0.0000000   3.2665563  )
        54           Cu  tau(  54) = (  -0.0017847   0.0000000   3.2665563  )
        55           O   tau(  55) = (   0.5008990   0.2387265   3.2997627  )
        56           O   tau(  56) = (  -0.0008994   0.2387265   3.2997627  )

     number of k points=    25  Gaussian smearing, width (Ry)=  0.0100
                       cart. coord. in units 2pi/alat
        k(    1) = (   0.0000000   0.0000000   0.0000000), wk =   0.0312500
        k(    2) = (   0.0000000   0.2618060   0.0000000), wk =   0.0625000
        k(    3) = (   0.0000000   0.5236121   0.0000000), wk =   0.0625000
        k(    4) = (   0.0000000   0.7854181   0.0000000), wk =   0.0625000
        k(    5) = (   0.0000000  -1.0472241   0.0000000), wk =   0.0312500
        k(    6) = (   0.1250000   0.0000000   0.0000000), wk =   0.0625000
        k(    7) = (   0.1250000   0.2618060   0.0000000), wk =   0.1250000
        k(    8) = (   0.1250000   0.5236121   0.0000000), wk =   0.1250000
        k(    9) = (   0.1250000   0.7854181   0.0000000), wk =   0.1250000
        k(   10) = (   0.1250000  -1.0472241   0.0000000), wk =   0.0625000
        k(   11) = (   0.2500000   0.0000000   0.0000000), wk =   0.0625000
        k(   12) = (   0.2500000   0.2618060   0.0000000), wk =   0.1250000
        k(   13) = (   0.2500000   0.5236121   0.0000000), wk =   0.1250000
        k(   14) = (   0.2500000   0.7854181   0.0000000), wk =   0.1250000
        k(   15) = (   0.2500000  -1.0472241   0.0000000), wk =   0.0625000
        k(   16) = (   0.3750000   0.0000000   0.0000000), wk =   0.0625000
        k(   17) = (   0.3750000   0.2618060   0.0000000), wk =   0.1250000
        k(   18) = (   0.3750000   0.5236121   0.0000000), wk =   0.1250000
        k(   19) = (   0.3750000   0.7854181   0.0000000), wk =   0.1250000
        k(   20) = (   0.3750000  -1.0472241   0.0000000), wk =   0.0625000
        k(   21) = (  -0.5000000   0.0000000   0.0000000), wk =   0.0312500
        k(   22) = (  -0.5000000   0.2618060   0.0000000), wk =   0.0625000
        k(   23) = (  -0.5000000   0.5236121   0.0000000), wk =   0.0625000
        k(   24) = (  -0.5000000   0.7854181   0.0000000), wk =   0.0625000
        k(   25) = (  -0.5000000  -1.0472241   0.0000000), wk =   0.0312500

     Dense  grid:  2989253 G-vectors     FFT dimensions: ( 128,  64, 750)

     Smooth grid:   575753 G-vectors     FFT dimensions: (  80,  36, 432)

     Estimated max dynamical RAM per process >     865.48 MB

     Estimated total dynamical RAM >      27.05 GB

     Initial potential from superposition of free atoms

     starting charge  455.69457, renormalised to  456.00000

     negative rho (up, down):  9.322E-02 0.000E+00
     Starting wfcs are  396 randomized atomic wfcs

     total cpu time spent up to now is       26.4 secs

     Self-consistent Calculation

     iteration #  1     ecut=    60.00 Ry     beta= 0.50
     Davidson diagonalization with overlap
     ethr =  1.00E-02,  avg # of iterations =  2.0

     negative rho (up, down):  8.631E-02 0.000E+00

     total cpu time spent up to now is       71.9 secs

     total energy              =   -3708.27716013 Ry
     Harris-Foulkes estimate   =   -3716.57212390 Ry
     estimated scf accuracy    <      33.07603214 Ry

     iteration #  2     ecut=    60.00 Ry     beta= 0.50
     Davidson diagonalization with overlap
     ethr =  7.25E-03,  avg # of iterations =  2.0

     negative rho (up, down):  8.613E-02 0.000E+00

     total cpu time spent up to now is      117.0 secs

     total energy              =   -3711.05387470 Ry
     Harris-Foulkes estimate   =   -3712.44507460 Ry
     estimated scf accuracy    <       8.22516975 Ry

     iteration #  3     ecut=    60.00 Ry     beta= 0.50
     Davidson diagonalization with overlap
     ethr =  1.80E-03,  avg # of iterations =  1.8

     negative rho (up, down):  8.658E-02 0.000E+00

     total cpu time spent up to now is      160.4 secs

     total energy              =   -3711.67832129 Ry
     Harris-Foulkes estimate   =   -3711.99347552 Ry
     estimated scf accuracy    <       8.01996647 Ry

     iteration #  4     ecut=    60.00 Ry     beta= 0.50
     Davidson diagonalization with overlap
     ethr =  1.76E-03,  avg # of iterations =  1.0

     negative rho (up, down):  8.720E-02 0.000E+00

     total cpu time spent up to now is      201.4 secs

     total energy              =   -3711.73293420 Ry
     Harris-Foulkes estimate   =   -3711.82575765 Ry
     estimated scf accuracy    <       3.58323683 Ry

     iteration #  5     ecut=    60.00 Ry     beta= 0.50
     Davidson diagonalization with overlap
     ethr =  7.86E-04,  avg # of iterations =  1.0

     negative rho (up, down):  8.868E-02 0.000E+00

     total cpu time spent up to now is      242.1 secs

     total energy              =   -3711.63541423 Ry
     Harris-Foulkes estimate   =   -3711.79985630 Ry
     estimated scf accuracy    <       3.82357763 Ry

     iteration #  6     ecut=    60.00 Ry     beta= 0.50
     Davidson diagonalization with overlap
     ethr =  7.86E-04,  avg # of iterations =  1.0

     negative rho (up, down):  8.958E-02 0.000E+00

     total cpu time spent up to now is      282.9 secs

     total energy              =   -3711.65470895 Ry
     Harris-Foulkes estimate   =   -3711.69482612 Ry
     estimated scf accuracy    <       1.20175725 Ry

     iteration #  7     ecut=    60.00 Ry     beta= 0.50
     Davidson diagonalization with overlap
     ethr =  2.64E-04,  avg # of iterations =  8.1

     negative rho (up, down):  9.036E-02 0.000E+00

     total cpu time spent up to now is      345.0 secs

     total energy              =   -3711.65348200 Ry
     Harris-Foulkes estimate   =   -3711.67534622 Ry
     estimated scf accuracy    <       0.59872021 Ry

     iteration #  8     ecut=    60.00 Ry     beta= 0.50
     Davidson diagonalization with overlap
     ethr =  1.31E-04,  avg # of iterations =  5.2

     negative rho (up, down):  9.082E-02 0.000E+00

     total cpu time spent up to now is      398.1 secs

     total energy              =   -3711.65277963 Ry
     Harris-Foulkes estimate   =   -3711.66510104 Ry
     estimated scf accuracy    <       0.56155270 Ry

     iteration #  9     ecut=    60.00 Ry     beta= 0.50
     Davidson diagonalization with overlap
     ethr =  1.23E-04,  avg # of iterations =  2.0

     negative rho (up, down):  9.085E-02 0.000E+00

     total cpu time spent up to now is      441.1 secs

     total energy              =   -3711.63968943 Ry
     Harris-Foulkes estimate   =   -3711.65775388 Ry
     estimated scf accuracy    <       0.31485186 Ry

     iteration # 10     ecut=    60.00 Ry     beta= 0.50
     Davidson diagonalization with overlap
     ethr =  6.90E-05,  avg # of iterations =  8.0

     negative rho (up, down):  9.055E-02 0.000E+00

     total cpu time spent up to now is      501.8 secs

     total energy              =   -3711.63613736 Ry
     Harris-Foulkes estimate   =   -3711.64470116 Ry
     estimated scf accuracy    <       0.13939666 Ry

     iteration # 11     ecut=    60.00 Ry     beta= 0.50
     Davidson diagonalization with overlap
     ethr =  3.06E-05,  avg # of iterations =  9.5

     negative rho (up, down):  9.011E-02 0.000E+00

     total cpu time spent up to now is      568.8 secs

     total energy              =   -3711.63346161 Ry
     Harris-Foulkes estimate   =   -3711.63834560 Ry
     estimated scf accuracy    <       0.04700784 Ry

     iteration # 12     ecut=    60.00 Ry     beta= 0.50
     Davidson diagonalization with overlap
     ethr =  1.03E-05,  avg # of iterations = 10.2

     negative rho (up, down):  8.979E-02 0.000E+00

     total cpu time spent up to now is      639.1 secs

     total energy              =   -3711.63339939 Ry
     Harris-Foulkes estimate   =   -3711.63481687 Ry
     estimated scf accuracy    <       0.04016083 Ry

     iteration # 13     ecut=    60.00 Ry     beta= 0.50
     Davidson diagonalization with overlap
     ethr =  8.81E-06,  avg # of iterations =  2.2

     negative rho (up, down):  8.952E-02 0.000E+00

     total cpu time spent up to now is      683.0 secs

     total energy              =   -3711.63168064 Ry
     Harris-Foulkes estimate   =   -3711.63371730 Ry
     estimated scf accuracy    <       0.04992002 Ry

     iteration # 14     ecut=    60.00 Ry     beta= 0.50
     Davidson diagonalization with overlap
     ethr =  8.81E-06,  avg # of iterations =  3.5

     negative rho (up, down):  8.995E-02 0.000E+00

     total cpu time spent up to now is      730.7 secs

     total energy              =   -3711.63047743 Ry
     Harris-Foulkes estimate   =   -3711.63198543 Ry
     estimated scf accuracy    <       0.05238447 Ry

     iteration # 15     ecut=    60.00 Ry     beta= 0.50
     Davidson diagonalization with overlap
     ethr =  8.81E-06,  avg # of iterations =  2.7

     negative rho (up, down):  8.993E-02 0.000E+00

     total cpu time spent up to now is      776.0 secs

     total energy              =   -3711.62935750 Ry
     Harris-Foulkes estimate   =   -3711.63068475 Ry
     estimated scf accuracy    <       0.04963174 Ry

     iteration # 16     ecut=    60.00 Ry     beta= 0.50
     Davidson diagonalization with overlap
     ethr =  8.81E-06,  avg # of iterations =  3.6

     negative rho (up, down):  9.270E-02 0.000E+00

     total cpu time spent up to now is      823.6 secs

     total energy              =   -3711.62768882 Ry
     Harris-Foulkes estimate   =   -3711.62967188 Ry
     estimated scf accuracy    <       0.03676165 Ry

     iteration # 17     ecut=    60.00 Ry     beta= 0.50
     Davidson diagonalization with overlap
     ethr =  8.06E-06,  avg # of iterations =  6.4

     negative rho (up, down):  9.940E-02 0.000E+00

     total cpu time spent up to now is      879.2 secs

     total energy              =   -3711.62625087 Ry
     Harris-Foulkes estimate   =   -3711.62785267 Ry
     estimated scf accuracy    <       0.03452934 Ry

     iteration # 18     ecut=    60.00 Ry     beta= 0.50
     Davidson diagonalization with overlap
     ethr =  7.57E-06,  avg # of iterations =  8.8

     negative rho (up, down):  9.811E-02 0.000E+00

     total cpu time spent up to now is      942.5 secs

     total energy              =   -3711.62537483 Ry
     Harris-Foulkes estimate   =   -3711.62641400 Ry
     estimated scf accuracy    <       0.01909139 Ry

     iteration # 19     ecut=    60.00 Ry     beta= 0.50
     Davidson diagonalization with overlap
     ethr =  4.19E-06,  avg # of iterations =  8.5

     negative rho (up, down):  9.565E-02 0.000E+00

     total cpu time spent up to now is     1004.8 secs

     total energy              =   -3711.62485735 Ry
     Harris-Foulkes estimate   =   -3711.62550904 Ry
     estimated scf accuracy    <       0.00804104 Ry

     iteration # 20     ecut=    60.00 Ry     beta= 0.50
     Davidson diagonalization with overlap
     c_bands:  1 eigenvalues not converged
     c_bands:  1 eigenvalues not converged
     ethr =  1.76E-06,  avg # of iterations = 11.5

     negative rho (up, down):  9.059E-02 0.000E+00

     total cpu time spent up to now is     1075.9 secs

     total energy              =   -3711.62495643 Ry
     Harris-Foulkes estimate   =   -3711.62506545 Ry
     estimated scf accuracy    <       0.00339272 Ry

     iteration # 21     ecut=    60.00 Ry     beta= 0.50
     Davidson diagonalization with overlap
     c_bands:  1 eigenvalues not converged
     c_bands:  1 eigenvalues not converged
     c_bands:  1 eigenvalues not converged
     c_bands:  1 eigenvalues not converged
     ethr =  7.44E-07,  avg # of iterations = 10.3

     negative rho (up, down):  9.330E-02 0.000E+00

     total cpu time spent up to now is     1142.1 secs

     total energy              =   -3711.62498633 Ry
     Harris-Foulkes estimate   =   -3711.62502667 Ry
     estimated scf accuracy    <       0.00137974 Ry

     iteration # 22     ecut=    60.00 Ry     beta= 0.50
     Davidson diagonalization with overlap
     c_bands:  1 eigenvalues not converged
     c_bands:  1 eigenvalues not converged
     ethr =  3.03E-07,  avg # of iterations =  7.6

     negative rho (up, down):  9.463E-02 0.000E+00

     total cpu time spent up to now is     1201.3 secs

     total energy              =   -3711.62505912 Ry
     Harris-Foulkes estimate   =   -3711.62502401 Ry
     estimated scf accuracy    <       0.00103545 Ry

     iteration # 23     ecut=    60.00 Ry     beta= 0.50
     Davidson diagonalization with overlap
     c_bands:  1 eigenvalues not converged
     ethr =  2.27E-07,  avg # of iterations =  5.1

     negative rho (up, down):  9.432E-02 0.000E+00

     total cpu time spent up to now is     1252.7 secs

     total energy              =   -3711.62503558 Ry
     Harris-Foulkes estimate   =   -3711.62506814 Ry
     estimated scf accuracy    <       0.00060156 Ry

     iteration # 24     ecut=    60.00 Ry     beta= 0.50
     Davidson diagonalization with overlap
     ethr =  1.32E-07,  avg # of iterations =  1.8

     negative rho (up, down):  9.290E-02 0.000E+00

     total cpu time spent up to now is     1295.3 secs

     total energy              =   -3711.62501692 Ry
     Harris-Foulkes estimate   =   -3711.62505129 Ry
     estimated scf accuracy    <       0.00034031 Ry

     iteration # 25     ecut=    60.00 Ry     beta= 0.50
     Davidson diagonalization with overlap
     ethr =  7.46E-08,  avg # of iterations =  6.8

     negative rho (up, down):  9.222E-02 0.000E+00

     total cpu time spent up to now is     1352.0 secs

     total energy              =   -3711.62501562 Ry
     Harris-Foulkes estimate   =   -3711.62502392 Ry
     estimated scf accuracy    <       0.00014850 Ry

     iteration # 26     ecut=    60.00 Ry     beta= 0.50
     Davidson diagonalization with overlap
     ethr =  3.26E-08,  avg # of iterations =  1.0

     negative rho (up, down):  9.248E-02 0.000E+00

     total cpu time spent up to now is     1393.5 secs

     total energy              =   -3711.62501723 Ry
     Harris-Foulkes estimate   =   -3711.62501904 Ry
     estimated scf accuracy    <       0.00004071 Ry

     iteration # 27     ecut=    60.00 Ry     beta= 0.50
     Davidson diagonalization with overlap
     ethr =  8.93E-09,  avg # of iterations =  1.0

     negative rho (up, down):  9.207E-02 0.000E+00

     total cpu time spent up to now is     1434.4 secs

     total energy              =   -3711.62501780 Ry
     Harris-Foulkes estimate   =   -3711.62501826 Ry
     estimated scf accuracy    <       0.00000545 Ry

     iteration # 28     ecut=    60.00 Ry     beta= 0.50
     Davidson diagonalization with overlap
     ethr =  1.20E-09,  avg # of iterations =  2.8

     negative rho (up, down):  9.212E-02 0.000E+00

     total cpu time spent up to now is     1480.8 secs

     total energy              =   -3711.62501800 Ry
     Harris-Foulkes estimate   =   -3711.62501828 Ry
     estimated scf accuracy    <       0.00000576 Ry

     iteration # 29     ecut=    60.00 Ry     beta= 0.50
     Davidson diagonalization with overlap
     ethr =  1.20E-09,  avg # of iterations =  1.0

     negative rho (up, down):  9.212E-02 0.000E+00

     total cpu time spent up to now is     1521.5 secs

     total energy              =   -3711.62501806 Ry
     Harris-Foulkes estimate   =   -3711.62501812 Ry
     estimated scf accuracy    <       0.00000069 Ry

     iteration # 30     ecut=    60.00 Ry     beta= 0.50
     Davidson diagonalization with overlap
     ethr =  1.51E-10,  avg # of iterations =  3.0

     negative rho (up, down):  9.212E-02 0.000E+00

     total cpu time spent up to now is     1569.0 secs

     total energy              =   -3711.62501810 Ry
     Harris-Foulkes estimate   =   -3711.62501811 Ry
     estimated scf accuracy    <       0.00000083 Ry

     iteration # 31     ecut=    60.00 Ry     beta= 0.50
     Davidson diagonalization with overlap
     ethr =  1.51E-10,  avg # of iterations =  1.0

     negative rho (up, down):  9.217E-02 0.000E+00

     total cpu time spent up to now is     1609.7 secs

     total energy              =   -3711.62501803 Ry
     Harris-Foulkes estimate   =   -3711.62501812 Ry
     estimated scf accuracy    <       0.00000018 Ry

     iteration # 32     ecut=    60.00 Ry     beta= 0.50
     Davidson diagonalization with overlap
     ethr =  3.99E-11,  avg # of iterations =  1.3

     negative rho (up, down):  9.218E-02 0.000E+00

     total cpu time spent up to now is     1651.4 secs

     total energy              =   -3711.62501802 Ry
     Harris-Foulkes estimate   =   -3711.62501804 Ry
     estimated scf accuracy    <       0.00000022 Ry

     iteration # 33     ecut=    60.00 Ry     beta= 0.50
     Davidson diagonalization with overlap
     ethr =  3.99E-11,  avg # of iterations =  1.0

     negative rho (up, down):  9.219E-02 0.000E+00

     total cpu time spent up to now is     1692.5 secs

     total energy              =   -3711.62501800 Ry
     Harris-Foulkes estimate   =   -3711.62501802 Ry
     estimated scf accuracy    <       0.00000009 Ry

     iteration # 34     ecut=    60.00 Ry     beta= 0.50
     Davidson diagonalization with overlap
     ethr =  2.07E-11,  avg # of iterations =  1.0

     negative rho (up, down):  9.216E-02 0.000E+00

     total cpu time spent up to now is     1733.2 secs

     total energy              =   -3711.62501803 Ry
     Harris-Foulkes estimate   =   -3711.62501801 Ry
     estimated scf accuracy    <       0.00000007 Ry

     iteration # 35     ecut=    60.00 Ry     beta= 0.50
     Davidson diagonalization with overlap
     ethr =  1.44E-11,  avg # of iterations =  1.0

     negative rho (up, down):  9.215E-02 0.000E+00

     total cpu time spent up to now is     1774.2 secs

     total energy              =   -3711.62501805 Ry
     Harris-Foulkes estimate   =   -3711.62501804 Ry
     estimated scf accuracy    <       0.00000002 Ry

     iteration # 36     ecut=    60.00 Ry     beta= 0.50
     Davidson diagonalization with overlap
     ethr =  3.32E-12,  avg # of iterations =  1.8

     negative rho (up, down):  9.215E-02 0.000E+00

     total cpu time spent up to now is     1816.1 secs

     End of self-consistent calculation

          k = 0.0000 0.0000 0.0000 ( 72027 PWs)   bands (ev):

   -38.2108 -37.9083 -35.8392 -35.4998 -24.3740 -23.9817 -22.9896 -22.9662
   -22.8613 -22.8406 -22.8384 -22.6924 -18.6859 -18.5815 -18.3547 -18.3001
   -18.2139 -17.9199 -17.1871 -17.0516 -16.8690 -16.8193 -16.7352 -16.5408
   -15.5956 -15.3590 -15.3176 -15.1556 -15.1509 -15.1093 -14.8457 -14.7408
   -14.6947 -14.6646 -14.6398 -14.6274 -14.5169 -14.4726 -14.3418 -14.3170
   -14.2825 -14.1858 -14.1785 -14.1698 -14.1670 -14.1548 -14.1316 -14.0773
   -14.0755 -14.0124 -13.9927 -13.8459 -13.7285 -13.4988  -9.7315  -9.2650
    -9.1337  -9.0992  -8.7859  -8.7493  -8.2281  -8.1996  -8.1282  -8.1100
    -8.0948  -8.0390  -8.0273  -8.0178  -7.9009  -7.8780  -7.8366  -7.8044
    -7.7832  -7.7154  -7.6629  -7.6534  -7.6401  -7.4938  -3.1596  -3.1167
    -3.0020  -2.6033  -2.3455  -2.3334  -2.2586  -2.2517  -2.2338  -2.2221
    -2.2042  -2.1005  -2.0633  -2.0200  -1.9867  -1.9248  -1.8441  -1.8403
    -1.8139  -1.8109  -1.7844  -1.7258  -1.7131  -1.7004  -1.5983  -1.5090
    -1.4200  -1.3992  -1.3177  -1.2930  -1.2837  -1.2188  -1.2092  -1.1861
    -1.0933  -1.0928  -1.0927  -1.0912  -1.0705  -1.0409  -1.0401  -0.9431
    -0.9059  -0.9021  -0.8903  -0.8662  -0.8603  -0.8497  -0.7954  -0.7083
    -0.6672  -0.6370  -0.5229  -0.4267  -0.4237  -0.4216  -0.3674  -0.3545
    -0.3077  -0.3035  -0.3012  -0.2981  -0.2633  -0.2158  -0.2078  -0.1876
    -0.1643  -0.1294  -0.1143  -0.1094  -0.1016  -0.0864  -0.0350   0.0025
     0.0048   0.0147   0.0193   0.0202   0.0463   0.0591   0.1007   0.1020
     0.1395   0.1413   0.1774   0.1931   0.2262   0.2273   0.2435   0.2714
     0.3187   0.3544   0.4120   0.4196   0.4333   0.4345   0.4427   0.4619
     0.5315   0.5909   0.5978   0.6460   0.6671   0.8688   0.8788   0.8809
     0.9130   0.9139   0.9204   0.9472   0.9851   1.0024   1.0215   1.0489
     1.0807   1.0855   1.1053   1.1067   1.1368   1.1391   1.1727   1.1933
     1.2268   1.2645   1.2882   1.2893   1.3027   1.3244   1.4358   1.4550
     1.5218   1.5626   1.5922   1.5983   1.6020   1.6456   1.6708   1.6841
     1.6937   1.7036   1.7744   1.7961   1.8444   1.8860   1.9411   1.9541
     1.9851   2.0818   2.1344   2.1357   2.1437   2.2000   2.2767   2.3308
     2.4526   2.4612   2.4635   2.5327   2.7447   2.7563   4.4909   5.0976
     5.1151   5.2496   5.6435   5.8633   6.2187   6.2804   6.4237   6.5205
     6.5710   6.9045   7.1572   7.1739   7.2524   7.2540   7.3024   7.5109
     7.6206   7.7429   7.8478   7.9504   8.0073   8.0169   8.1737   8.2751
     8.3264   8.3688   8.3967   8.4956   8.5065   8.5738   8.6352   8.8174
     8.8671   9.0217

          k = 0.0000 0.2618 0.0000 ( 71961 PWs)   bands (ev):

   -38.2081 -37.9056 -35.8375 -35.4981 -24.3552 -23.9639 -22.9650 -22.9416
   -22.8422 -22.8193 -22.8170 -22.6737 -18.6472 -18.5742 -18.3248 -18.3158
   -18.2928 -18.0310 -17.1576 -17.0472 -16.9350 -16.7895 -16.7307 -16.6069
   -15.4893 -15.2642 -15.2475 -15.1088 -15.0948 -15.0526 -14.8064 -14.7385
   -14.6594 -14.6441 -14.6201 -14.5768 -14.4771 -14.4083 -14.3061 -14.2994
   -14.2780 -14.2331 -14.1943 -14.1590 -14.1528 -14.1449 -14.1331 -14.1140
   -14.0584 -14.0462 -14.0131 -13.9049 -13.7628 -13.5128  -9.7174  -9.2605
    -9.1735  -9.1527  -8.9053  -8.8502  -8.2212  -8.1934  -8.1375  -8.1248
    -8.1083  -8.0170  -7.9953  -7.9745  -7.9433  -7.9363  -7.9197  -7.9146
    -7.8701  -7.8478  -7.8186  -7.7568  -7.7487  -7.7078  -3.2615  -3.1979
    -3.0634  -2.6502  -2.4662  -2.4251  -2.3980  -2.3580  -2.3429  -2.2436
    -2.2433  -2.2280  -2.2172  -2.1738  -2.1623  -2.1422  -2.0698  -2.0483
    -2.0032  -1.9048  -1.8775  -1.8193  -1.7935  -1.6898  -1.6414  -1.6376
    -1.5498  -1.5388  -1.5384  -1.5326  -1.5073  -1.5067  -1.5060  -1.4445
    -1.4235  -1.3761  -1.3184  -1.2189  -1.0697  -1.0213  -0.9623  -0.9451
    -0.9062  -0.8813  -0.8673  -0.8084  -0.7740  -0.7684  -0.7603  -0.6969
    -0.6717  -0.6438  -0.5594  -0.5185  -0.5109  -0.4893  -0.4725  -0.4434
    -0.4362  -0.4127  -0.4052  -0.3231  -0.3095  -0.2652  -0.2606  -0.2311
    -0.2069  -0.1609  -0.1373  -0.1104  -0.1092  -0.0297  -0.0227  -0.0179
     0.0198   0.0376   0.0506   0.0671   0.0684   0.1599   0.1639   0.1665
     0.1822   0.1970   0.2533   0.2700   0.2707   0.2912   0.3054   0.3097
     0.3314   0.3675   0.4234   0.4255   0.4666   0.5128   0.5353   0.5456
     0.5475   0.6551   0.7181   0.7297   0.7698   0.8049   0.8227   0.8462
     0.8517   0.8862   0.9931   1.0119   1.0448   1.0458   1.0589   1.0664
     1.0697   1.1289   1.1581   1.1589   1.1778   1.2324   1.2432   1.2464
     1.2640   1.2942   1.3286   1.3561   1.3564   1.3882   1.3886   1.4093
     1.4510   1.5253   1.5332   1.5999   1.6217   1.6687   1.6788   1.6918
     1.7088   1.7292   1.7518   1.7713   1.8767   1.8811   1.9023   1.9153
     2.1115   2.1633   2.1699   2.3574   2.6429   2.6838   2.7055   2.7558
     2.7616   2.7650   2.8510   2.9148   3.0570   3.1839   4.7267   5.4760
     5.4939   5.5391   5.7900   6.0938   6.2763   6.4521   6.6554   6.7926
     6.8367   6.8754   6.9937   7.0064   7.3172   7.4650   7.5309   7.6422
     7.6864   7.7707   7.7984   7.8428   8.0389   8.1220   8.1937   8.2942
     8.4011   8.4880   8.5248   8.5833   8.6066   8.6489   8.8115   8.8954
     8.9563   8.9813

          k = 0.0000 0.5236 0.0000 ( 71873 PWs)   bands (ev):

   -38.2016 -37.8991 -35.8334 -35.4939 -24.3091 -23.9201 -22.9045 -22.8809
   -22.7953 -22.7725 -22.7590 -22.6277 -18.5652 -18.5568 -18.5473 -18.2751
   -18.2738 -18.2133 -17.0881 -17.0742 -17.0368 -16.7572 -16.7198 -16.7079
   -15.2484 -15.0636 -15.0555 -14.9846 -14.9466 -14.9012 -14.7961 -14.7113
   -14.6968 -14.6208 -14.5774 -14.3990 -14.3790 -14.3564 -14.3343 -14.3053
   -14.2703 -14.2295 -14.2219 -14.2141 -14.1423 -14.1316 -14.1246 -14.0958
   -14.0941 -14.0290 -14.0223 -13.9662 -13.7876 -13.5382  -9.6785  -9.5467
    -9.3300  -9.1980  -9.0869  -8.8683  -8.4085  -8.3852  -8.2488  -8.2477
    -8.2278  -8.1843  -8.1567  -8.1141  -8.0896  -8.0865  -8.0614  -8.0076
    -7.9851  -7.9823  -7.8784  -7.8568  -7.8426  -7.6772  -3.6562  -3.5379
    -3.3077  -2.9627  -2.9138  -2.9011  -2.8833  -2.8144  -2.7507  -2.5782
    -2.5437  -2.4339  -2.4230  -2.3932  -2.3875  -2.3516  -2.3494  -2.2176
    -2.2104  -2.2088  -2.2061  -2.2018  -2.1979  -2.1781  -2.0998  -1.9659
    -1.9113  -1.8500  -1.8058  -1.7972  -1.7401  -1.7249  -1.6391  -1.5961
    -1.4667  -1.3617  -1.3217  -1.2431  -1.1175  -1.0913  -1.0887  -1.0667
    -1.0227  -1.0207  -0.9957  -0.9590  -0.9533  -0.8768  -0.8768  -0.7768
    -0.7571  -0.7352  -0.6845  -0.6735  -0.6604  -0.6571  -0.6541  -0.6364
    -0.6315  -0.6311  -0.5630  -0.5223  -0.5179  -0.4606  -0.4606  -0.4220
    -0.4202  -0.3978  -0.3846  -0.3280  -0.2371  -0.0690  -0.0462   0.0346
     0.0468   0.0809   0.0855   0.0910   0.1064   0.1254   0.1909   0.1964
     0.2535   0.2856   0.3261   0.4336   0.4755   0.4840   0.5002   0.5015
     0.5948   0.6616   0.6679   0.6924   0.7168   0.7261   0.7661   0.8263
     0.8728   0.9221   0.9231   0.9237   0.9476   1.0059   1.0680   1.1029
     1.1073   1.1302   1.1381   1.1387   1.1545   1.1602   1.1674   1.1796
     1.2094   1.2515   1.2663   1.2703   1.3054   1.3319   1.3369   1.3560
     1.3797   1.4274   1.4346   1.4799   1.4867   1.4889   1.5622   1.5712
     1.6370   1.6675   1.6685   1.6972   1.7020   1.7344   1.7383   1.7394
     1.7623   1.8067   1.9023   1.9269   1.9587   1.9606   1.9609   1.9941
     2.0935   2.2236   2.3041   2.4172   2.9603   2.9642   2.9969   3.0087
     3.3506   3.4036   3.7079   3.7453   3.8234   4.0275   5.1013   5.6534
     6.2769   6.3914   6.3926   6.3966   6.5121   6.5237   6.6618   6.8313
     6.8563   6.9724   7.1625   7.1729   7.6912   7.7186   7.8118   7.9325
     8.1132   8.2212   8.2998   8.3085   8.3722   8.4656   8.5237   8.5330
     8.5943   8.6492   8.6759   8.7715   8.8470   8.8833   8.9237   8.9567
     9.0214   9.1979

          k = 0.0000 0.7854 0.0000 ( 71882 PWs)   bands (ev):

   -38.1951 -37.8925 -35.8293 -35.4898 -24.2622 -23.8753 -22.8421 -22.8185
   -22.7474 -22.7247 -22.6993 -22.5806 -18.7738 -18.5394 -18.4819 -18.4416
   -18.2575 -18.1077 -17.2097 -17.0264 -17.0012 -16.8835 -16.7090 -16.6288
   -15.0283 -14.9540 -14.9021 -14.8240 -14.8052 -14.7652 -14.7201 -14.7127
   -14.6935 -14.6230 -14.5138 -14.4793 -14.4447 -14.4285 -14.3183 -14.3004
   -14.2899 -14.2819 -14.1902 -14.1879 -14.0947 -14.0804 -14.0737 -14.0478
   -14.0474 -14.0424 -14.0150 -13.8795 -13.7643 -13.5400  -9.9341  -9.6288
    -9.5835  -9.2091  -9.1278  -8.8066  -8.8035  -8.7802  -8.6202  -8.5439
    -8.5227  -8.3213  -8.1886  -8.1612  -8.1403  -8.1174  -8.0939  -8.0768
    -8.0541  -7.9610  -7.9158  -7.7573  -7.7355  -7.5659  -4.1408  -4.0083
    -3.7112  -3.4799  -3.3534  -3.3494  -3.3130  -3.2915  -3.1123  -2.9676
    -2.9674  -2.9018  -2.9017  -2.7977  -2.7234  -2.7014  -2.5609  -2.4689
    -2.3213  -2.3159  -2.3013  -2.2986  -2.2491  -2.2423  -2.2380  -2.2217
    -2.1326  -2.0073  -1.8785  -1.8454  -1.8312  -1.7765  -1.7097  -1.6736
    -1.5965  -1.3604  -1.3253  -1.3096  -1.2613  -1.2471  -1.2176  -1.2075
    -1.2006  -1.1937  -1.1250  -1.1228  -1.1016  -1.0777  -1.0237  -0.9860
    -0.9495  -0.9109  -0.8983  -0.8978  -0.8523  -0.8497  -0.8311  -0.8241
    -0.7098  -0.7095  -0.6801  -0.6714  -0.6499  -0.6420  -0.6080  -0.5817
    -0.5459  -0.4866  -0.4098  -0.3197  -0.3154  -0.1823  -0.1149  -0.0583
     0.0637   0.0972   0.1047   0.1134   0.1135   0.1367   0.1812   0.2462
     0.2488   0.3685   0.4115   0.4637   0.5086   0.6575   0.6670   0.7410
     0.7487   0.7576   0.8647   0.8871   0.8981   0.9286   0.9533   0.9994
     1.0240   1.0266   1.0816   1.1188   1.1409   1.1416   1.2106   1.2149
     1.2303   1.2513   1.2733   1.2936   1.3162   1.3492   1.3792   1.3813
     1.4472   1.4481   1.5148   1.5236   1.5624   1.5798   1.6177   1.6235
     1.6383   1.6427   1.6654   1.6781   1.6837   1.6873   1.7069   1.7432
     1.7571   1.7954   1.8338   1.8841   1.9185   1.9294   1.9572   1.9674
     1.9787   1.9835   2.0409   2.0620   2.1096   2.1403   2.1440   2.2630
     2.3406   2.3647   2.3649   2.4122   2.8086   2.8098   2.9100   2.9219
     3.6634   3.7327   4.3534   4.3915   4.4149   4.6196   5.0038   5.8496
     5.9807   5.9921   6.3939   6.4329   6.6190   6.9253   6.9992   7.3140
     7.3354   7.3689   7.6640   7.7007   8.0308   8.0955   8.2005   8.3365
     8.4016   8.4682   8.5320   8.5950   8.6613   8.7074   8.8069   8.8220
     8.9199   8.9452   8.9947   9.0457   9.1233   9.1351   9.1932   9.2539
     9.3130   9.4208

          k = 0.0000-1.0472 0.0000 ( 71986 PWs)   bands (ev):

   -38.1924 -37.8898 -35.8276 -35.4881 -24.2425 -23.8565 -22.8158 -22.7920
   -22.7272 -22.7045 -22.6741 -22.5608 -18.8543 -18.5625 -18.5322 -18.3944
   -18.2502 -18.0601 -17.2601 -17.0222 -16.9655 -16.9337 -16.7046 -16.5925
   -15.0342 -14.9781 -14.8393 -14.7641 -14.6866 -14.6760 -14.6589 -14.6390
   -14.6031 -14.5955 -14.5922 -14.5202 -14.5138 -14.5081 -14.3559 -14.3211
   -14.2972 -14.2535 -14.2431 -14.1319 -14.0949 -14.0506 -14.0487 -14.0306
   -14.0301 -14.0193 -13.9310 -13.8417 -13.7830 -13.5234 -10.0892  -9.6940
    -9.6027  -9.2397  -9.1146  -8.9568  -8.9334  -8.7771  -8.7729  -8.6626
    -8.6414  -8.4227  -8.1959  -8.1664  -8.1487  -8.1118  -8.1043  -8.0870
    -8.0817  -7.9592  -7.9353  -7.7047  -7.6828  -7.5174  -4.3428  -4.2103
    -3.8979  -3.6880  -3.5558  -3.5107  -3.4804  -3.4739  -3.2578  -3.2026
    -3.2008  -3.1321  -3.1319  -2.9453  -2.7521  -2.7306  -2.5951  -2.5835
    -2.4343  -2.3381  -2.3321  -2.3170  -2.2493  -2.2467  -2.2367  -2.2295
    -2.2216  -2.0737  -1.9889  -1.9615  -1.8579  -1.7933  -1.6907  -1.5745
    -1.4439  -1.4417  -1.4144  -1.3899  -1.3520  -1.3497  -1.3154  -1.2784
    -1.2702  -1.2619  -1.1662  -1.1654  -1.1527  -1.1507  -1.0991  -1.0687
    -1.0115  -1.0068  -0.9732  -0.9438  -0.9401  -0.9350  -0.9341  -0.8601
    -0.7989  -0.7985  -0.7752  -0.7329  -0.6744  -0.6305  -0.6132  -0.6044
    -0.5780  -0.4639  -0.4067  -0.2935  -0.2836  -0.2810  -0.1893  -0.1315
     0.0663   0.0902   0.1098   0.1120   0.1465   0.1610   0.1743   0.1896
     0.2410   0.2860   0.4462   0.4659   0.5261   0.6765   0.7540   0.7824
     0.8001   0.8808   0.9102   0.9370   0.9410   1.0100   1.0219   1.0421
     1.1116   1.1333   1.1339   1.2071   1.2076   1.2414   1.2514   1.2758
     1.2913   1.2995   1.3092   1.3132   1.3517   1.3714   1.3879   1.3885
     1.5002   1.5381   1.5842   1.6043   1.6488   1.6807   1.6921   1.7154
     1.7195   1.7515   1.8073   1.8133   1.8411   1.8473   1.8702   1.8833
     1.8976   1.9717   2.0001   2.0043   2.0352   2.0740   2.0805   2.1085
     2.1120   2.1196   2.1304   2.1556   2.1730   2.1759   2.1784   2.3436
     2.3446   2.5280   2.5281   2.5565   2.5747   2.5777   2.7407   2.7523
     3.6842   3.7983   4.5582   4.6062   4.6269   4.8166   4.9357   5.7415
     5.7527   6.0053   6.3397   6.5075   6.5378   6.9162   6.9456   7.4971
     7.6538   7.7202   7.7325   7.9737   8.0920   8.2757   8.3014   8.4903
     8.5001   8.5397   8.6995   8.7405   8.8303   8.8650   8.8727   8.8901
     8.9753   9.0096   9.0258   9.1355   9.1652   9.1872   9.2467   9.3044
     9.3308   9.3497

          k = 0.1250 0.0000 0.0000 ( 72015 PWs)   bands (ev):

   -38.2108 -37.9083 -35.8392 -35.4998 -24.3732 -23.9827 -22.9851 -22.9617
   -22.8661 -22.8432 -22.8372 -22.6962 -18.6852 -18.5783 -18.3539 -18.2969
   -18.2139 -17.9199 -17.1901 -17.0636 -16.8690 -16.8225 -16.7477 -16.5408
   -15.5681 -15.3331 -15.3088 -15.1594 -15.1366 -15.0953 -14.8381 -14.7529
   -14.7118 -14.6996 -14.6508 -14.6357 -14.4818 -14.4774 -14.3331 -14.3222
   -14.2746 -14.1916 -14.1741 -14.1734 -14.1654 -14.1569 -14.1348 -14.0807
   -14.0789 -14.0201 -13.9974 -13.8537 -13.7273 -13.4981  -9.7342  -9.2791
    -9.1145  -9.0963  -8.7873  -8.7528  -8.2303  -8.2019  -8.1319  -8.1144
    -8.0992  -8.0355  -8.0250  -8.0039  -7.8926  -7.8697  -7.8218  -7.8110
    -7.7897  -7.7078  -7.6723  -7.6557  -7.6495  -7.5024  -3.1249  -3.0816
    -2.9692  -2.5676  -2.3417  -2.3284  -2.2772  -2.2681  -2.2442  -2.2185
    -2.2074  -2.0977  -2.0816  -2.0176  -1.9996  -1.9672  -1.8544  -1.8514
    -1.8373  -1.7970  -1.7852  -1.7355  -1.6976  -1.6935  -1.5816  -1.5520
    -1.4570  -1.4012  -1.3468  -1.2833  -1.2263  -1.2190  -1.1845  -1.1431
    -1.0920  -1.0907  -1.0902  -1.0897  -1.0729  -1.0686  -1.0228  -0.9300
    -0.9252  -0.9007  -0.8918  -0.8461  -0.8404  -0.8307  -0.7951  -0.6841
    -0.6375  -0.6289  -0.5044  -0.4818  -0.4600  -0.4053  -0.3801  -0.3574
    -0.3477  -0.3303  -0.3263  -0.3200  -0.2426  -0.2406  -0.2204  -0.1890
    -0.1823  -0.1338  -0.1197  -0.1144  -0.1042  -0.0950  -0.0732  -0.0363
    -0.0072   0.0140   0.0557   0.0739   0.0843   0.0857   0.1035   0.1038
     0.1394   0.1404   0.1758   0.1906   0.2436   0.2549   0.2657   0.2860
     0.3007   0.3577   0.3836   0.4067   0.4137   0.4175   0.4436   0.4747
     0.5308   0.6109   0.6162   0.6475   0.7117   0.7998   0.8133   0.8933
     0.9115   0.9144   0.9278   0.9319   0.9617   1.0007   1.0068   1.0490
     1.0617   1.0779   1.0888   1.0983   1.1091   1.1420   1.1477   1.1673
     1.2233   1.2712   1.2931   1.3001   1.3564   1.3591   1.4435   1.5102
     1.5183   1.5403   1.5840   1.6161   1.6198   1.6342   1.6592   1.6833
     1.7110   1.7190   1.7293   1.7682   1.8433   1.8786   1.9278   1.9416
     2.0247   2.0654   2.1177   2.1540   2.1726   2.1931   2.2764   2.3294
     2.4521   2.4722   2.4730   2.5437   2.7391   2.7551   4.5421   5.1501
     5.1645   5.2948   5.6695   5.8680   6.1573   6.3480   6.4650   6.5760
     6.6244   6.7936   6.7989   6.9015   7.3173   7.4979   7.5868   7.6184
     7.6254   7.7717   7.8570   7.9354   8.0127   8.0180   8.1628   8.2762
     8.2817   8.3685   8.4589   8.4936   8.5393   8.5689   8.6269   8.7471
     8.8752   8.9765

          k = 0.1250 0.2618 0.0000 ( 71925 PWs)   bands (ev):

   -38.2081 -37.9056 -35.8375 -35.4981 -24.3544 -23.9648 -22.9608 -22.9373
   -22.8467 -22.8239 -22.8137 -22.6772 -18.6465 -18.5711 -18.3248 -18.3151
   -18.2896 -18.0310 -17.1605 -17.0587 -16.9349 -16.7926 -16.7426 -16.6068
   -15.4627 -15.2399 -15.2398 -15.1120 -15.0825 -15.0408 -14.7997 -14.7442
   -14.6644 -14.6500 -14.6377 -14.6246 -14.4360 -14.4138 -14.3005 -14.2984
   -14.2709 -14.2344 -14.2009 -14.1598 -14.1515 -14.1470 -14.1343 -14.1176
   -14.0694 -14.0540 -14.0116 -13.9101 -13.7602 -13.5116  -9.7186  -9.2720
    -9.2019  -9.1478  -8.8856  -8.8325  -8.2231  -8.1955  -8.1419  -8.1297
    -8.1145  -8.0514  -8.0295  -8.0231  -7.9786  -7.9564  -7.8806  -7.8581
    -7.8569  -7.8236  -7.8115  -7.8014  -7.6877  -7.6642  -3.2256  -3.1613
    -3.0282  -2.6129  -2.4751  -2.4338  -2.4036  -2.3497  -2.3349  -2.2497
    -2.2418  -2.2282  -2.2218  -2.1770  -2.1639  -2.1464  -2.0759  -2.0642
    -2.0023  -1.9421  -1.9051  -1.8792  -1.7905  -1.7083  -1.6344  -1.6223
    -1.5439  -1.5363  -1.5337  -1.5102  -1.5095  -1.4983  -1.4831  -1.4537
    -1.4204  -1.3920  -1.3231  -1.2160  -1.0661  -0.9977  -0.9737  -0.9589
    -0.8983  -0.8702  -0.8621  -0.8099  -0.7946  -0.7659  -0.7284  -0.7257
    -0.6924  -0.6795  -0.5636  -0.5502  -0.5132  -0.5025  -0.4871  -0.4575
    -0.4368  -0.4223  -0.4103  -0.3668  -0.2773  -0.2532  -0.2443  -0.2418
    -0.2368  -0.1424  -0.1403  -0.1124  -0.1056  -0.0472  -0.0250  -0.0127
    -0.0032   0.0395   0.0540   0.0634   0.0820   0.1444   0.1696   0.1769
     0.1791   0.2082   0.2505   0.2664   0.2672   0.3056   0.3174   0.3345
     0.3488   0.3748   0.4143   0.4230   0.4386   0.4770   0.5259   0.5298
     0.5329   0.6563   0.7373   0.7639   0.7908   0.8193   0.8318   0.8499
     0.8624   0.9164   0.9767   0.9935   0.9990   1.0157   1.0557   1.0836
     1.1065   1.1264   1.1472   1.1551   1.1766   1.1827   1.2336   1.2593
     1.2687   1.2885   1.2957   1.3038   1.3224   1.4021   1.4060   1.4687
     1.4768   1.5272   1.5460   1.5938   1.6135   1.6586   1.6678   1.6744
     1.6939   1.7292   1.7395   1.7550   1.7736   1.9045   2.0113   2.0137
     2.0839   2.1924   2.2230   2.4484   2.6468   2.6807   2.7036   2.7540
     2.7645   2.7668   2.8490   2.9115   3.0485   3.1827   4.7646   5.5182
     5.5313   5.5789   5.7873   6.1157   6.2412   6.4802   6.6797   6.8172
     6.8274   6.8396   6.8899   6.9282   7.3512   7.5066   7.6482   7.6704
     7.7333   7.7838   7.7952   7.8645   8.0574   8.1318   8.1964   8.2992
     8.3762   8.4678   8.5283   8.5635   8.6579   8.6836   8.7809   8.8419
     8.9441   8.9710

          k = 0.1250 0.5236 0.0000 ( 71896 PWs)   bands (ev):

   -38.2016 -37.8991 -35.8334 -35.4939 -24.3085 -23.9208 -22.9008 -22.8772
   -22.7993 -22.7765 -22.7561 -22.6307 -18.5651 -18.5537 -18.5468 -18.2738
   -18.2720 -18.2127 -17.0897 -17.0752 -17.0469 -16.7576 -16.7302 -16.7104
   -15.2238 -15.0512 -15.0440 -14.9862 -14.9400 -14.8965 -14.7941 -14.7061
   -14.6948 -14.6208 -14.5755 -14.4640 -14.3839 -14.3326 -14.3142 -14.3039
   -14.2706 -14.2305 -14.2192 -14.2134 -14.1504 -14.1302 -14.1250 -14.0956
   -14.0956 -14.0361 -14.0193 -13.9874 -13.7822 -13.5359  -9.6784  -9.5634
    -9.3227  -9.1982  -9.1027  -8.8445  -8.4422  -8.4195  -8.2697  -8.2037
    -8.1800  -8.1719  -8.1463  -8.1205  -8.1030  -8.0963  -8.0757  -8.0535
    -7.9972  -7.9821  -7.9075  -7.8264  -7.8045  -7.6383  -3.6207  -3.5020
    -3.2708  -2.9708  -2.9129  -2.9091  -2.8449  -2.8163  -2.7541  -2.5731
    -2.5392  -2.4314  -2.4247  -2.3942  -2.3881  -2.3513  -2.3484  -2.2198
    -2.2099  -2.2096  -2.2070  -2.1996  -2.1970  -2.1750  -2.0672  -1.9505
    -1.9373  -1.8464  -1.8436  -1.8041  -1.7868  -1.7320  -1.6334  -1.5956
    -1.4489  -1.3911  -1.3686  -1.2506  -1.1342  -1.0954  -1.0899  -1.0653
    -1.0306  -1.0295  -0.9997  -0.9620  -0.9576  -0.8959  -0.8549  -0.8329
    -0.7890  -0.7467  -0.7326  -0.6979  -0.6944  -0.6619  -0.6488  -0.6427
    -0.6252  -0.6242  -0.5603  -0.5233  -0.5205  -0.4943  -0.4688  -0.4608
    -0.4069  -0.3832  -0.3795  -0.2794  -0.2438  -0.0695  -0.0427   0.0320
     0.0459   0.0504   0.0757   0.0920   0.1030   0.1326   0.2105   0.2230
     0.2724   0.2898   0.3272   0.4245   0.4526   0.4577   0.4826   0.5386
     0.5448   0.6526   0.6544   0.6825   0.7308   0.7543   0.8021   0.8685
     0.9081   0.9125   0.9247   0.9505   0.9629   1.0143   1.0420   1.0543
     1.0783   1.0905   1.1240   1.1542   1.1602   1.1919   1.1929   1.2171
     1.2351   1.2422   1.2610   1.2700   1.3121   1.3320   1.3388   1.3497
     1.3712   1.3770   1.4207   1.4605   1.5002   1.5144   1.5316   1.5498
     1.6222   1.6452   1.6748   1.6816   1.7087   1.7273   1.7339   1.7809
     1.7893   1.8200   1.8945   1.9212   1.9510   1.9546   2.0571   2.1008
     2.1354   2.2164   2.3937   2.5544   2.9614   2.9655   2.9978   3.0111
     3.3517   3.4023   3.6757   3.7140   3.7949   4.0012   5.1360   5.6840
     6.2613   6.3486   6.4081   6.4123   6.5197   6.5322   6.6952   6.8494
     6.8645   6.9987   7.1782   7.1921   7.7390   7.7625   7.8099   7.9295
     8.0980   8.1829   8.2959   8.3006   8.4023   8.4285   8.4776   8.5446
     8.6044   8.6313   8.6863   8.7097   8.8184   8.8604   8.9218   8.9523
     9.0465   9.1906

          k = 0.1250 0.7854 0.0000 ( 71866 PWs)   bands (ev):

   -38.1951 -37.8925 -35.8293 -35.4898 -24.2617 -23.8759 -22.8390 -22.8152
   -22.7507 -22.7280 -22.6969 -22.5831 -18.7738 -18.5364 -18.4819 -18.4411
   -18.2545 -18.1071 -17.2097 -17.0358 -17.0034 -16.8835 -16.7187 -16.6311
   -15.0120 -14.9432 -14.8860 -14.8228 -14.8042 -14.7668 -14.7198 -14.7020
   -14.6880 -14.6235 -14.5105 -14.4792 -14.4415 -14.4207 -14.3242 -14.3075
   -14.3002 -14.2965 -14.2007 -14.1794 -14.0929 -14.0792 -14.0728 -14.0489
   -14.0484 -14.0446 -14.0211 -13.8976 -13.7614 -13.5408  -9.9194  -9.6290
    -9.5556  -9.2396  -9.1322  -8.8205  -8.7938  -8.7706  -8.6074  -8.5018
    -8.4805  -8.2852  -8.1877  -8.1606  -8.1393  -8.1237  -8.1186  -8.1004
    -8.0954  -7.9787  -7.9402  -7.7722  -7.7504  -7.5830  -4.1039  -3.9726
    -3.6768  -3.4774  -3.3672  -3.3513  -3.3256  -3.2582  -3.1215  -2.9651
    -2.9650  -2.9042  -2.9042  -2.8038  -2.7096  -2.6873  -2.5496  -2.4399
    -2.3175  -2.3159  -2.2852  -2.2782  -2.2482  -2.2418  -2.2400  -2.2202
    -2.1143  -2.0005  -1.8840  -1.8355  -1.8285  -1.7782  -1.7301  -1.6833
    -1.6772  -1.3730  -1.3397  -1.3335  -1.3177  -1.2594  -1.2162  -1.2067
    -1.2028  -1.1845  -1.1605  -1.1481  -1.1079  -1.0886  -1.0655  -1.0609
    -0.9446  -0.9276  -0.9230  -0.8947  -0.8488  -0.8448  -0.8340  -0.8150
    -0.7734  -0.7233  -0.7140  -0.6467  -0.6450  -0.6381  -0.6051  -0.5783
    -0.5410  -0.4487  -0.3934  -0.3306  -0.3264  -0.1889  -0.0450   0.0032
     0.0527   0.0724   0.0834   0.1151   0.1239   0.1850   0.2059   0.2357
     0.2811   0.3738   0.4465   0.4887   0.4973   0.5173   0.6406   0.7228
     0.7682   0.7746   0.8825   0.8917   0.9091   0.9319   0.9827   1.0041
     1.0157   1.0540   1.0663   1.1221   1.1482   1.1573   1.1907   1.2096
     1.2284   1.2443   1.2553   1.2871   1.3011   1.3420   1.3788   1.3926
     1.4293   1.4688   1.4864   1.5236   1.5251   1.5722   1.6240   1.6334
     1.6393   1.6474   1.6660   1.6722   1.7027   1.7282   1.7287   1.7392
     1.7599   1.7707   1.8501   1.8743   1.9164   1.9258   1.9486   1.9969
     2.0343   2.0425   2.0471   2.0806   2.1437   2.1498   2.1533   2.3518
     2.3565   2.3604   2.3790   2.4720   2.8106   2.8119   2.9149   2.9296
     3.6697   3.7339   4.2891   4.3287   4.3573   4.5633   5.0463   5.8620
     6.0359   6.0470   6.3526   6.4465   6.6498   6.9108   7.0260   7.2829
     7.3022   7.3617   7.6250   7.6881   7.9966   8.0794   8.2119   8.2391
     8.3436   8.4851   8.5152   8.5913   8.6839   8.7513   8.8072   8.9196
     8.9426   8.9490   8.9878   9.0830   9.1240   9.1676   9.1884   9.2831
     9.3502   9.4235

          k = 0.1250-1.0472 0.0000 ( 71978 PWs)   bands (ev):

   -38.1924 -37.8898 -35.8276 -35.4881 -24.2420 -23.8570 -22.8128 -22.7890
   -22.7302 -22.7076 -22.6719 -22.5630 -18.8543 -18.5625 -18.5292 -18.3939
   -18.2473 -18.0596 -17.2601 -17.0312 -16.9675 -16.9338 -16.7140 -16.5947
   -15.0230 -14.9666 -14.8158 -14.7611 -14.6864 -14.6641 -14.6393 -14.6373
   -14.6286 -14.6174 -14.5795 -14.5122 -14.5087 -14.5006 -14.3490 -14.3178
   -14.3085 -14.2677 -14.2607 -14.1347 -14.1007 -14.0497 -14.0482 -14.0313
   -14.0310 -14.0199 -13.9377 -13.8548 -13.7782 -13.5290 -10.0582  -9.6694
    -9.6024  -9.2710  -9.1147  -8.9265  -8.9032  -8.8089  -8.7438  -8.6321
    -8.6109  -8.3958  -8.1919  -8.1628  -8.1477  -8.1393  -8.1167  -8.1147
    -8.0900  -7.9914  -7.9359  -7.7485  -7.7267  -7.5578  -4.3048  -4.1740
    -3.8640  -3.6854  -3.5576  -3.5265  -3.4883  -3.4478  -3.2691  -3.2002
    -3.1987  -3.1347  -3.1346  -2.9531  -2.7353  -2.7133  -2.5690  -2.5688
    -2.4084  -2.3405  -2.3343  -2.2965  -2.2522  -2.2375  -2.2301  -2.2206
    -2.2202  -2.0678  -1.9608  -1.9257  -1.8560  -1.7841  -1.7024  -1.6086
    -1.5475  -1.4860  -1.4367  -1.4238  -1.4015  -1.3528  -1.3158  -1.3055
    -1.2927  -1.2613  -1.2181  -1.1813  -1.1716  -1.1466  -1.0796  -1.0748
    -1.0488  -1.0285  -0.9636  -0.9481  -0.9403  -0.9314  -0.9187  -0.9078
    -0.8562  -0.8108  -0.8041  -0.7215  -0.6768  -0.6397  -0.5972  -0.5773
    -0.5546  -0.4313  -0.3880  -0.2977  -0.2952  -0.2635  -0.0987  -0.0712
     0.0543   0.0744   0.1184   0.1400   0.1425   0.1647   0.1952   0.2294
     0.2773   0.2863   0.4089   0.5130   0.5165   0.5366   0.7186   0.8102
     0.8284   0.9013   0.9183   0.9287   0.9541   0.9853   1.0080   1.0614
     1.0933   1.1477   1.1484   1.1625   1.2043   1.2126   1.2567   1.2725
     1.2845   1.2984   1.3159   1.3297   1.3552   1.3716   1.3893   1.3958
     1.4909   1.5634   1.5644   1.5954   1.6387   1.6896   1.7240   1.7269
     1.7322   1.7379   1.8038   1.8414   1.8513   1.8808   1.8847   1.9048
     1.9489   1.9820   1.9841   1.9913   2.0462   2.0621   2.0809   2.0948
     2.1048   2.1148   2.1571   2.1669   2.1841   2.2126   2.3086   2.3503
     2.3512   2.5190   2.5208   2.5231   2.5795   2.5817   2.7514   2.7672
     3.6915   3.8084   4.4793   4.5275   4.5529   4.7464   4.9709   5.8095
     5.8205   5.9850   6.3648   6.5356   6.5647   6.9236   6.9347   7.4098
     7.6219   7.6277   7.6405   7.9865   8.0910   8.1017   8.2541   8.2814
     8.4978   8.5935   8.7494   8.8624   8.8958   8.9069   8.9430   8.9677
     9.0099   9.0513   9.1012   9.1706   9.2082   9.2322   9.2695   9.3020
     9.3469   9.3883

          k = 0.2500 0.0000 0.0000 ( 71933 PWs)   bands (ev):

   -38.2108 -37.9083 -35.8392 -35.4998 -24.3713 -23.9850 -22.9725 -22.9489
   -22.8795 -22.8567 -22.8280 -22.7060 -18.6834 -18.5704 -18.3521 -18.2891
   -18.2139 -17.9199 -17.1972 -17.0919 -16.8690 -16.8303 -16.7773 -16.5408
   -15.4943 -15.2850 -15.2648 -15.1709 -15.1014 -15.0589 -14.8406 -14.8071
   -14.7533 -14.7249 -14.6802 -14.6563 -14.4780 -14.4300 -14.3404 -14.3084
   -14.2560 -14.1923 -14.1794 -14.1695 -14.1682 -14.1604 -14.1420 -14.0932
   -14.0861 -14.0529 -14.0004 -13.8727 -13.7247 -13.4963  -9.7405  -9.3040
    -9.0891  -9.0765  -8.7913  -8.7613  -8.2351  -8.2069  -8.1395  -8.1233
    -8.1069  -8.0510  -7.9921  -7.9709  -7.8690  -7.8459  -7.8301  -7.8086
    -7.7880  -7.6985  -7.6861  -7.6758  -7.6630  -7.5262  -3.0242  -2.9803
    -2.8759  -2.4656  -2.3607  -2.3359  -2.3150  -2.3034  -2.2816  -2.2168
    -2.2092  -2.1253  -2.0907  -2.0705  -2.0612  -2.0112  -1.8935  -1.8702
    -1.8282  -1.7881  -1.7833  -1.7567  -1.6920  -1.6507  -1.6220  -1.6120
    -1.5128  -1.3919  -1.3491  -1.2542  -1.1877  -1.1667  -1.1181  -1.0928
    -1.0906  -1.0885  -1.0870  -1.0861  -1.0819  -1.0543  -0.9815  -0.9789
    -0.9531  -0.9081  -0.8255  -0.8058  -0.8032  -0.7871  -0.7817  -0.6402
    -0.6274  -0.6175  -0.5774  -0.4787  -0.4703  -0.4530  -0.4523  -0.3960
    -0.3872  -0.3769  -0.3649  -0.3635  -0.3101  -0.2374  -0.1956  -0.1658
    -0.1648  -0.1615  -0.1559  -0.1300  -0.1258  -0.1141  -0.1087  -0.0716
    -0.0410  -0.0024   0.1049   0.1062   0.1075   0.1209   0.1272   0.1289
     0.1558   0.1672   0.1718   0.2073   0.2586   0.2673   0.2775   0.3085
     0.3259   0.3408   0.3606   0.3929   0.3963   0.4186   0.4534   0.5262
     0.5266   0.5652   0.6774   0.7011   0.7242   0.7545   0.7814   0.8465
     0.8508   0.8759   0.8943   0.9051   0.9096   0.9600   0.9810   0.9866
     1.0150   1.0783   1.0935   1.1142   1.1364   1.1639   1.1664   1.1822
     1.2025   1.2618   1.2898   1.3044   1.4009   1.4180   1.4204   1.4814
     1.4906   1.5441   1.5616   1.5810   1.6228   1.6573   1.6574   1.6628
     1.7125   1.7315   1.7516   1.7849   1.8400   1.8919   1.9087   1.9453
     1.9781   2.0225   2.0935   2.1620   2.1804   2.2758   2.3262   2.3280
     2.4514   2.4979   2.4987   2.5635   2.7178   2.7452   4.6825   5.2938
     5.3022   5.4246   5.6260   5.9525   6.1795   6.3728   6.4087   6.4126
     6.5773   6.7344   6.7829   6.8567   7.2900   7.4613   7.5570   7.7435
     7.8599   7.8819   7.9162   7.9713   8.0208   8.0861   8.1931   8.2788
     8.2912   8.3769   8.4228   8.4443   8.5146   8.6101   8.6602   8.6997
     8.9248   9.0200

          k = 0.2500 0.2618 0.0000 ( 71920 PWs)   bands (ev):

   -38.2081 -37.9056 -35.8375 -35.4981 -24.3526 -23.9669 -22.9487 -22.9251
   -22.8594 -22.8367 -22.8051 -22.6865 -18.6448 -18.5633 -18.3248 -18.3134
   -18.2819 -18.0310 -17.1673 -17.0856 -16.9347 -16.8000 -16.7707 -16.6066
   -15.3905 -15.2194 -15.1754 -15.1220 -15.0520 -15.0106 -14.7889 -14.7716
   -14.7193 -14.6906 -14.6629 -14.6402 -14.4188 -14.3855 -14.3025 -14.2836
   -14.2585 -14.2350 -14.2089 -14.1623 -14.1526 -14.1502 -14.1374 -14.1239
   -14.0971 -14.0746 -14.0117 -13.9219 -13.7549 -13.5084  -9.7218  -9.3016
    -9.2410  -9.1511  -8.8449  -8.7954  -8.2295  -8.2023  -8.1593  -8.1405
    -8.1352  -8.1050  -8.0823  -8.0424  -8.0240  -8.0016  -7.8990  -7.8607
    -7.8072  -7.7848  -7.7643  -7.7422  -7.6253  -7.6032  -3.1218  -3.0560
    -2.9282  -2.5114  -2.5065  -2.4671  -2.4246  -2.3286  -2.3146  -2.2722
    -2.2382  -2.2350  -2.2252  -2.1846  -2.1698  -2.1572  -2.1078  -2.0896
    -2.0463  -2.0123  -1.9926  -1.9584  -1.7867  -1.7380  -1.6536  -1.5896
    -1.5739  -1.5302  -1.5299  -1.5214  -1.5117  -1.5114  -1.4412  -1.4255
    -1.3571  -1.3388  -1.3211  -1.2002  -1.0588  -1.0019  -0.9896  -0.9327
    -0.8842  -0.8832  -0.8523  -0.8433  -0.8241  -0.7947  -0.7712  -0.7212
    -0.6951  -0.6865  -0.6717  -0.6400  -0.5738  -0.5551  -0.5065  -0.4692
    -0.4243  -0.4198  -0.3759  -0.3619  -0.3348  -0.2670  -0.2546  -0.2336
    -0.2093  -0.1550  -0.1466  -0.1115  -0.1078  -0.0693  -0.0248  -0.0075
     0.0003   0.0322   0.0473   0.0646   0.0651   0.1352   0.1886   0.2096
     0.2110   0.2194   0.2528   0.2559   0.2708   0.2787   0.3138   0.3295
     0.3869   0.3958   0.4074   0.4150   0.4618   0.4653   0.4894   0.5148
     0.5577   0.6382   0.7587   0.7768   0.8014   0.8091   0.8789   0.8875
     0.8992   0.9398   0.9567   0.9673   1.0105   1.0153   1.0461   1.0615
     1.0882   1.0905   1.1038   1.1507   1.1611   1.1779   1.2043   1.2110
     1.2524   1.2683   1.3013   1.3234   1.3296   1.3854   1.4056   1.4760
     1.5383   1.5422   1.5534   1.5821   1.5834   1.6202   1.6217   1.6417
     1.6590   1.6624   1.7055   1.7702   1.8354   1.9229   1.9738   2.1312
     2.1957   2.2645   2.3835   2.6487   2.6520   2.6750   2.6956   2.7480
     2.7723   2.7755   2.8387   2.8964   3.0164   3.1703   4.8720   5.6327
     5.6388   5.6853   5.7398   6.1525   6.2732   6.5241   6.5465   6.5509
     6.7408   6.8431   7.0479   7.0832   7.3602   7.4698   7.6003   7.7261
     7.7721   7.8802   7.9428   7.9623   8.0751   8.1439   8.2629   8.2997
     8.3718   8.4453   8.4943   8.5287   8.6249   8.6535   8.7534   8.8271
     8.8619   8.9756

          k = 0.2500 0.5236 0.0000 ( 71854 PWs)   bands (ev):

   -38.2016 -37.8991 -35.8334 -35.4939 -24.3070 -23.9226 -22.8902 -22.8665
   -22.8103 -22.7877 -22.7486 -22.6387 -18.5650 -18.5461 -18.5453 -18.2736
   -18.2645 -18.2112 -17.0943 -17.0775 -17.0701 -16.7605 -16.7532 -16.7161
   -15.1572 -15.0401 -14.9939 -14.9911 -14.9253 -14.8857 -14.7892 -14.6929
   -14.6882 -14.6212 -14.5762 -14.5590 -14.3914 -14.3297 -14.2913 -14.2865
   -14.2804 -14.2310 -14.2154 -14.1995 -14.1754 -14.1262 -14.1230 -14.0996
   -14.0972 -14.0486 -14.0373 -14.0171 -13.7728 -13.5308  -9.6776  -9.5842
    -9.3640  -9.1982  -9.0748  -8.8147  -8.4777  -8.4552  -8.2944  -8.2245
    -8.2022  -8.1875  -8.1603  -8.1256  -8.1112  -8.1012  -8.0438  -8.0253
    -8.0216  -7.9823  -7.8840  -7.7793  -7.7572  -7.6001  -3.5202  -3.4013
    -3.1692  -3.0026  -2.9361  -2.9093  -2.8213  -2.7670  -2.7418  -2.5561
    -2.5239  -2.4312  -2.4212  -2.3989  -2.3910  -2.3492  -2.3447  -2.2298
    -2.2168  -2.2131  -2.2077  -2.1940  -2.1936  -2.1596  -2.0425  -1.9807
    -1.9779  -1.9583  -1.8451  -1.8256  -1.7526  -1.7032  -1.6265  -1.6058
    -1.5380  -1.4036  -1.4008  -1.2742  -1.1840  -1.1234  -1.0935  -1.0880
    -1.0745  -1.0433  -1.0304  -1.0127  -0.9693  -0.9467  -0.9267  -0.9116
    -0.9078  -0.8106  -0.7287  -0.7148  -0.6912  -0.6844  -0.6394  -0.6358
    -0.6086  -0.6078  -0.5965  -0.5445  -0.5278  -0.5166  -0.4885  -0.4476
    -0.3801  -0.3664  -0.3659  -0.2503  -0.2300  -0.1541  -0.1038  -0.0174
     0.0121   0.0655   0.0872   0.1144   0.1371   0.1892   0.2519   0.2651
     0.2749   0.2827   0.3449   0.3857   0.4008   0.4102   0.4693   0.5737
     0.6321   0.6400   0.6660   0.6844   0.7591   0.7833   0.8484   0.8642
     0.9149   0.9323   0.9702   0.9787   0.9844   0.9991   1.0056   1.0198
     1.0360   1.0537   1.1203   1.1411   1.1465   1.1957   1.2009   1.2343
     1.2523   1.2572   1.2912   1.2995   1.3315   1.3340   1.3520   1.3626
     1.3755   1.3780   1.4286   1.4364   1.4715   1.4849   1.4915   1.5343
     1.5742   1.6083   1.6661   1.6735   1.7269   1.7438   1.7607   1.7644
     1.8454   1.8569   1.8642   1.9257   1.9304   1.9772   1.9800   2.1396
     2.4147   2.4660   2.6394   2.8432   2.9640   2.9685   3.0033   3.0299
     3.3543   3.3984   3.5748   3.6152   3.7043   3.9168   5.2304   5.7682
     6.1278   6.3534   6.4487   6.4537   6.5374   6.5508   6.7359   6.8952
     6.9113   7.0587   7.2198   7.2422   7.7494   7.8767   7.9003   7.9799
     8.0530   8.1310   8.2423   8.2549   8.2947   8.4170   8.4545   8.5045
     8.5451   8.6601   8.6679   8.7249   8.7496   8.8658   8.9005   8.9636
     9.0928   9.1080

          k = 0.2500 0.7854 0.0000 ( 71912 PWs)   bands (ev):

   -38.1951 -37.8925 -35.8293 -35.4898 -24.2605 -23.8773 -22.8301 -22.8062
   -22.7599 -22.7374 -22.6907 -22.5897 -18.7737 -18.5290 -18.4818 -18.4398
   -18.2472 -18.1058 -17.2096 -17.0581 -17.0085 -16.8835 -16.7419 -16.6368
   -14.9712 -14.9137 -14.8380 -14.8195 -14.8031 -14.7795 -14.7416 -14.6716
   -14.6549 -14.6176 -14.5036 -14.4803 -14.4320 -14.3989 -14.3885 -14.3357
   -14.2986 -14.2882 -14.2283 -14.1776 -14.0906 -14.0756 -14.0713 -14.0536
   -14.0514 -14.0447 -14.0367 -13.9431 -13.7547 -13.5437  -9.8719  -9.6287
    -9.4993  -9.3109  -9.1352  -8.8654  -8.7538  -8.7309  -8.5640  -8.3927
    -8.3710  -8.2510  -8.2283  -8.1908  -8.1713  -8.1448  -8.1352  -8.1250
    -8.1017  -8.0759  -7.9507  -7.8284  -7.8065  -7.6398  -4.0012  -3.8742
    -3.5842  -3.4744  -3.4085  -3.3650  -3.3562  -3.1715  -3.1510  -2.9581
    -2.9580  -2.9114  -2.9110  -2.8230  -2.6655  -2.6419  -2.5124  -2.3560
    -2.3260  -2.3217  -2.2538  -2.2434  -2.2393  -2.2277  -2.2157  -2.1964
    -2.0715  -1.9966  -1.9224  -1.9012  -1.8562  -1.8189  -1.7548  -1.7272
    -1.6438  -1.5093  -1.4915  -1.3869  -1.3685  -1.3364  -1.3222  -1.2614
    -1.2574  -1.1979  -1.1899  -1.1823  -1.1582  -1.1492  -1.0854  -1.0264
    -0.9947  -0.9603  -0.8855  -0.8743  -0.8621  -0.8616  -0.8268  -0.8123
    -0.7896  -0.7484  -0.7207  -0.6475  -0.6338  -0.6078  -0.6002  -0.5867
    -0.4884  -0.4269  -0.3653  -0.3574  -0.3530  -0.2209  -0.0565  -0.0116
     0.0108   0.1089   0.1368   0.1628   0.1985   0.2122   0.2679   0.2731
     0.3349   0.3752   0.3827   0.4744   0.5593   0.5648   0.6334   0.6484
     0.7943   0.8066   0.8732   0.8801   0.9132   0.9430   1.0081   1.0407
     1.0693   1.0907   1.1034   1.1287   1.1342   1.1458   1.1797   1.1891
     1.2114   1.2374   1.2646   1.2882   1.3109   1.3367   1.3701   1.4046
     1.4103   1.4289   1.4591   1.4611   1.5092   1.5312   1.5865   1.6102
     1.6233   1.6369   1.6585   1.6643   1.6971   1.7210   1.7336   1.7382
     1.7709   1.7808   1.8122   1.8327   1.9015   1.9116   1.9403   1.9475
     2.0378   2.0668   2.1010   2.1747   2.1774   2.2904   2.3325   2.3336
     2.4024   2.4579   2.6216   2.7679   2.8164   2.8192   2.9492   2.9967
     3.6842   3.7368   4.0986   4.1423   4.1865   4.3947   5.1702   5.8895
     6.1913   6.1994   6.2296   6.4819   6.7296   6.9002   7.0812   7.1751
     7.1903   7.3367   7.5367   7.6427   7.8767   8.0234   8.1035   8.2615
     8.3133   8.4891   8.5057   8.6149   8.6777   8.8169   8.8278   8.9154
     8.9770   9.0474   9.0891   9.1145   9.1564   9.1956   9.2702   9.3382
     9.3557   9.3726

          k = 0.2500-1.0472 0.0000 ( 71856 PWs)   bands (ev):

   -38.1923 -37.8898 -35.8276 -35.4881 -24.2409 -23.8583 -22.8047 -22.7807
   -22.7387 -22.7162 -22.6663 -22.5690 -18.8542 -18.5624 -18.5219 -18.3927
   -18.2401 -18.0584 -17.2601 -17.0528 -16.9723 -16.9338 -16.7364 -16.6000
   -14.9908 -14.9330 -14.7623 -14.7533 -14.6844 -14.6713 -14.6688 -14.6437
   -14.6210 -14.5889 -14.5578 -14.4992 -14.4933 -14.4865 -14.3399 -14.3299
   -14.3114 -14.3106 -14.3054 -14.1583 -14.0982 -14.0473 -14.0466 -14.0335
   -14.0335 -14.0246 -13.9540 -13.8893 -13.7657 -13.5437  -9.9708  -9.6020
    -9.6010  -9.3588  -9.1149  -8.8958  -8.8397  -8.8165  -8.6608  -8.5434
    -8.5221  -8.3163  -8.2375  -8.2149  -8.1810  -8.1528  -8.1452  -8.1234
    -8.0987  -8.0819  -7.9377  -7.8686  -7.8470  -7.6679  -4.1996  -4.0742
    -3.7737  -3.6794  -3.5751  -3.5610  -3.5313  -3.3630  -3.3044  -3.1932
    -3.1920  -3.1423  -3.1421  -2.9770  -2.6822  -2.6588  -2.5222  -2.4916
    -2.3478  -2.3407  -2.3335  -2.2645  -2.2382  -2.2377  -2.2209  -2.2157
    -2.1514  -2.0539  -1.8949  -1.8557  -1.8514  -1.7861  -1.7562  -1.7480
    -1.6802  -1.6691  -1.6162  -1.5514  -1.4598  -1.4028  -1.3650  -1.3599
    -1.2759  -1.2673  -1.2322  -1.2203  -1.2193  -1.2087  -1.1950  -1.0931
    -1.0243  -0.9627  -0.9617  -0.9538  -0.9446  -0.9418  -0.9117  -0.8963
    -0.8333  -0.8277  -0.8111  -0.7064  -0.6827  -0.6461  -0.5809  -0.5662
    -0.4913  -0.4316  -0.3508  -0.3403  -0.3374  -0.2371  -0.0587  -0.0110
     0.0413   0.1040   0.1338   0.1590   0.2302   0.2316   0.2568   0.2847
     0.3210   0.3514   0.4143   0.4152   0.4893   0.6294   0.6550   0.8240
     0.8843   0.8887   0.9093   0.9319   0.9486   1.0536   1.0639   1.0755
     1.0862   1.1218   1.1345   1.1809   1.1810   1.2053   1.2232   1.2648
     1.2696   1.2900   1.3047   1.3091   1.3407   1.3904   1.3983   1.4100
     1.4716   1.5056   1.5508   1.5731   1.6091   1.6164   1.6630   1.6684
     1.7101   1.7413   1.7755   1.7934   1.8267   1.8615   1.8768   1.8920
     1.9292   1.9596   1.9970   2.0185   2.0810   2.0840   2.0963   2.1013
     2.1231   2.1560   2.1913   2.3144   2.3510   2.3696   2.3698   2.4308
     2.4946   2.5002   2.5007   2.5899   2.5950   2.6263   2.8279   2.8929
     3.7141   3.8280   4.2505   4.2998   4.3404   4.5395   5.0765   5.9152
     6.0021   6.0121   6.4166   6.6144   6.6367   6.9160   6.9407   7.2316
     7.3788   7.3940   7.5458   7.8263   7.8803   8.0490   8.1778   8.1811
     8.5204   8.5543   8.8441   8.9562   8.9776   9.0053   9.0760   9.1320
     9.1455   9.1701   9.2249   9.2633   9.2988   9.3151   9.3897   9.4536
     9.4617   9.4825

          k = 0.3750 0.0000 0.0000 ( 71958 PWs)   bands (ev):

   -38.2108 -37.9083 -35.8392 -35.4998 -24.3693 -23.9874 -22.9544 -22.9304
   -22.8983 -22.8760 -22.8171 -22.7176 -18.6816 -18.5624 -18.3503 -18.2812
   -18.2139 -17.9199 -17.2042 -17.1194 -16.8690 -16.8380 -16.8059 -16.5408
   -15.3993 -15.2527 -15.1908 -15.1804 -15.0819 -15.0204 -14.9019 -14.8242
   -14.7692 -14.7586 -14.7205 -14.6810 -14.4557 -14.3949 -14.3734 -14.2672
   -14.2372 -14.1821 -14.1816 -14.1752 -14.1683 -14.1638 -14.1493 -14.1159
   -14.0990 -14.0946 -14.0006 -13.8915 -13.7225 -13.4942  -9.7467  -9.3227
    -9.0815  -9.0438  -8.7963  -8.7701  -8.2392  -8.2112  -8.1462  -8.1310
    -8.1126  -8.0634  -7.9520  -7.9310  -7.8588  -7.8370  -7.8341  -7.8107
    -7.7519  -7.7360  -7.7137  -7.6758  -7.6546  -7.5599  -2.8690  -2.8255
    -2.7387  -2.4927  -2.4618  -2.3887  -2.3132  -2.2885  -2.2738  -2.2262
    -2.1992  -2.1737  -2.1500  -2.1459  -2.0831  -2.0029  -1.8932  -1.8901
    -1.8738  -1.8166  -1.7936  -1.7769  -1.6864  -1.6829  -1.6743  -1.6054
    -1.4557  -1.4253  -1.2747  -1.2123  -1.1759  -1.1300  -1.1220  -1.1033
    -1.0875  -1.0860  -1.0839  -1.0824  -1.0101  -1.0052  -0.9974  -0.9604
    -0.9464  -0.8715  -0.8468  -0.8410  -0.7619  -0.7006  -0.6944  -0.6673
    -0.6570  -0.6315  -0.5883  -0.5632  -0.5219  -0.5141  -0.4678  -0.4631
    -0.4389  -0.4039  -0.3781  -0.3104  -0.3066  -0.2730  -0.2473  -0.1973
    -0.1603  -0.1537  -0.1427  -0.1405  -0.1307  -0.1240  -0.1154  -0.0825
    -0.0556  -0.0280   0.0670   0.0725   0.1112   0.1128   0.1251   0.1266
     0.2044   0.2220   0.2233   0.2295   0.2418   0.2565   0.3052   0.3457
     0.3543   0.3549   0.3683   0.4251   0.4252   0.4370   0.4583   0.5116
     0.5866   0.5873   0.6762   0.6838   0.7220   0.7499   0.7516   0.7550
     0.7748   0.8157   0.8390   0.8921   0.8975   0.9076   0.9380   0.9644
     1.0185   1.0612   1.0906   1.1522   1.1824   1.1957   1.2187   1.2338
     1.2382   1.2701   1.2754   1.3197   1.3682   1.3745   1.3883   1.4145
     1.4682   1.4758   1.5242   1.5364   1.5695   1.6704   1.6986   1.7070
     1.7393   1.7591   1.7947   1.8050   1.8334   1.8437   1.8657   1.8704
     1.9720   2.0549   2.1251   2.1356   2.2114   2.2891   2.3230   2.4370
     2.4632   2.5385   2.5397   2.5758   2.6742   2.7151   4.8753   5.4191
     5.5016   5.5089   5.6692   6.0615   6.0655   6.1472   6.1946   6.3544
     6.7014   6.8108   6.9884   7.0351   7.0674   7.4008   7.5482   7.7049
     7.7241   7.7365   7.9944   8.0237   8.0643   8.1993   8.2316   8.2815
     8.3343   8.4002   8.4395   8.5126   8.5745   8.5971   8.8103   8.8852
     8.9356   9.0113

          k = 0.3750 0.2618 0.0000 ( 71960 PWs)   bands (ev):

   -38.2081 -37.9056 -35.8375 -35.4981 -24.3508 -23.9691 -22.9315 -22.9075
   -22.8773 -22.8550 -22.7947 -22.6974 -18.6432 -18.5554 -18.3248 -18.3116
   -18.2741 -18.0310 -17.1740 -17.1120 -16.9346 -16.8074 -16.7980 -16.6064
   -15.2961 -15.1918 -15.1391 -15.0963 -15.0316 -14.9787 -14.8389 -14.8028
   -14.7314 -14.7268 -14.6873 -14.6585 -14.4029 -14.3539 -14.3272 -14.2563
   -14.2537 -14.2298 -14.1986 -14.1652 -14.1572 -14.1523 -14.1431 -14.1362
   -14.1267 -14.0984 -14.0158 -13.9321 -13.7507 -13.5051  -9.7252  -9.3314
    -9.2678  -9.1549  -8.8104  -8.7633  -8.2393  -8.2130  -8.1839  -8.1610
    -8.1494  -8.1317  -8.1082  -8.0662  -8.0475  -8.0249  -7.9156  -7.8942
    -7.7551  -7.7327  -7.7239  -7.7018  -7.5824  -7.5590  -2.9632  -2.8969
    -2.7820  -2.6078  -2.5544  -2.4831  -2.3543  -2.3134  -2.2920  -2.2858
    -2.2517  -2.2345  -2.2228  -2.2021  -2.1805  -2.1661  -2.1570  -2.1460
    -2.1219  -2.0982  -2.0032  -1.9989  -1.8074  -1.7833  -1.7607  -1.5921
    -1.5597  -1.5261  -1.5241  -1.5162  -1.5149  -1.4898  -1.4122  -1.4027
    -1.2891  -1.2290  -1.2133  -1.1567  -1.0697  -1.0565  -0.9924  -0.9869
    -0.9317  -0.9054  -0.8667  -0.8516  -0.8406  -0.8058  -0.8003  -0.7760
    -0.7549  -0.7250  -0.7038  -0.6592  -0.6369  -0.5692  -0.5374  -0.4994
    -0.4810  -0.3885  -0.3670  -0.3489  -0.3194  -0.2853  -0.2543  -0.2362
    -0.2041  -0.1903  -0.1722  -0.1331  -0.0805  -0.0770  -0.0283  -0.0083
     0.0191   0.0236   0.0620   0.0663   0.0800   0.1102   0.1655   0.1906
     0.2264   0.2541   0.2554   0.2673   0.2756   0.2832   0.3268   0.3516
     0.3798   0.4028   0.4095   0.4293   0.4736   0.4837   0.5156   0.5224
     0.5994   0.6090   0.7169   0.7885   0.8163   0.8316   0.8750   0.8860
     0.9083   0.9123   0.9404   0.9699   1.0005   1.0106   1.0127   1.0547
     1.1115   1.1181   1.1185   1.1343   1.1604   1.1727   1.1911   1.2012
     1.2214   1.2685   1.2948   1.3484   1.3794   1.3846   1.4117   1.4204
     1.4605   1.4989   1.5152   1.5284   1.5811   1.6293   1.6306   1.6506
     1.6602   1.6764   1.7094   1.7850   1.8389   1.8688   1.9376   2.1230
     2.3749   2.4285   2.5770   2.6287   2.6717   2.6898   2.7356   2.7767
     2.7834   2.8163   2.8605   2.8656   2.9487   3.1293   5.0242   5.5614
     5.8025   5.8070   5.9034   6.1879   6.2662   6.2712   6.4110   6.4989
     6.7941   6.8948   7.1454   7.3032   7.3240   7.4446   7.6164   7.7730
     7.8054   7.8533   7.9336   7.9346   8.0913   8.1484   8.2544   8.3318
     8.3646   8.4392   8.4815   8.5250   8.5896   8.6500   8.7918   8.8821
     8.9418   9.0942

          k = 0.3750 0.5236 0.0000 ( 71879 PWs)   bands (ev):

   -38.2016 -37.8991 -35.8334 -35.4939 -24.3055 -23.9244 -22.8754 -22.8513
   -22.8256 -22.8034 -22.7399 -22.6479 -18.5649 -18.5439 -18.5384 -18.2735
   -18.2569 -18.2098 -17.0997 -17.0951 -17.0769 -16.7810 -16.7584 -16.7216
   -15.0696 -15.0255 -14.9995 -14.9361 -14.9188 -14.8788 -14.7833 -14.6909
   -14.6760 -14.6355 -14.6222 -14.5902 -14.3975 -14.3152 -14.3101 -14.2712
   -14.2657 -14.2305 -14.2126 -14.2062 -14.1795 -14.1217 -14.1206 -14.1089
   -14.1049 -14.0845 -14.0610 -14.0164 -13.7663 -13.5262  -9.6758  -9.5791
    -9.4488  -9.1976  -9.0043  -8.8116  -8.4758  -8.4534  -8.3382  -8.3161
    -8.2874  -8.1868  -8.1593  -8.1548  -8.1194  -8.0959  -8.0941  -7.9826
    -7.9328  -7.9107  -7.7822  -7.7751  -7.7600  -7.6039  -3.3753  -3.2582
    -3.0809  -3.0275  -2.9968  -2.9035  -2.8276  -2.7976  -2.6078  -2.5233
    -2.4949  -2.4480  -2.4164  -2.4011  -2.3926  -2.3424  -2.3351  -2.2635
    -2.2526  -2.2428  -2.2025  -2.1887  -2.1854  -2.1326  -2.1243  -2.1125
    -2.0895  -1.8385  -1.7844  -1.7803  -1.7302  -1.6989  -1.6517  -1.5911
    -1.5467  -1.4614  -1.4070  -1.3428  -1.2941  -1.2458  -1.2365  -1.1446
    -1.1131  -1.0724  -1.0408  -1.0335  -0.9941  -0.9717  -0.9575  -0.9179
    -0.9076  -0.8573  -0.7904  -0.7371  -0.7080  -0.6973  -0.6380  -0.6306
    -0.5938  -0.5860  -0.5820  -0.5458  -0.5292  -0.5211  -0.5100  -0.4231
    -0.3722  -0.3265  -0.3196  -0.2854  -0.2412  -0.2231  -0.1705  -0.0285
    -0.0230   0.0269   0.0704   0.0904   0.1829   0.2036   0.2525   0.2689
     0.3265   0.3293   0.3766   0.4111   0.4271   0.4417   0.4828   0.5453
     0.6294   0.6819   0.7136   0.7527   0.7951   0.8100   0.8390   0.8556
     0.8936   0.9398   0.9536   0.9616   0.9653   0.9748   0.9916   0.9952
     1.0018   1.0472   1.1304   1.1423   1.1764   1.1844   1.2225   1.2282
     1.2515   1.2808   1.2822   1.3004   1.3098   1.3239   1.3687   1.3908
     1.4008   1.4410   1.4421   1.4452   1.4517   1.4760   1.5107   1.5137
     1.5442   1.5582   1.6595   1.6678   1.7216   1.7610   1.7871   1.8001
     1.8311   1.8626   1.8807   1.8874   1.8907   1.9092   2.0282   2.0787
     2.7667   2.8027   2.9168   2.9672   2.9697   2.9999   3.0509   3.2298
     3.3562   3.3774   3.4134   3.4400   3.5428   3.7631   5.3537   5.8613
     5.9839   6.3344   6.4971   6.5045   6.5510   6.5631   6.7878   6.9396
     6.9895   7.1041   7.2584   7.3095   7.7029   7.9429   8.0339   8.0555
     8.0755   8.1215   8.1698   8.2147   8.2401   8.3153   8.3529   8.4137
     8.5267   8.6725   8.6967   8.7697   8.7902   8.8969   8.9406   8.9752
     9.0017   9.0687

          k = 0.3750 0.7854 0.0000 ( 71924 PWs)   bands (ev):

   -38.1951 -37.8925 -35.8293 -35.4898 -24.2593 -23.8787 -22.8179 -22.7936
   -22.7725 -22.7504 -22.6836 -22.5972 -18.7736 -18.5215 -18.4817 -18.4385
   -18.2398 -18.1045 -17.2096 -17.0802 -17.0137 -16.8834 -16.7648 -16.6424
   -14.9206 -14.8719 -14.8175 -14.8158 -14.8026 -14.7782 -14.7627 -14.6502
   -14.6000 -14.5967 -14.5048 -14.5031 -14.4471 -14.4182 -14.3814 -14.3606
   -14.2945 -14.2710 -14.2591 -14.1949 -14.0894 -14.0705 -14.0685 -14.0590
   -14.0559 -14.0515 -14.0423 -13.9961 -13.7480 -13.5476  -9.7915  -9.6278
    -9.5309  -9.3088  -9.1316  -8.9358  -8.6725  -8.6497  -8.4852  -8.4001
    -8.3775  -8.2475  -8.2256  -8.2123  -8.1625  -8.1386  -8.1353  -8.1314
    -8.1089  -8.0543  -7.9517  -7.9333  -7.9114  -7.7365  -3.8596  -3.7407
    -3.5158  -3.4744  -3.4353  -3.4340  -3.3569  -3.2043  -3.0667  -2.9479
    -2.9472  -2.9220  -2.9210  -2.8568  -2.5862  -2.5608  -2.4429  -2.3651
    -2.3500  -2.2792  -2.2330  -2.2225  -2.2210  -2.2021  -2.1142  -2.0960
    -2.0721  -2.0700  -2.0588  -1.9727  -1.9045  -1.7953  -1.7332  -1.7312
    -1.7025  -1.6311  -1.6177  -1.5567  -1.5513  -1.4418  -1.3454  -1.3207
    -1.2955  -1.2376  -1.2129  -1.1883  -1.1860  -1.1539  -1.1160  -1.0230
    -0.9915  -0.9405  -0.8790  -0.8779  -0.8366  -0.8111  -0.8025  -0.7841
    -0.7674  -0.7495  -0.7121  -0.6494  -0.6425  -0.6083  -0.6034  -0.5917
    -0.4695  -0.4254  -0.4147  -0.3536  -0.3512  -0.2722  -0.0870  -0.0685
     0.0029   0.0842   0.1171   0.1725   0.2189   0.2753   0.2874   0.3810
     0.4232   0.4282   0.4645   0.5033   0.5350   0.5432   0.7106   0.7173
     0.8049   0.8596   0.8719   0.9021   0.9070   0.9365   0.9578   1.0350
     1.0475   1.0679   1.0896   1.1578   1.1611   1.2022   1.2068   1.2389
     1.2525   1.2810   1.3059   1.3086   1.3199   1.3387   1.3473   1.3683
     1.3805   1.3857   1.3950   1.4269   1.4630   1.5186   1.5535   1.5665
     1.5839   1.6063   1.6328   1.6437   1.6791   1.6888   1.7110   1.7424
     1.7563   1.7858   1.7899   1.8303   1.8448   1.8877   1.8923   1.9101
     2.0448   2.0810   2.0974   2.2016   2.2119   2.2137   2.2976   2.2989
     2.7533   2.7625   2.8210   2.8267   2.9318   3.0253   3.1617   3.3282
     3.6882   3.7365   3.8010   3.8410   3.9137   4.1176   5.3562   5.8801
     6.0701   6.4227   6.4318   6.5040   6.8193   6.9057   6.9866   7.0062
     7.1486   7.2882   7.4893   7.5410   7.7017   7.9850   8.0505   8.2841
     8.3760   8.5258   8.5401   8.6202   8.6826   8.7754   8.7822   8.9146
     8.9919   9.0540   9.1071   9.2017   9.2812   9.3129   9.3456   9.3706
     9.3958   9.4552

          k = 0.3750-1.0472 0.0000 ( 71902 PWs)   bands (ev):

   -38.1923 -37.8898 -35.8276 -35.4881 -24.2399 -23.8595 -22.7936 -22.7692
   -22.7500 -22.7280 -22.6598 -22.5758 -18.8541 -18.5623 -18.5145 -18.3915
   -18.2327 -18.0572 -17.2602 -17.0742 -16.9771 -16.9338 -16.7585 -16.6052
   -14.9427 -14.8807 -14.7969 -14.7407 -14.6980 -14.6835 -14.6544 -14.6391
   -14.5793 -14.5391 -14.5298 -14.4910 -14.4776 -14.4628 -14.3828 -14.3802
   -14.3570 -14.3071 -14.3005 -14.1992 -14.0832 -14.0440 -14.0440 -14.0369
   -14.0367 -14.0356 -13.9685 -13.9312 -13.7512 -13.5602  -9.8462  -9.6012
    -9.5112  -9.4839  -9.1143  -9.0059  -8.7083  -8.6851  -8.5376  -8.4053
    -8.3838  -8.3802  -8.3576  -8.2126  -8.1959  -8.1653  -8.1437  -8.1381
    -8.1368  -8.1147  -8.0354  -8.0136  -7.9397  -7.8184  -4.0565  -3.9408
    -3.6979  -3.6640  -3.6328  -3.6042  -3.5564  -3.3643  -3.2599  -3.1820
    -3.1810  -3.1539  -3.1527  -3.0171  -2.5909  -2.5662  -2.4403  -2.3731
[...]
    -2.7214  -2.7042  -2.6445  -2.5826  -2.3244  -2.2789  -2.2764  -2.2709
    -2.2303  -2.2233  -2.2233  -2.2149  -2.2005  -2.1891  -2.1769  -2.1648
    -2.1447  -2.0752  -2.0685  -2.0132  -1.8967  -1.7818  -1.7692  -1.5895
    -1.5465  -1.5242  -1.5208  -1.5203  -1.5165  -1.4624  -1.4267  -1.4008
    -1.1901  -1.1634  -1.1361  -1.1314  -1.0768  -1.0467  -1.0392  -0.9997
    -0.9959  -0.9605  -0.9560  -0.8962  -0.8889  -0.8095  -0.7816  -0.7301
    -0.7297  -0.6887  -0.6874  -0.6790  -0.6584  -0.6546  -0.5872  -0.4971
    -0.4866  -0.3741  -0.3692  -0.3415  -0.2923  -0.2923  -0.2538  -0.2433
    -0.2267  -0.1905  -0.1611  -0.1389  -0.1248  -0.0653  -0.0180  -0.0074
     0.0128   0.0170   0.0675   0.0821   0.0921   0.1070   0.1297   0.1929
     0.2316   0.2661   0.2702   0.2735   0.2948   0.3145   0.3445   0.3486
     0.3563   0.3702   0.3953   0.4474   0.4772   0.5255   0.5261   0.5381
     0.5923   0.6336   0.6901   0.7882   0.8151   0.8285   0.8357   0.8950
     0.9123   0.9244   0.9343   0.9504   0.9685   0.9976   1.0028   1.0602
     1.0815   1.1421   1.1474   1.1586   1.1886   1.1890   1.2018   1.2246
     1.2313   1.2590   1.2938   1.3334   1.3506   1.3591   1.4182   1.4387
     1.4498   1.4549   1.4705   1.4880   1.5951   1.6470   1.6507   1.6582
     1.6776   1.6956   1.7244   1.7342   1.7917   1.8735   1.9385   2.1128
     2.4753   2.5232   2.5823   2.6412   2.6933   2.7123   2.7224   2.7965
     2.7967   2.8030   2.8356   2.8772   2.9706   3.0754   5.1277   5.4532
     6.0071   6.0114   6.0245   6.0279   6.0918   6.1374   6.3891   6.5581
     6.8222   6.9736   7.0028   7.3143   7.5869   7.6176   7.6390   7.6702
     7.7314   7.7545   7.8506   7.9393   8.0030   8.1297   8.1869   8.3524
     8.3655   8.5068   8.5386   8.6021   8.6333   8.7666   8.8027   8.8496
     8.9295   8.9938

          k =-0.5000 0.5236 0.0000 ( 71862 PWs)   bands (ev):

   -38.2016 -37.8991 -35.8334 -35.4939 -24.3049 -23.9252 -22.8653 -22.8404
   -22.8359 -22.8145 -22.7357 -22.6523 -18.5648 -18.5433 -18.5352 -18.2734
   -18.2538 -18.2091 -17.1053 -17.1013 -17.0773 -16.7909 -16.7591 -16.7238
   -15.0165 -15.0125 -15.0063 -14.9304 -14.9036 -14.8830 -14.7789 -14.7164
   -14.6654 -14.6432 -14.6251 -14.6048 -14.3990 -14.3236 -14.2866 -14.2828
   -14.2596 -14.2303 -14.2118 -14.2108 -14.1705 -14.1376 -14.1198 -14.1154
   -14.1073 -14.0930 -14.0667 -14.0163 -13.7640 -13.5244  -9.6747  -9.5535
    -9.5071  -9.1973  -8.9653  -8.8207  -8.4418  -8.4192  -8.4127  -8.3909
    -8.2545  -8.2196  -8.1862  -8.1587  -8.1189  -8.0998  -8.0953  -7.9826
    -7.8429  -7.8319  -7.8209  -7.8095  -7.7116  -7.6298  -3.2505  -3.1720
    -3.1287  -3.0892  -2.9410  -2.8954  -2.8450  -2.8258  -2.5164  -2.4861
    -2.4828  -2.4637  -2.4461  -2.4190  -2.3435  -2.3325  -2.3196  -2.3114
    -2.3037  -2.2978  -2.1971  -2.1837  -2.1779  -2.1665  -2.1544  -2.1532
    -2.0192  -1.9229  -1.8108  -1.7286  -1.6342  -1.6265  -1.5829  -1.5604
    -1.5289  -1.5045  -1.4729  -1.4540  -1.4304  -1.3828  -1.1475  -1.1425
    -1.1391  -1.0860  -1.0693  -1.0344  -1.0172  -0.9767  -0.9530  -0.9480
    -0.9281  -0.8243  -0.8078  -0.7578  -0.7223  -0.7042  -0.6376  -0.6307
    -0.5835  -0.5690  -0.5616  -0.5577  -0.5542  -0.5279  -0.4586  -0.4339
    -0.3869  -0.3460  -0.2870  -0.2634  -0.2618  -0.2179  -0.1656  -0.1418
    -0.0132  -0.0057   0.0626   0.0858   0.1936   0.2216   0.2587   0.3315
     0.3343   0.3680   0.3726   0.3775   0.4725   0.4850   0.4950   0.5020
     0.6422   0.7011   0.7103   0.8076   0.8107   0.8227   0.8622   0.8634
     0.8733   0.9165   0.9171   0.9488   0.9498   0.9552   0.9565   0.9871
     1.0259   1.0308   1.1153   1.1514   1.1947   1.1947   1.2253   1.2368
     1.2602   1.2619   1.2823   1.3130   1.3269   1.3309   1.3655   1.3855
     1.3992   1.4069   1.4428   1.4522   1.4537   1.4572   1.4906   1.5762
     1.6058   1.6106   1.6287   1.6511   1.6586   1.7680   1.7781   1.8336
     1.8396   1.8445   1.8471   1.8653   1.9038   1.9061   2.0459   2.0466
     2.9341   2.9417   2.9643   2.9704   3.1095   3.1575   3.1600   3.2197
     3.2480   3.3410   3.3646   3.4010   3.4897   3.5665   5.4256   5.8380
     5.9882   6.2973   6.5244   6.5354   6.5507   6.5595   6.8342   6.9480
     7.0448   7.0996   7.2707   7.3486   7.6863   7.9092   8.0368   8.0566
     8.1695   8.1796   8.1923   8.2012   8.2131   8.2792   8.2933   8.3170
     8.5900   8.7155   8.7258   8.7712   8.8208   8.8475   8.9083   8.9393
     8.9995   9.0763

          k =-0.5000 0.7854 0.0000 ( 71874 PWs)   bands (ev):

   -38.1951 -37.8925 -35.8293 -35.4898 -24.2588 -23.8793 -22.8100 -22.7851
   -22.7805 -22.7590 -22.6802 -22.6006 -18.7736 -18.5184 -18.4817 -18.4380
   -18.2367 -18.1039 -17.2096 -17.0893 -17.0158 -16.8834 -16.7742 -16.6447
   -14.8795 -14.8517 -14.8273 -14.8212 -14.8151 -14.8035 -14.7184 -14.6321
   -14.5892 -14.5620 -14.5529 -14.5154 -14.4351 -14.4199 -14.4106 -14.3234
   -14.3081 -14.2917 -14.2354 -14.2186 -14.0886 -14.0672 -14.0644 -14.0638
   -14.0593 -14.0536 -14.0412 -14.0248 -13.7451 -13.5495  -9.7194  -9.6194
    -9.6161  -9.2712  -9.1239  -8.9824  -8.5685  -8.5450  -8.5299  -8.5082
    -8.4054  -8.3139  -8.1660  -8.1517  -8.1387  -8.1349  -8.1278  -8.0720
    -8.0714  -8.0500  -8.0491  -7.9753  -7.9348  -7.8218  -3.7613  -3.6490
    -3.5840  -3.4993  -3.4511  -3.4022  -3.3321  -3.2576  -3.0082  -2.9368
    -2.9351  -2.9341  -2.9317  -2.8855  -2.5063  -2.4837  -2.4262  -2.3983
    -2.3653  -2.3274  -2.2109  -2.1910  -2.1880  -2.1780  -2.1644  -2.1497
    -2.0660  -1.9745  -1.9558  -1.9407  -1.9361  -1.8789  -1.8775  -1.8375
    -1.7337  -1.7304  -1.6011  -1.5418  -1.4970  -1.4945  -1.4122  -1.3575
    -1.3165  -1.3055  -1.2224  -1.1930  -1.1820  -1.1583  -1.0962  -1.0107
    -0.9732  -0.8863  -0.8733  -0.8721  -0.8603  -0.8202  -0.7958  -0.7801
    -0.7642  -0.7602  -0.6552  -0.6432  -0.6345  -0.6281  -0.6128  -0.5785
    -0.4658  -0.4595  -0.4509  -0.4162  -0.2448  -0.2045  -0.1930  -0.1723
     0.0631   0.0990   0.1010   0.1097   0.2790   0.3113   0.3567   0.3710
     0.3916   0.4206   0.4617   0.5523   0.6168   0.6291   0.6348   0.7239
     0.8395   0.8596   0.8909   0.9342   0.9439   0.9736   0.9742   0.9915
     1.0084   1.0223   1.0318   1.1663   1.1963   1.2212   1.2338   1.2464
     1.2867   1.2882   1.2998   1.3084   1.3262   1.3332   1.3493   1.3604
     1.3763   1.4028   1.4259   1.4390   1.4602   1.4804   1.4931   1.5256
     1.5349   1.6123   1.6369   1.6432   1.6634   1.6791   1.7249   1.7336
     1.7398   1.7455   1.7875   1.8079   1.8546   1.8578   1.8819   1.8935
     2.0455   2.0913   2.1019   2.1500   2.2501   2.2516   2.2602   2.2618
     2.8015   2.8064   2.8264   2.8317   3.3497   3.3956   3.4181   3.4726
     3.5383   3.5462   3.7215   3.7425   3.7491   3.7565   5.4973   5.7886
     6.0294   6.4975   6.6701   6.6843   6.7037   6.7298   6.9203   6.9701
     7.1868   7.2519   7.4714   7.5114   7.5906   7.9791   8.0368   8.2983
     8.4073   8.5801   8.6000   8.6170   8.6873   8.6974   8.7131   8.9261
     9.0204   9.0386   9.0689   9.2722   9.2740   9.3935   9.4112   9.4380
     9.4829   9.5297

          k =-0.5000-1.0472 0.0000 ( 71908 PWs)   bands (ev):

   -38.1923 -37.8898 -35.8276 -35.4881 -24.2394 -23.8601 -22.7867 -22.7617
   -22.7571 -22.7356 -22.6568 -22.5789 -18.8541 -18.5623 -18.5114 -18.3910
   -18.2296 -18.0566 -17.2602 -17.0830 -16.9791 -16.9339 -16.7676 -16.6074
   -14.9046 -14.8355 -14.8214 -14.8065 -14.6933 -14.6817 -14.6387 -14.6035
   -14.5578 -14.5340 -14.4949 -14.4877 -14.4794 -14.4329 -14.4244 -14.4084
   -14.3968 -14.3057 -14.2775 -14.2278 -14.0719 -14.0451 -14.0409 -14.0408
   -14.0402 -14.0400 -13.9697 -13.9555 -13.7445 -13.5679  -9.7531  -9.6009
    -9.5771  -9.4602  -9.1118  -9.0674  -8.5719  -8.5476  -8.5212  -8.4998
    -8.4289  -8.3243  -8.2468  -8.2239  -8.2233  -8.2025  -8.1483  -8.1449
    -8.1379  -8.1181  -8.1176  -8.0920  -7.9395  -7.9311  -3.9623  -3.8544
    -3.7489  -3.6642  -3.6563  -3.6107  -3.5239  -3.4173  -3.2048  -3.1695
    -3.1679  -3.1672  -3.1618  -3.0484  -2.5119  -2.4916  -2.4025  -2.3768
    -2.3696  -2.2993  -2.2791  -2.1996  -2.1708  -2.1563  -2.1513  -2.1138
    -2.1129  -2.0930  -2.0833  -2.0371  -2.0195  -2.0172  -1.8810  -1.8539
    -1.8257  -1.7954  -1.6330  -1.6048  -1.5847  -1.5351  -1.5003  -1.4160
    -1.4062  -1.3744  -1.2814  -1.2599  -1.2521  -1.2390  -1.1270  -1.0191
    -0.9771  -0.9590  -0.9500  -0.8773  -0.8765  -0.8750  -0.8616  -0.8466
    -0.8357  -0.8353  -0.6959  -0.6940  -0.6929  -0.6383  -0.6140  -0.5548
    -0.5018  -0.4962  -0.4707  -0.4355  -0.2488  -0.1957  -0.1793  -0.1628
     0.0765   0.1262   0.1579   0.1600   0.3630   0.3674   0.3794   0.3837
     0.4279   0.4685   0.4905   0.6003   0.6231   0.6585   0.7216   0.7781
     0.8054   0.8280   0.9243   0.9954   1.0036   1.0366   1.0383   1.0618
     1.0924   1.1057   1.1225   1.1878   1.2407   1.2433   1.2449   1.2592
     1.2876   1.3199   1.3308   1.3811   1.3815   1.3890   1.3915   1.3935
     1.4173   1.4534   1.4855   1.4894   1.4956   1.4981   1.5405   1.5536
     1.6667   1.6998   1.7077   1.7203   1.7697   1.7830   1.7921   1.7985
     1.8099   1.8946   1.9610   2.0187   2.0679   2.0815   2.0816   2.0842
     2.0924   2.1527   2.2272   2.2653   2.4295   2.4299   2.4385   2.4396
     2.5991   2.6040   2.6138   2.6190   3.3630   3.4320   3.4493   3.5404
     3.5465   3.6229   3.7587   3.7837   3.8059   3.8597   5.3747   5.6562
     6.4167   6.6124   6.6231   6.6501   6.7082   6.7732   6.8531   6.9474
     6.9766   7.0372   7.4479   7.4826   7.5632   7.8762   8.1833   8.3692
     8.3695   8.5575   8.8939   9.0556   9.1419   9.1756   9.2531   9.2797
     9.3137   9.3145   9.3397   9.3853   9.5894   9.6275   9.6457   9.6568
     9.6909   9.7005

     the Fermi energy is     2.6103 ev

!    total energy              =   -3711.62501805 Ry
     Harris-Foulkes estimate   =   -3711.62501805 Ry
     estimated scf accuracy    <          3.6E-09 Ry

     The total energy is the sum of the following terms:

     one-electron contribution =  -56721.26564969 Ry
     hartree contribution      =   28664.06820144 Ry
     xc contribution           =   -1263.75651996 Ry
     ewald contribution        =   25609.34298308 Ry
     smearing contrib. (-TS)   =      -0.01403292 Ry

     convergence has been achieved in  36 iterations

     negative rho (up, down):  9.215E-02 0.000E+00

     Forces acting on atoms (cartesian axes, Ry/au):

     atom    1 type  4   force =    -0.00000550    0.00000000   -0.00010779
     atom    2 type  4   force =     0.00000550    0.00000000   -0.00010779
     atom    3 type  3   force =    -0.00001381    0.00000000   -0.00007265
     atom    4 type  3   force =     0.00001381    0.00000000   -0.00007265
     atom    5 type  4   force =     0.00000359    0.00000000   -0.00001655
     atom    6 type  4   force =    -0.00000359    0.00000000   -0.00001655
     atom    7 type  1   force =     0.00000000    0.00000000   -0.00019409
     atom    8 type  1   force =     0.00000000    0.00000000   -0.00018128
     atom    9 type  3   force =     0.00003970    0.00000000    0.00003988
     atom   10 type  3   force =    -0.00003970    0.00000000    0.00003988
     atom   11 type  4   force =     0.00000000    0.00000000    0.00025207
     atom   12 type  4   force =     0.00000592    0.00000000    0.00025381
     atom   13 type  4   force =    -0.00000592    0.00000000    0.00025381
     atom   14 type  4   force =     0.00000000    0.00000000    0.00038441
     atom   15 type  2   force =     0.00000000    0.00000000   -0.00102069
     atom   16 type  5   force =     0.00000000    0.00000000   -0.00155048
     atom   17 type  4   force =     0.00017303    0.00000000    0.00173368
     atom   18 type  4   force =    -0.00017303    0.00000000    0.00173368
     atom   19 type  4   force =     0.00000000    0.00000000    0.00200077
     atom   20 type  4   force =     0.00000000    0.00000000    0.00249319
     atom   21 type  3   force =    -0.00011840    0.00000000   -0.00196949
     atom   22 type  3   force =     0.00011840    0.00000000   -0.00196949
     atom   23 type  1   force =     0.00000000    0.00000000   -0.00607043
     atom   24 type  1   force =     0.00000000    0.00000000   -0.00692732
     atom   25 type  4   force =    -0.00091622    0.00000000    0.00623236
     atom   26 type  4   force =     0.00091622    0.00000000    0.00623236
     atom   27 type  4   force =    -0.00012198    0.00000000    0.01495683
     atom   28 type  4   force =     0.00012198    0.00000000    0.01495683
     atom   29 type  3   force =     0.00293468    0.00000000   -0.01465078
     atom   30 type  3   force =    -0.00293468    0.00000000   -0.01465078
     atom   31 type  4   force =    -0.00971234    0.00000000    0.02773288
     atom   32 type  4   force =     0.00971234    0.00000000    0.02773288
     atom   33 type  1   force =     0.00000000    0.00000000   -0.02581843
     atom   34 type  1   force =     0.00000000    0.00000000   -0.01226602
     atom   35 type  3   force =    -0.00901291    0.00000000   -0.00216599
     atom   36 type  3   force =     0.00901291    0.00000000   -0.00216599
     atom   37 type  4   force =     0.00000000    0.00000000    0.00805257
     atom   38 type  4   force =     0.00000000    0.00000000    0.01349397
     atom   39 type  4   force =     0.00204514    0.00000000    0.00620831
     atom   40 type  4   force =    -0.00204514    0.00000000    0.00620831
     atom   41 type  5   force =     0.00000000    0.00000000   -0.03692937
     atom   42 type  2   force =     0.00000000    0.00000000   -0.02882174
     atom   43 type  4   force =     0.00000000    0.00000000    0.00552262
     atom   44 type  4   force =     0.00043005    0.00000000    0.00276791
     atom   45 type  4   force =    -0.00043005    0.00000000    0.00276791
     atom   46 type  4   force =     0.00000000    0.00000000    0.00406949
     atom   47 type  3   force =     0.00055966    0.00000000    0.00106155
     atom   48 type  3   force =    -0.00055966    0.00000000    0.00106155
     atom   49 type  1   force =     0.00000000    0.00000000   -0.00088288
     atom   50 type  1   force =     0.00000000    0.00000000   -0.00104203
     atom   51 type  4   force =     0.00007447    0.00000000    0.00078393
     atom   52 type  4   force =    -0.00007447    0.00000000    0.00078393
     atom   53 type  3   force =    -0.00004429    0.00000000   -0.00032277
     atom   54 type  3   force =     0.00004429    0.00000000   -0.00032277
     atom   55 type  4   force =    -0.00000184    0.00000000    0.00025268
     atom   56 type  4   force =     0.00000184    0.00000000    0.00025268

     Total force =     0.079987     Total SCF correction =     0.000312


     Computing stress (Cartesian axis) and pressure


     negative rho (up, down):  9.215E-02 0.000E+00
          total   stress  (Ry/bohr**3)                   (kbar)     P=       -7.30
  -0.00007787   0.00000000   0.00000000          -11.46        0.00        0.00
   0.00000000  -0.00003848   0.00000000            0.00       -5.66        0.00
   0.00000000   0.00000000  -0.00003245            0.00        0.00       -4.77

 
     init_run     :     24.04s CPU     25.18s WALL (       1 calls)
     electrons    :   1705.05s CPU   1789.70s WALL (       1 calls)
     forces       :      9.95s CPU     10.67s WALL (       1 calls)
     stress       :     98.77s CPU    100.73s WALL (       1 calls)

     Called by init_run:
     wfcinit      :     19.70s CPU     20.14s WALL (       1 calls)
     potinit      :      0.98s CPU      1.01s WALL (       1 calls)
     hinit0       :      1.81s CPU      1.84s WALL (       1 calls)

     Called by electrons:
     c_bands      :   1432.24s CPU   1472.84s WALL (      36 calls)
     sum_band     :    208.77s CPU    233.31s WALL (      36 calls)
     v_of_rho     :      3.90s CPU      4.00s WALL (      37 calls)
     newd         :     29.64s CPU     49.25s WALL (      37 calls)
     mix_rho      :     31.05s CPU     31.37s WALL (      36 calls)

     Called by c_bands:
     init_us_2    :     16.31s CPU     16.42s WALL (    1875 calls)
     cegterg      :   1363.50s CPU   1402.71s WALL (     900 calls)

     Called by sum_band:
     sum_band:bec :      1.09s CPU      1.10s WALL (     900 calls)
     addusdens    :     33.83s CPU     56.21s WALL (      36 calls)

     Called by *egterg:
     h_psi        :    652.05s CPU    666.08s WALL (    4588 calls)
     s_psi        :    106.02s CPU    106.60s WALL (    4588 calls)
     g_psi        :      1.62s CPU      1.64s WALL (    3663 calls)
     cdiaghg      :    331.16s CPU    332.44s WALL (    4563 calls)

     Called by h_psi:
     h_psi:calbec :    107.78s CPU    108.27s WALL (    4588 calls)
     vloc_psi     :    434.78s CPU    440.94s WALL (    4588 calls)
     add_vuspsi   :    106.15s CPU    106.70s WALL (    4588 calls)

     General routines
     calbec       :    162.16s CPU    162.84s WALL (    5613 calls)
     fft          :      3.08s CPU      3.12s WALL (     504 calls)
     ffts         :     15.98s CPU     16.13s WALL (   21352 calls)
     fftw         :    494.70s CPU    501.52s WALL ( 1276752 calls)
     interpolate  :      0.26s CPU      0.26s WALL (      37 calls)
 
     Parallel routines
     fft_scatt_xy :     61.23s CPU     62.10s WALL ( 1298608 calls)
     fft_scatt_yz :    299.01s CPU    303.17s WALL ( 1298608 calls)
 
     PWSCF        :  30m39.04s CPU  32m 7.58s WALL

 
   This run was terminated on:  17: 9:47  25May2021            

=------------------------------------------------------------------------------=
   JOB DONE.
=------------------------------------------------------------------------------=
[1621976987.641494] [holy7c06303:218426:0]          mpool.c:43   UCX  WARN  object 0x3027840 was not returned to mpool ucp_requests
[1621976987.644623] [holy7c06204:182164:0]          mpool.c:43   UCX  WARN  object 0x3feaf80 was not returned to mpool ucp_requests
[1621976987.643492] [holy7c06304:146865:0]          mpool.c:43   UCX  WARN  object 0x3892300 was not returned to mpool ucp_requests
[1621976987.643556] [holy7c06401:171699:0]          mpool.c:43   UCX  WARN  object 0x421aec0 was not returned to mpool ucp_requests
[1621976987.644057] [holy7c06108:151739:0]          mpool.c:43   UCX  WARN  object 0x43f57c0 was not returned to mpool ucp_requests
[1621976987.650170] [holy7c06111:150814:0]          mpool.c:43   UCX  WARN  object 0x4739000 was not returned to mpool ucp_requests
[1621976987.650183] [holy7c06111:150814:0]          mpool.c:43   UCX  WARN  object 0x47391c0 was not returned to mpool ucp_requests
[1621976987.648420] [holy7c06402:160474:0]          mpool.c:43   UCX  WARN  object 0x3469f80 was not returned to mpool ucp_requests
[1621976987.644052] [holy7c06110:195650:0]          mpool.c:43   UCX  WARN  object 0x2980740 was not returned to mpool ucp_requests
[1621976987.654283] [holy7c06306:202284:0]          mpool.c:43   UCX  WARN  object 0x3c7e140 was not returned to mpool ucp_requests
[1621976987.654305] [holy7c06306:202284:0]          mpool.c:43   UCX  WARN  object 0x3c7ea00 was not returned to mpool ucp_requests
[1621976987.655228] [holy7c06209:66068:0]          mpool.c:43   UCX  WARN  object 0x34ca540 was not returned to mpool ucp_requests
[1621976987.655494] [holy7c06206:26615:0]          mpool.c:43   UCX  WARN  object 0x3200280 was not returned to mpool ucp_requests
[1621976987.655510] [holy7c06206:26615:0]          mpool.c:43   UCX  WARN  object 0x3200440 was not returned to mpool ucp_requests
[1621976987.646384] [holy7c06204:182163:0]          mpool.c:43   UCX  WARN  object 0x4035ac0 was not returned to mpool ucp_requests
[1621976987.654381] [holy7c06212:38334:0]          mpool.c:43   UCX  WARN  object 0x31aed40 was not returned to mpool ucp_requests
[1621976987.654401] [holy7c06212:38334:0]          mpool.c:43   UCX  WARN  object 0x31af280 was not returned to mpool ucp_requests
