
     Program PWSCF v.6.5 starts on  1Jun2021 at 12:11:54 

     This program is part of the open-source Quantum ESPRESSO suite
     for quantum simulation of materials; please cite
         "P. Giannozzi et al., J. Phys.:Condens. Matter 21 395502 (2009);
         "P. Giannozzi et al., J. Phys.:Condens. Matter 29 465901 (2017);
          URL http://www.quantum-espresso.org", 
     in publications or presentations arising from this work. More details at
     http://www.quantum-espresso.org/quote

     Parallel version (MPI), running on    32 processors

     MPI processes distributed on    10 nodes
     R & G space division:  proc/nbgrp/npool/nimage =      32
     Reading input from YCBCO50_212_CuO_cleave_7.0_sep.pwi
Warning: card &IONS ignored
Warning: card     ION_DYNAMICS = 'BFGS' ignored
Warning: card / ignored
Warning: card &CELL ignored
Warning: card     CELL_DYNAMICS = 'BFGS' ignored
Warning: card     PRESS_CONV_THR = 5 ignored
Warning: card / ignored

     Current dimensions of program PWSCF are:
     Max number of different atomic species (ntypx) = 10
     Max number of k-points (npk) =  40000
     Max angular momentum in pseudopotentials (lmaxx) =  3

     Subspace diagonalization in iterative solution of the eigenvalue problem:
     one sub-group per band group will be used
     scalapack distributed-memory algorithm (size of sub-group:  5*  5 procs)

     Message from routine setup:
     using ibrav=0 with symmetry is DISCOURAGED, use correct ibrav instead
 
     Parallelization info
     --------------------
     sticks:   dense  smooth     PW     G-vecs:    dense   smooth      PW
     Min         188      62     17               102988    19806    2955
     Max         190      63     18               103018    19857    3000
     Sum        6019    2003    565              3296173   634629   95441
 


     bravais-lattice index     =            0
     lattice parameter (alat)  =      14.8133  a.u.
     unit-cell volume          =   10103.1525 (a.u.)^3
     number of atoms/cell      =           56
     number of atomic types    =            5
     number of electrons       =       456.00
     number of Kohn-Sham states=          274
     kinetic-energy cutoff     =      60.0000  Ry
     charge density cutoff     =     720.0000  Ry
     convergence threshold     =      1.0E-08
     mixing beta               =       0.5000
     number of iterations used =           10  local-TF  mixing
     Exchange-correlation= SLA PW PBE PBE
                           (   1   4   3   4   0   0   0)

     celldm(1)=  14.813271  celldm(2)=   0.000000  celldm(3)=   0.000000
     celldm(4)=   0.000000  celldm(5)=   0.000000  celldm(6)=   0.000000

     crystal axes: (cart. coord. in units of alat)
               a(1) = (   1.000000   0.000000   0.000000 )  
               a(2) = (   0.000000   0.477453   0.000000 )  
               a(3) = (   0.000000   0.000000   6.509890 )  

     reciprocal axes: (cart. coord. in units 2 pi/alat)
               b(1) = (  1.000000  0.000000  0.000000 )  
               b(2) = (  0.000000  2.094448  0.000000 )  
               b(3) = (  0.000000  0.000000  0.153612 )  


     PseudoPot. # 1 for Ba read from file:
     ./pseudo/Ba.pbe-nsp-van.UPF
     MD5 check sum: 2b9c31dd849566dd297d80989662b7a0
     Pseudo is Ultrasoft + core correction, Zval = 10.0
     Generated by new atomic code, or converted to UPF format
     Using radial grid of  907 points,  6 beta functions with: 
                l(1) =   0
                l(2) =   0
                l(3) =   1
                l(4) =   1
                l(5) =   2
                l(6) =   2
     Q(r) pseudized with  6 coefficients,  rinner =    1.200   1.200   1.200
                                                       1.200   1.200

     PseudoPot. # 2 for Ca read from file:
     ./pseudo/Ca.pbe-nsp-van.UPF
     MD5 check sum: 6471098428ff4fa451746d08035ff179
     Pseudo is Ultrasoft + core correction, Zval = 10.0
     Generated by new atomic code, or converted to UPF format
     Using radial grid of  845 points,  6 beta functions with: 
                l(1) =   0
                l(2) =   0
                l(3) =   1
                l(4) =   1
                l(5) =   2
                l(6) =   2
     Q(r) pseudized with  6 coefficients,  rinner =    1.200   1.200   1.200
                                                       1.200   1.200

     PseudoPot. # 3 for Cu read from file:
     ./pseudo/Cu.pbe-n-van_ak.UPF
     MD5 check sum: 34e3282627ffb533726feb647e090d62
     Pseudo is Ultrasoft + core correction, Zval = 11.0
     Generated by new atomic code, or converted to UPF format
     Using radial grid of  867 points,  6 beta functions with: 
                l(1) =   0
                l(2) =   0
                l(3) =   1
                l(4) =   1
                l(5) =   2
                l(6) =   2
     Q(r) pseudized with  8 coefficients,  rinner =    1.400   1.400   1.400
                                                       1.400   1.400

     PseudoPot. # 4 for O  read from file:
     ./pseudo/O.pbe-van_ak.UPF
     MD5 check sum: 783ce7fe4c79b6a4916957118fed0856
     Pseudo is Ultrasoft, Zval =  6.0
     Generated by new atomic code, or converted to UPF format
     Using radial grid of  737 points,  4 beta functions with: 
                l(1) =   0
                l(2) =   0
                l(3) =   1
                l(4) =   1
     Q(r) pseudized with  8 coefficients,  rinner =    0.800   0.800   0.800


     PseudoPot. # 5 for Y  read from file:
     ./pseudo/Y.pbe-nsp-van.UPF
     MD5 check sum: 4412fed3ab108fed87a1b7d6a69a4a38
     Pseudo is Ultrasoft + core correction, Zval = 11.0
     Generated by new atomic code, or converted to UPF format
     Using radial grid of  885 points,  6 beta functions with: 
                l(1) =   0
                l(2) =   0
                l(3) =   1
                l(4) =   1
                l(5) =   2
                l(6) =   2
     Q(r) pseudized with  6 coefficients,  rinner =    1.200   1.200   1.200
                                                       1.200   1.200

     atomic species   valence    mass     pseudopotential
        Ba            10.00   137.32700     Ba( 1.00)
        Ca            10.00    40.07800     Ca( 1.00)
        Cu            11.00    63.54600     Cu( 1.00)
        O              6.00    15.99900     O ( 1.00)
        Y             11.00    88.90584     Y ( 1.00)

      4 Sym. Ops. (no inversion) found ( 2 have fractional translation)



   Cartesian axes

     site n.     atom                  positions (alat units)
         1           O   tau(   1) = (  -0.0008343   0.2387265  -0.0222443  )
         2           O   tau(   2) = (   0.5008340   0.2387265  -0.0222443  )
         3           Cu  tau(   3) = (   0.5017257   0.0000000   0.0109608  )
         4           Cu  tau(   4) = (  -0.0017260   0.0000000   0.0109608  )
         5           O   tau(   5) = (  -0.0028933   0.0000000   0.2506504  )
         6           O   tau(   6) = (   0.5028929   0.0000000   0.2506504  )
         7           Ba  tau(   7) = (   0.7499995   0.2387265   0.2749435  )
         8           Ba  tau(   8) = (   0.2499998   0.2387265   0.2755214  )
         9           Cu  tau(   9) = (   0.4980963   0.0000000   0.5208446  )
        10           Cu  tau(  10) = (   0.0019033   0.0000000   0.5208446  )
        11           O   tau(  11) = (   0.2499998   0.0000000   0.5341884  )
        12           O   tau(  12) = (   0.5083351   0.2387265   0.5569851  )
        13           O   tau(  13) = (  -0.0083354   0.2387265   0.5569851  )
        14           O   tau(  14) = (   0.7499995   0.0000000   0.5573831  )
        15           Ca  tau(  15) = (   0.2499998   0.2387265   0.7436937  )
        16           Y   tau(  16) = (   0.7499995   0.2387265   0.7469544  )
        17           O   tau(  17) = (  -0.0063798   0.2387265   0.9248530  )
        18           O   tau(  18) = (   0.5063794   0.2387265   0.9248530  )
        19           O   tau(  19) = (   0.7499995   0.0000000   0.9338544  )
        20           O   tau(  20) = (   0.2499998   0.0000000   0.9461329  )
        21           Cu  tau(  21) = (   0.0015717   0.0000000   0.9686860  )
        22           Cu  tau(  22) = (   0.4984280   0.0000000   0.9686860  )
        23           Ba  tau(  23) = (   0.2499998   0.2387265   1.2085224  )
        24           Ba  tau(  24) = (   0.7499995   0.2387265   1.2233294  )
        25           O   tau(  25) = (   0.0063772   0.0000000   1.2547537  )
        26           O   tau(  26) = (   0.4936224   0.0000000   1.2547537  )
        27           O   tau(  27) = (   0.5384045   0.2387265   1.4952521  )
        28           O   tau(  28) = (  -0.0384049   0.2387265   1.4952521  )
        29           Cu  tau(  29) = (   0.5006120   0.0000000   1.4952546  )
        30           Cu  tau(  30) = (  -0.0006123   0.0000000   1.4952546  )
        31           O   tau(  31) = (   0.4936212   0.0000000   2.6287417  )
        32           O   tau(  32) = (   0.0063785   0.0000000   2.6287417  )
        33           Ba  tau(  33) = (   0.7499995   0.2387265   2.6601711  )
        34           Ba  tau(  34) = (   0.2499998   0.2387265   2.6749807  )
        35           Cu  tau(  35) = (   0.4984280   0.0000000   2.9148119  )
        36           Cu  tau(  36) = (   0.0015717   0.0000000   2.9148119  )
        37           O   tau(  37) = (   0.2499998   0.0000000   2.9373701  )
        38           O   tau(  38) = (   0.7499995   0.0000000   2.9496397  )
        39           O   tau(  39) = (   0.5063781   0.2387265   2.9586449  )
        40           O   tau(  40) = (  -0.0063785   0.2387265   2.9586449  )
        41           Y   tau(  41) = (   0.7499995   0.2387265   3.1365384  )
        42           Ca  tau(  42) = (   0.2499998   0.2387265   3.1398080  )
        43           O   tau(  43) = (   0.7499995   0.0000000   3.3261059  )
        44           O   tau(  44) = (  -0.0083354   0.2387265   3.3265077  )
        45           O   tau(  45) = (   0.5083351   0.2387265   3.3265077  )
        46           O   tau(  46) = (   0.2499998   0.0000000   3.3493057  )
        47           Cu  tau(  47) = (   0.0019059   0.0000000   3.3626393  )
        48           Cu  tau(  48) = (   0.4980938   0.0000000   3.3626393  )
        49           Ba  tau(  49) = (   0.2499998   0.2387265   3.6079790  )
        50           Ba  tau(  50) = (   0.7499995   0.2387265   3.6085212  )
        51           O   tau(  51) = (  -0.0028895   0.0000000   3.6328283  )
        52           O   tau(  52) = (   0.5028891   0.0000000   3.6328283  )
        53           Cu  tau(  53) = (   0.5017844   0.0000000   3.8725129  )
        54           Cu  tau(  54) = (  -0.0017847   0.0000000   3.8725129  )
        55           O   tau(  55) = (   0.5008990   0.2387265   3.9057193  )
        56           O   tau(  56) = (  -0.0008994   0.2387265   3.9057193  )

     number of k points=    25  Gaussian smearing, width (Ry)=  0.0100
                       cart. coord. in units 2pi/alat
        k(    1) = (   0.0000000   0.0000000   0.0000000), wk =   0.0312500
        k(    2) = (   0.0000000   0.2618060   0.0000000), wk =   0.0625000
        k(    3) = (   0.0000000   0.5236121   0.0000000), wk =   0.0625000
        k(    4) = (   0.0000000   0.7854181   0.0000000), wk =   0.0625000
        k(    5) = (   0.0000000  -1.0472241   0.0000000), wk =   0.0312500
        k(    6) = (   0.1250000   0.0000000   0.0000000), wk =   0.0625000
        k(    7) = (   0.1250000   0.2618060   0.0000000), wk =   0.1250000
        k(    8) = (   0.1250000   0.5236121   0.0000000), wk =   0.1250000
        k(    9) = (   0.1250000   0.7854181   0.0000000), wk =   0.1250000
        k(   10) = (   0.1250000  -1.0472241   0.0000000), wk =   0.0625000
        k(   11) = (   0.2500000   0.0000000   0.0000000), wk =   0.0625000
        k(   12) = (   0.2500000   0.2618060   0.0000000), wk =   0.1250000
        k(   13) = (   0.2500000   0.5236121   0.0000000), wk =   0.1250000
        k(   14) = (   0.2500000   0.7854181   0.0000000), wk =   0.1250000
        k(   15) = (   0.2500000  -1.0472241   0.0000000), wk =   0.0625000
        k(   16) = (   0.3750000   0.0000000   0.0000000), wk =   0.0625000
        k(   17) = (   0.3750000   0.2618060   0.0000000), wk =   0.1250000
        k(   18) = (   0.3750000   0.5236121   0.0000000), wk =   0.1250000
        k(   19) = (   0.3750000   0.7854181   0.0000000), wk =   0.1250000
        k(   20) = (   0.3750000  -1.0472241   0.0000000), wk =   0.0625000
        k(   21) = (  -0.5000000   0.0000000   0.0000000), wk =   0.0312500
        k(   22) = (  -0.5000000   0.2618060   0.0000000), wk =   0.0625000
        k(   23) = (  -0.5000000   0.5236121   0.0000000), wk =   0.0625000
        k(   24) = (  -0.5000000   0.7854181   0.0000000), wk =   0.0625000
        k(   25) = (  -0.5000000  -1.0472241   0.0000000), wk =   0.0312500

     Dense  grid:  3296173 G-vectors     FFT dimensions: ( 128,  64, 864)

     Smooth grid:   634629 G-vectors     FFT dimensions: (  80,  36, 480)

     Estimated max dynamical RAM per process >     951.94 MB

     Estimated total dynamical RAM >      29.75 GB

     Initial potential from superposition of free atoms

     starting charge  455.69457, renormalised to  456.00000

     negative rho (up, down):  9.295E-02 0.000E+00
     Starting wfcs are  396 randomized atomic wfcs

     total cpu time spent up to now is       28.6 secs

     Self-consistent Calculation

     iteration #  1     ecut=    60.00 Ry     beta= 0.50
     Davidson diagonalization with overlap
     ethr =  1.00E-02,  avg # of iterations =  2.0

     negative rho (up, down):  8.599E-02 0.000E+00

     total cpu time spent up to now is       78.8 secs

     total energy              =   -3708.26782764 Ry
     Harris-Foulkes estimate   =   -3716.45574052 Ry
     estimated scf accuracy    <      32.26423496 Ry

     iteration #  2     ecut=    60.00 Ry     beta= 0.50
     Davidson diagonalization with overlap
     ethr =  7.08E-03,  avg # of iterations =  2.0

     negative rho (up, down):  8.577E-02 0.000E+00

     total cpu time spent up to now is      128.5 secs

     total energy              =   -3711.05223796 Ry
     Harris-Foulkes estimate   =   -3712.31147281 Ry
     estimated scf accuracy    <       7.59900679 Ry

     iteration #  3     ecut=    60.00 Ry     beta= 0.50
     Davidson diagonalization with overlap
     ethr =  1.67E-03,  avg # of iterations =  2.0

     negative rho (up, down):  8.612E-02 0.000E+00

     total cpu time spent up to now is      178.2 secs

     total energy              =   -3711.62039108 Ry
     Harris-Foulkes estimate   =   -3711.95218505 Ry
     estimated scf accuracy    <      12.56945190 Ry

     iteration #  4     ecut=    60.00 Ry     beta= 0.50
     Davidson diagonalization with overlap
     ethr =  1.67E-03,  avg # of iterations =  1.0

     negative rho (up, down):  8.701E-02 0.000E+00

     total cpu time spent up to now is      224.2 secs

     total energy              =   -3711.62052847 Ry
     Harris-Foulkes estimate   =   -3711.77160002 Ry
     estimated scf accuracy    <       3.37480822 Ry

     iteration #  5     ecut=    60.00 Ry     beta= 0.50
     Davidson diagonalization with overlap
     ethr =  7.40E-04,  avg # of iterations =  1.0

     negative rho (up, down):  8.778E-02 0.000E+00

     total cpu time spent up to now is      270.1 secs

     total energy              =   -3711.60666072 Ry
     Harris-Foulkes estimate   =   -3711.70743331 Ry
     estimated scf accuracy    <       4.26300767 Ry

     iteration #  6     ecut=    60.00 Ry     beta= 0.50
     Davidson diagonalization with overlap
     ethr =  7.40E-04,  avg # of iterations =  1.0

     negative rho (up, down):  8.863E-02 0.000E+00

     total cpu time spent up to now is      315.5 secs

     total energy              =   -3711.59768963 Ry
     Harris-Foulkes estimate   =   -3711.64512024 Ry
     estimated scf accuracy    <       1.34049379 Ry

     iteration #  7     ecut=    60.00 Ry     beta= 0.50
     Davidson diagonalization with overlap
     ethr =  2.94E-04,  avg # of iterations =  4.9

     negative rho (up, down):  8.990E-02 0.000E+00

     total cpu time spent up to now is      372.8 secs

     total energy              =   -3711.57405988 Ry
     Harris-Foulkes estimate   =   -3711.61386058 Ry
     estimated scf accuracy    <       0.98436951 Ry

     iteration #  8     ecut=    60.00 Ry     beta= 0.50
     Davidson diagonalization with overlap
     ethr =  2.16E-04,  avg # of iterations =  7.7

     negative rho (up, down):  9.040E-02 0.000E+00

     total cpu time spent up to now is      439.4 secs

     total energy              =   -3711.56622792 Ry
     Harris-Foulkes estimate   =   -3711.59008079 Ry
     estimated scf accuracy    <       1.16849363 Ry

     iteration #  9     ecut=    60.00 Ry     beta= 0.50
     Davidson diagonalization with overlap
     ethr =  2.16E-04,  avg # of iterations =  1.4

     negative rho (up, down):  9.084E-02 0.000E+00

     total cpu time spent up to now is      486.2 secs

     total energy              =   -3711.54393244 Ry
     Harris-Foulkes estimate   =   -3711.57243323 Ry
     estimated scf accuracy    <       0.49951944 Ry

     iteration # 10     ecut=    60.00 Ry     beta= 0.50
     Davidson diagonalization with overlap
     ethr =  1.10E-04,  avg # of iterations =  6.1

     negative rho (up, down):  9.075E-02 0.000E+00

     total cpu time spent up to now is      548.1 secs

     total energy              =   -3711.52061708 Ry
     Harris-Foulkes estimate   =   -3711.55148561 Ry
     estimated scf accuracy    <       0.48120347 Ry

     iteration # 11     ecut=    60.00 Ry     beta= 0.50
     Davidson diagonalization with overlap
     ethr =  1.06E-04,  avg # of iterations =  7.7

     negative rho (up, down):  9.171E-02 0.000E+00

     total cpu time spent up to now is      615.4 secs

     total energy              =   -3711.52220830 Ry
     Harris-Foulkes estimate   =   -3711.53049385 Ry
     estimated scf accuracy    <       0.21966013 Ry

     iteration # 12     ecut=    60.00 Ry     beta= 0.50
     Davidson diagonalization with overlap
     ethr =  4.82E-05,  avg # of iterations =  4.7

     negative rho (up, down):  9.127E-02 0.000E+00

     total cpu time spent up to now is      671.8 secs

     total energy              =   -3711.52409955 Ry
     Harris-Foulkes estimate   =   -3711.52500977 Ry
     estimated scf accuracy    <       0.04302235 Ry

     iteration # 13     ecut=    60.00 Ry     beta= 0.50
     Davidson diagonalization with overlap
     ethr =  9.43E-06,  avg # of iterations = 10.4

     negative rho (up, down):  9.089E-02 0.000E+00

     total cpu time spent up to now is      750.4 secs

     total energy              =   -3711.52304947 Ry
     Harris-Foulkes estimate   =   -3711.52460423 Ry
     estimated scf accuracy    <       0.03632235 Ry

     iteration # 14     ecut=    60.00 Ry     beta= 0.50
     Davidson diagonalization with overlap
     ethr =  7.97E-06,  avg # of iterations =  4.0

     negative rho (up, down):  9.211E-02 0.000E+00

     total cpu time spent up to now is      805.0 secs

     total energy              =   -3711.52268723 Ry
     Harris-Foulkes estimate   =   -3711.52355082 Ry
     estimated scf accuracy    <       0.01801958 Ry

     iteration # 15     ecut=    60.00 Ry     beta= 0.50
     Davidson diagonalization with overlap
     c_bands:  1 eigenvalues not converged
     c_bands:  1 eigenvalues not converged
     ethr =  3.95E-06,  avg # of iterations =  9.7

     negative rho (up, down):  1.011E-01 0.000E+00

     total cpu time spent up to now is      878.0 secs

     total energy              =   -3711.52268006 Ry
     Harris-Foulkes estimate   =   -3711.52305152 Ry
     estimated scf accuracy    <       0.02819256 Ry

     iteration # 16     ecut=    60.00 Ry     beta= 0.50
     Davidson diagonalization with overlap
     ethr =  3.95E-06,  avg # of iterations =  4.6

     negative rho (up, down):  8.956E-02 0.000E+00

     total cpu time spent up to now is      934.9 secs

     total energy              =   -3711.52221038 Ry
     Harris-Foulkes estimate   =   -3711.52285084 Ry
     estimated scf accuracy    <       0.04299995 Ry

     iteration # 17     ecut=    60.00 Ry     beta= 0.50
     Davidson diagonalization with overlap
     ethr =  3.95E-06,  avg # of iterations =  7.5

     negative rho (up, down):  8.986E-02 0.000E+00

     total cpu time spent up to now is     1000.2 secs

     total energy              =   -3711.52078324 Ry
     Harris-Foulkes estimate   =   -3711.52232427 Ry
     estimated scf accuracy    <       0.02960200 Ry

     iteration # 18     ecut=    60.00 Ry     beta= 0.50
     Davidson diagonalization with overlap
     ethr =  3.95E-06,  avg # of iterations =  6.9

     negative rho (up, down):  9.009E-02 0.000E+00

     total cpu time spent up to now is     1064.2 secs

     total energy              =   -3711.51975646 Ry
     Harris-Foulkes estimate   =   -3711.52090306 Ry
     estimated scf accuracy    <       0.03924403 Ry

     iteration # 19     ecut=    60.00 Ry     beta= 0.50
     Davidson diagonalization with overlap
     ethr =  3.95E-06,  avg # of iterations = 11.0

     negative rho (up, down):  9.019E-02 0.000E+00

     total cpu time spent up to now is     1144.7 secs

     total energy              =   -3711.51822558 Ry
     Harris-Foulkes estimate   =   -3711.52013271 Ry
     estimated scf accuracy    <       0.00866935 Ry

     iteration # 20     ecut=    60.00 Ry     beta= 0.50
     Davidson diagonalization with overlap
     ethr =  1.90E-06,  avg # of iterations =  9.7

     negative rho (up, down):  9.085E-02 0.000E+00

     total cpu time spent up to now is     1220.7 secs

     total energy              =   -3711.51734758 Ry
     Harris-Foulkes estimate   =   -3711.51847449 Ry
     estimated scf accuracy    <       0.01330165 Ry

     iteration # 21     ecut=    60.00 Ry     beta= 0.50
     Davidson diagonalization with overlap
     ethr =  1.90E-06,  avg # of iterations = 10.3

     negative rho (up, down):  9.728E-02 0.000E+00

     total cpu time spent up to now is     1298.5 secs

     total energy              =   -3711.51725907 Ry
     Harris-Foulkes estimate   =   -3711.51749019 Ry
     estimated scf accuracy    <       0.00643390 Ry

     iteration # 22     ecut=    60.00 Ry     beta= 0.50
     Davidson diagonalization with overlap
     c_bands:  1 eigenvalues not converged
     ethr =  1.41E-06,  avg # of iterations = 12.7

     negative rho (up, down):  9.595E-02 0.000E+00

     total cpu time spent up to now is     1385.2 secs

     total energy              =   -3711.51765025 Ry
     Harris-Foulkes estimate   =   -3711.51742783 Ry
     estimated scf accuracy    <       0.00260874 Ry

     iteration # 23     ecut=    60.00 Ry     beta= 0.50
     Davidson diagonalization with overlap
     c_bands:  1 eigenvalues not converged
     c_bands:  1 eigenvalues not converged
     c_bands:  1 eigenvalues not converged
     c_bands:  1 eigenvalues not converged
     c_bands:  1 eigenvalues not converged
     c_bands:  1 eigenvalues not converged
     ethr =  5.72E-07,  avg # of iterations = 13.0

     negative rho (up, down):  9.493E-02 0.000E+00

     total cpu time spent up to now is     1471.4 secs

     total energy              =   -3711.51772243 Ry
     Harris-Foulkes estimate   =   -3711.51771971 Ry
     estimated scf accuracy    <       0.00144114 Ry

     iteration # 24     ecut=    60.00 Ry     beta= 0.50
     Davidson diagonalization with overlap
     c_bands:  1 eigenvalues not converged
     c_bands:  1 eigenvalues not converged
     ethr =  3.16E-07,  avg # of iterations =  4.2

     negative rho (up, down):  9.408E-02 0.000E+00

     total cpu time spent up to now is     1527.1 secs

     total energy              =   -3711.51770355 Ry
     Harris-Foulkes estimate   =   -3711.51773081 Ry
     estimated scf accuracy    <       0.00105310 Ry

     iteration # 25     ecut=    60.00 Ry     beta= 0.50
     Davidson diagonalization with overlap
     c_bands:  1 eigenvalues not converged
     c_bands:  1 eigenvalues not converged
     c_bands:  1 eigenvalues not converged
     ethr =  2.31E-07,  avg # of iterations =  6.0

     negative rho (up, down):  9.200E-02 0.000E+00

     total cpu time spent up to now is     1586.8 secs

     total energy              =   -3711.51765979 Ry
     Harris-Foulkes estimate   =   -3711.51771261 Ry
     estimated scf accuracy    <       0.00106969 Ry

     iteration # 26     ecut=    60.00 Ry     beta= 0.50
     Davidson diagonalization with overlap
     c_bands:  1 eigenvalues not converged
     ethr =  2.31E-07,  avg # of iterations =  7.4

     negative rho (up, down):  9.190E-02 0.000E+00

     total cpu time spent up to now is     1650.5 secs

     total energy              =   -3711.51765641 Ry
     Harris-Foulkes estimate   =   -3711.51767047 Ry
     estimated scf accuracy    <       0.00026949 Ry

     iteration # 27     ecut=    60.00 Ry     beta= 0.50
     Davidson diagonalization with overlap
     ethr =  5.91E-08,  avg # of iterations =  1.2

     negative rho (up, down):  9.208E-02 0.000E+00

     total cpu time spent up to now is     1696.6 secs

     total energy              =   -3711.51765336 Ry
     Harris-Foulkes estimate   =   -3711.51766142 Ry
     estimated scf accuracy    <       0.00011261 Ry

     iteration # 28     ecut=    60.00 Ry     beta= 0.50
     Davidson diagonalization with overlap
     ethr =  2.47E-08,  avg # of iterations =  1.0

     negative rho (up, down):  9.234E-02 0.000E+00

     total cpu time spent up to now is     1742.2 secs

     total energy              =   -3711.51765311 Ry
     Harris-Foulkes estimate   =   -3711.51765745 Ry
     estimated scf accuracy    <       0.00004510 Ry

     iteration # 29     ecut=    60.00 Ry     beta= 0.50
     Davidson diagonalization with overlap
     ethr =  9.89E-09,  avg # of iterations =  1.0

     negative rho (up, down):  9.202E-02 0.000E+00

     total cpu time spent up to now is     1788.0 secs

     total energy              =   -3711.51765532 Ry
     Harris-Foulkes estimate   =   -3711.51765544 Ry
     estimated scf accuracy    <       0.00004317 Ry

     iteration # 30     ecut=    60.00 Ry     beta= 0.50
     Davidson diagonalization with overlap
     ethr =  9.47E-09,  avg # of iterations =  1.0

     negative rho (up, down):  9.217E-02 0.000E+00

     total cpu time spent up to now is     1833.5 secs

     total energy              =   -3711.51765566 Ry
     Harris-Foulkes estimate   =   -3711.51765590 Ry
     estimated scf accuracy    <       0.00000710 Ry

     iteration # 31     ecut=    60.00 Ry     beta= 0.50
     Davidson diagonalization with overlap
     ethr =  1.56E-09,  avg # of iterations =  1.2

     negative rho (up, down):  9.201E-02 0.000E+00

     total cpu time spent up to now is     1879.9 secs

     total energy              =   -3711.51765574 Ry
     Harris-Foulkes estimate   =   -3711.51765584 Ry
     estimated scf accuracy    <       0.00000184 Ry

     iteration # 32     ecut=    60.00 Ry     beta= 0.50
     Davidson diagonalization with overlap
     ethr =  4.04E-10,  avg # of iterations =  3.0

     negative rho (up, down):  9.207E-02 0.000E+00

     total cpu time spent up to now is     1932.2 secs

     total energy              =   -3711.51765594 Ry
     Harris-Foulkes estimate   =   -3711.51765583 Ry
     estimated scf accuracy    <       0.00000122 Ry

     iteration # 33     ecut=    60.00 Ry     beta= 0.50
     Davidson diagonalization with overlap
     ethr =  2.67E-10,  avg # of iterations =  1.9

     negative rho (up, down):  9.207E-02 0.000E+00

     total cpu time spent up to now is     1980.6 secs

     total energy              =   -3711.51765616 Ry
     Harris-Foulkes estimate   =   -3711.51765599 Ry
     estimated scf accuracy    <       0.00000062 Ry

     iteration # 34     ecut=    60.00 Ry     beta= 0.50
     Davidson diagonalization with overlap
     ethr =  1.37E-10,  avg # of iterations =  2.1

     negative rho (up, down):  9.205E-02 0.000E+00

     total cpu time spent up to now is     2029.8 secs

     total energy              =   -3711.51765635 Ry
     Harris-Foulkes estimate   =   -3711.51765620 Ry
     estimated scf accuracy    <       0.00000063 Ry

     iteration # 35     ecut=    60.00 Ry     beta= 0.50
     Davidson diagonalization with overlap
     ethr =  1.37E-10,  avg # of iterations =  1.8

     negative rho (up, down):  9.203E-02 0.000E+00

     total cpu time spent up to now is     2077.9 secs

     total energy              =   -3711.51765641 Ry
     Harris-Foulkes estimate   =   -3711.51765636 Ry
     estimated scf accuracy    <       0.00000124 Ry

     iteration # 36     ecut=    60.00 Ry     beta= 0.50
     Davidson diagonalization with overlap
     ethr =  1.37E-10,  avg # of iterations =  1.0

     negative rho (up, down):  9.202E-02 0.000E+00

     total cpu time spent up to now is     2123.8 secs

     total energy              =   -3711.51765644 Ry
     Harris-Foulkes estimate   =   -3711.51765642 Ry
     estimated scf accuracy    <       0.00000045 Ry

     iteration # 37     ecut=    60.00 Ry     beta= 0.50
     Davidson diagonalization with overlap
     ethr =  9.95E-11,  avg # of iterations =  1.0

     negative rho (up, down):  9.203E-02 0.000E+00

     total cpu time spent up to now is     2169.5 secs

     total energy              =   -3711.51765641 Ry
     Harris-Foulkes estimate   =   -3711.51765644 Ry
     estimated scf accuracy    <       0.00000004 Ry

     iteration # 38     ecut=    60.00 Ry     beta= 0.50
     Davidson diagonalization with overlap
     ethr =  8.98E-12,  avg # of iterations =  2.9

     negative rho (up, down):  9.207E-02 0.000E+00

     total cpu time spent up to now is     2220.5 secs

     total energy              =   -3711.51765636 Ry
     Harris-Foulkes estimate   =   -3711.51765642 Ry
     estimated scf accuracy    <       0.00000004 Ry

     iteration # 39     ecut=    60.00 Ry     beta= 0.50
     Davidson diagonalization with overlap
     ethr =  8.98E-12,  avg # of iterations =  1.5

     negative rho (up, down):  9.208E-02 0.000E+00

     total cpu time spent up to now is     2267.3 secs

     total energy              =   -3711.51765635 Ry
     Harris-Foulkes estimate   =   -3711.51765636 Ry
     estimated scf accuracy    <       0.00000002 Ry

     iteration # 40     ecut=    60.00 Ry     beta= 0.50
     Davidson diagonalization with overlap
     ethr =  3.84E-12,  avg # of iterations =  1.6

     negative rho (up, down):  9.209E-02 0.000E+00

     total cpu time spent up to now is     2313.7 secs

     End of self-consistent calculation

          k = 0.0000 0.0000 0.0000 ( 79365 PWs)   bands (ev):

   -39.0297 -38.9664 -36.6647 -36.5923 -23.8262 -23.7734 -23.7624 -23.6451
   -23.6341 -23.6223 -23.4544 -23.2461 -19.5028 -19.4489 -19.4026 -19.3407
   -19.0337 -18.9691 -18.0107 -17.9413 -17.8772 -17.8089 -17.6961 -17.6201
   -16.4069 -16.3657 -15.9477 -15.9284 -15.7382 -15.6196 -15.5643 -15.5550
   -15.5114 -15.4814 -15.4217 -15.4113 -15.3996 -15.3846 -15.2695 -15.2577
   -15.0932 -15.0496 -14.9809 -14.9488 -14.9409 -14.9376 -14.9338 -14.9236
   -14.8966 -14.8223 -14.7494 -14.7004 -13.8064 -13.3332  -9.1732  -9.0123
    -8.9986  -8.9048  -8.8912  -8.8586  -8.8225  -8.8121  -8.7223  -8.6844
    -8.6737  -8.6682  -8.6332  -8.5879  -8.5776  -8.5521  -8.5436  -8.5074
    -8.4561  -8.4466  -8.4357  -8.2738  -8.0843  -7.9821  -3.9526  -3.9288
    -3.8406  -3.7416  -3.1265  -3.1203  -3.0397  -3.0376  -3.0331  -3.0027
    -2.8940  -2.8430  -2.8321  -2.8062  -2.8025  -2.7845  -2.7414  -2.7411
    -2.6755  -2.6368  -2.6317  -2.5774  -2.5258  -2.4689  -2.3325  -2.3024
    -2.1475  -2.0973  -2.0758  -2.0570  -1.9816  -1.9218  -1.8947  -1.8795
    -1.8719  -1.8704  -1.8631  -1.8608  -1.8386  -1.8372  -1.7759  -1.7010
    -1.6468  -1.6395  -1.3982  -1.3552  -1.2835  -1.2184  -1.2107  -1.2007
    -1.2005  -1.1739  -1.1713  -1.1553  -1.1361  -1.1239  -1.0883  -1.0835
    -1.0817  -1.0812  -1.0681  -1.0332  -0.9979  -0.9315  -0.9068  -0.8963
    -0.8955  -0.8864  -0.8715  -0.8276  -0.8217  -0.8091  -0.8049  -0.7762
    -0.7751  -0.7720  -0.7679  -0.6928  -0.6769  -0.6691  -0.6533  -0.6373
    -0.6307  -0.6297  -0.5816  -0.5522  -0.5430  -0.5262  -0.4742  -0.4314
    -0.4005  -0.3879  -0.3675  -0.3663  -0.3502  -0.3428  -0.3365  -0.3359
    -0.1744  -0.1506  -0.0746  -0.0166   0.0021   0.0598   0.0859   0.0982
     0.1095   0.1312   0.1371   0.1714   0.2530   0.2806   0.2994   0.3141
     0.3197   0.3230   0.3247   0.3265   0.4044   0.4291   0.4422   0.4753
     0.4841   0.4846   0.4999   0.5287   0.5666   0.5807   0.6499   0.7043
     0.7131   0.7456   0.8150   0.8196   0.8233   0.8866   0.8887   0.8962
     0.9151   0.9486   0.9582   1.0066   1.0495   1.1569   1.1705   1.2220
     1.3279   1.3365   1.4579   1.5021   1.5032   1.5737   1.5953   1.6830
     1.6901   1.7117   1.7193   1.7635   1.9604   2.0144   4.1064   4.3400
     4.3457   4.9932   5.0239   5.4704   5.7022   5.7307   5.8315   5.9401
     6.1044   6.2634   6.3771   6.3840   6.4734   6.4808   6.6131   6.6482
     6.9775   7.0378   7.1610   7.1923   7.2189   7.2535   7.3527   7.4105
     7.4773   7.5454   7.6271   7.6657   7.6699   7.7688   7.9792   8.1437
     8.1782   8.2283

          k = 0.0000 0.2618 0.0000 ( 79361 PWs)   bands (ev):

   -39.0270 -38.9637 -36.6630 -36.5906 -23.8074 -23.7489 -23.7378 -23.6260
   -23.6150 -23.5985 -23.4354 -23.2256 -19.4642 -19.4101 -19.3954 -19.3334
   -19.1444 -19.0804 -17.9814 -17.9118 -17.8728 -17.8045 -17.7620 -17.6862
   -16.3007 -16.2599 -15.8919 -15.8727 -15.6832 -15.5814 -15.5508 -15.5204
   -15.5072 -15.4096 -15.3910 -15.3905 -15.3559 -15.3357 -15.2351 -15.2227
   -15.0880 -15.0456 -15.0416 -14.9963 -14.9603 -14.9274 -14.9266 -14.9242
   -14.9153 -14.8589 -14.7410 -14.7385 -13.7586 -13.3985  -9.1642  -9.0055
    -8.9928  -8.9172  -8.9045  -8.8709  -8.7788  -8.7684  -8.7275  -8.7198
    -8.7162  -8.7137  -8.7094  -8.6822  -8.6622  -8.6538  -8.6430  -8.6296
    -8.5540  -8.5449  -8.5349  -8.4841  -8.1672  -8.1005  -4.0633  -4.0259
    -3.8941  -3.7971  -3.2536  -3.2397  -3.2211  -3.1482  -3.1401  -3.1332
    -3.0160  -3.0094  -3.0022  -2.9522  -2.8895  -2.8317  -2.7759  -2.7522
    -2.6888  -2.6669  -2.6396  -2.6109  -2.5786  -2.5585  -2.4542  -2.4049
    -2.3913  -2.3785  -2.3213  -2.3121  -2.3086  -2.2880  -2.2858  -2.2756
    -2.2449  -2.1666  -1.9665  -1.8104  -1.7817  -1.7384  -1.6716  -1.6567
    -1.6106  -1.5318  -1.5243  -1.5172  -1.4561  -1.4509  -1.2992  -1.2924
    -1.2704  -1.2471  -1.2341  -1.2222  -1.2129  -1.2013  -1.1473  -1.1246
    -1.1237  -1.1110  -1.0456  -1.0388  -0.9568  -0.9291  -0.8978  -0.8886
    -0.8805  -0.8140  -0.8031  -0.7948  -0.7805  -0.7571  -0.7567  -0.7391
    -0.7379  -0.7143  -0.7088  -0.7084  -0.6710  -0.6184  -0.6126  -0.6069
    -0.5644  -0.5635  -0.5593  -0.5164  -0.5100  -0.4965  -0.4841  -0.4601
    -0.4577  -0.4458  -0.4250  -0.4048  -0.2692  -0.2339  -0.2259  -0.1678
    -0.1550  -0.1330  -0.0674  -0.0477   0.0356   0.0561   0.0686   0.1061
     0.1683   0.2331   0.2518   0.2770   0.2955   0.3081   0.3273   0.3286
     0.3746   0.3914   0.4031   0.4143   0.4371   0.4613   0.4897   0.5043
     0.5683   0.5848   0.6024   0.6069   0.6273   0.6350   0.6596   0.7660
     0.7676   0.7816   0.8300   0.8378   0.8426   0.8602   0.8979   0.9341
     0.9374   0.9468   0.9720   1.0179   1.0234   1.0970   1.1559   1.2060
     1.4494   1.4725   1.7208   1.7245   1.8122   1.8889   1.9150   1.9343
     1.9842   1.9925   2.0319   2.0617   2.2429   2.2728   4.3960   4.7142
     4.7213   5.2711   5.2952   5.6133   6.0227   6.0523   6.1168   6.2116
     6.2206   6.2543   6.2744   6.3348   6.6661   6.7004   6.7831   6.8435
     6.8494   6.8769   7.1289   7.2183   7.3376   7.4029   7.5115   7.5261
     7.5907   7.7486   7.8364   7.8391   7.8785   7.9706   8.1736   8.2579
     8.3523   8.3861

          k = 0.0000 0.5236 0.0000 ( 79249 PWs)   bands (ev):

   -39.0205 -38.9572 -36.6589 -36.5865 -23.7615 -23.6883 -23.6772 -23.5792
   -23.5681 -23.5400 -23.3888 -23.1753 -19.3853 -19.3779 -19.3638 -19.3223
   -19.3158 -19.3092 -17.9155 -17.8976 -17.8624 -17.8405 -17.8275 -17.7941
   -16.0591 -16.0205 -15.7452 -15.7255 -15.6016 -15.5628 -15.5472 -15.4887
   -15.4219 -15.3985 -15.3845 -15.3107 -15.1922 -15.1886 -15.1674 -15.1519
   -15.1372 -15.1128 -15.0601 -15.0363 -15.0311 -14.9359 -14.9142 -14.9006
   -14.8756 -14.8640 -14.8085 -14.7344 -13.6362 -13.5520  -9.1921  -9.1813
    -9.1438  -9.0323  -9.0225  -9.0220  -8.9772  -8.9687  -8.9565  -8.8980
    -8.8861  -8.8692  -8.8421  -8.8238  -8.7911  -8.7804  -8.6878  -8.6620
    -8.6515  -8.6294  -8.5660  -8.4621  -8.2639  -8.2555  -4.4695  -4.4142
    -4.1313  -4.0402  -3.7505  -3.7263  -3.6081  -3.5422  -3.3685  -3.3550
    -3.2821  -3.2325  -3.1735  -3.1664  -3.1586  -3.1329  -3.1255  -3.0391
    -2.9887  -2.9808  -2.9784  -2.9704  -2.9025  -2.8628  -2.7741  -2.7220
    -2.7097  -2.6823  -2.6192  -2.5693  -2.5492  -2.5462  -2.4959  -2.4935
    -2.1616  -2.1102  -2.0310  -1.9101  -1.8946  -1.8670  -1.8162  -1.7756
    -1.7404  -1.7300  -1.7014  -1.6944  -1.5609  -1.5519  -1.5505  -1.5196
    -1.4753  -1.4687  -1.4675  -1.4479  -1.4113  -1.4029  -1.3710  -1.3362
    -1.3283  -1.2921  -1.2794  -1.2401  -1.2321  -1.1750  -1.1606  -1.1541
    -1.0891  -0.9810  -0.9720  -0.9280  -0.8817  -0.8389  -0.7847  -0.7740
    -0.6912  -0.6893  -0.6584  -0.6321  -0.5886  -0.5836  -0.5758  -0.5438
    -0.4978  -0.4921  -0.4809  -0.4013  -0.3015  -0.2653  -0.2461  -0.2302
    -0.1351  -0.0780  -0.0740  -0.0577  -0.0472   0.1132   0.1412   0.1519
     0.1584   0.1738   0.1751   0.2042   0.2765   0.3091   0.3459   0.3589
     0.3704   0.3731   0.3768   0.4024   0.4028   0.4605   0.4797   0.4802
     0.4999   0.5256   0.5304   0.5562   0.5699   0.5830   0.5922   0.6611
     0.6873   0.7396   0.7715   0.7862   0.7912   0.7970   0.8278   0.8657
     0.9114   0.9121   0.9137   0.9196   0.9457   0.9609   0.9730   1.0328
     1.0386   1.0745   1.1005   1.1523   1.1797   1.1890   1.2696   1.2740
     1.3363   1.3542   1.6719   1.8447   2.1211   2.1388   2.2025   2.2348
     2.2386   2.2466   2.9003   2.9237   2.9880   3.0213   4.9170   5.6129
     5.6210   5.7292   5.7393   5.9328   5.9980   6.0681   6.1423   6.2032
     6.2307   6.9000   6.9189   6.9571   6.9610   7.0712   7.1827   7.3300
     7.4350   7.5221   7.5388   7.5434   7.6572   7.6971   7.7797   7.8082
     7.8347   7.8747   7.9779   8.1044   8.1497   8.2006   8.3015   8.3724
     8.4898   8.5312

          k = 0.0000 0.7854 0.0000 ( 79264 PWs)   bands (ev):

   -39.0139 -38.9507 -36.6548 -36.5823 -23.7146 -23.6260 -23.6149 -23.5312
   -23.5202 -23.4800 -23.3409 -23.1236 -19.5933 -19.5306 -19.3604 -19.2983
   -19.2589 -19.2039 -18.0370 -17.9611 -17.8521 -17.8250 -17.7837 -17.7558
   -15.8257 -15.8032 -15.7188 -15.6664 -15.5717 -15.5489 -15.5101 -15.4507
   -15.4222 -15.4014 -15.3524 -15.2324 -15.2200 -15.2145 -15.0985 -15.0739
   -15.0678 -15.0539 -15.0242 -15.0066 -14.9971 -14.9246 -14.8614 -14.8479
   -14.8470 -14.8296 -14.8174 -14.7676 -13.6975 -13.5016  -9.5871  -9.5763
    -9.4089  -9.3274  -9.3178  -9.3170  -9.1290  -9.1217  -9.0796  -8.9726
    -8.9600  -8.9045  -8.8913  -8.8817  -8.8602  -8.8495  -8.7365  -8.6391
    -8.5897  -8.5409  -8.5303  -8.3496  -8.3426  -8.2265  -4.9556  -4.9007
    -4.5349  -4.4503  -4.1525  -4.1330  -3.9731  -3.9019  -3.7480  -3.7384
    -3.7068  -3.6818  -3.6720  -3.6049  -3.5065  -3.4988  -3.4120  -3.3520
    -3.2702  -3.2288  -3.0956  -3.0906  -3.0285  -3.0240  -2.8114  -2.7595
    -2.7413  -2.7361  -2.7275  -2.6795  -2.5863  -2.5515  -2.4187  -2.3829
    -2.3659  -2.1330  -2.1314  -2.0920  -2.0437  -1.9824  -1.9737  -1.9291
    -1.9115  -1.8996  -1.8598  -1.8539  -1.8239  -1.7767  -1.7754  -1.7017
    -1.6894  -1.6781  -1.6705  -1.6320  -1.6224  -1.6150  -1.6108  -1.5905
    -1.5100  -1.4922  -1.4892  -1.4809  -1.4491  -1.4298  -1.3046  -1.1002
    -1.0917  -1.0287  -0.9730  -0.9675  -0.9585  -0.8946  -0.8877  -0.7092
    -0.6924  -0.6682  -0.6569  -0.6466  -0.6179  -0.5837  -0.5714  -0.5682
    -0.4147  -0.3927  -0.3580  -0.3137  -0.0987  -0.0857  -0.0167   0.0245
     0.0732   0.1162   0.1542   0.1623   0.1748   0.1815   0.2726   0.3274
     0.3310   0.3683   0.3887   0.3910   0.4029   0.4339   0.4418   0.4834
     0.4872   0.5056   0.5419   0.5810   0.6493   0.6834   0.6870   0.6943
     0.7218   0.7914   0.8034   0.8061   0.8100   0.8394   0.8408   0.8595
     0.8678   0.9105   0.9159   0.9347   0.9462   0.9508   0.9836   0.9894
     1.0194   1.0509   1.0576   1.0981   1.1151   1.1200   1.1338   1.2670
     1.2979   1.3101   1.3587   1.3691   1.3733   1.3749   1.4939   1.5840
     1.5935   1.6820   1.6890   1.8105   1.9958   2.0607   2.0657   2.1632
     2.1715   2.2068   3.5282   3.5629   3.6009   3.6188   5.0289   5.2006
     5.2079   5.7843   5.8890   6.4323   6.5289   6.5463   6.6292   6.8847
     6.9599   7.2056   7.3434   7.5068   7.5857   7.6195   7.6271   7.6481
     7.6996   7.8042   7.8572   7.9340   7.9773   8.0103   8.0614   8.1189
     8.2342   8.2448   8.2956   8.3097   8.3915   8.4399   8.4812   8.5343
     8.5596   8.7052

          k = 0.0000-1.0472 0.0000 ( 79346 PWs)   bands (ev):

   -39.0112 -38.9480 -36.6531 -36.5806 -23.6949 -23.5996 -23.5885 -23.5110
   -23.5000 -23.4546 -23.3207 -23.1018 -19.6738 -19.6113 -19.3532 -19.2910
   -19.2117 -19.1565 -18.0873 -18.0115 -17.8478 -17.7894 -17.7794 -17.7202
   -15.8272 -15.8023 -15.6502 -15.6173 -15.5885 -15.5095 -15.4830 -15.4527
   -15.4100 -15.3826 -15.3786 -15.2296 -15.2165 -15.1190 -15.0849 -15.0793
   -15.0657 -15.0230 -15.0225 -15.0032 -14.9288 -14.8614 -14.8564 -14.8307
   -14.8180 -14.8149 -14.8120 -14.7994 -13.7548 -13.4414  -9.7404  -9.7295
    -9.5629  -9.4538  -9.4462  -9.4357  -9.2338  -9.2008  -9.1147  -8.9787
    -8.9646  -8.9005  -8.8885  -8.8878  -8.8848  -8.8772  -8.7660  -8.6305
    -8.5998  -8.4884  -8.4777  -8.3647  -8.3002  -8.1995  -5.1573  -5.1037
    -4.7212  -4.6383  -4.3066  -4.2894  -4.1226  -4.0474  -3.9828  -3.9723
    -3.9158  -3.9119  -3.9020  -3.8215  -3.5351  -3.5273  -3.4329  -3.3955
    -3.3694  -3.3548  -3.1177  -3.1130  -3.0157  -3.0113  -2.8724  -2.8262
    -2.8237  -2.7813  -2.7530  -2.7093  -2.5101  -2.4987  -2.4685  -2.2594
    -2.2333  -2.2068  -2.2053  -2.1986  -2.1283  -2.0891  -2.0834  -2.0325
    -1.9708  -1.9685  -1.9394  -1.9339  -1.9331  -1.9250  -1.8097  -1.7856
    -1.7838  -1.7591  -1.7311  -1.7294  -1.7208  -1.7109  -1.6953  -1.6840
    -1.5907  -1.5783  -1.5698  -1.5655  -1.4330  -1.4174  -1.3662  -1.0641
    -1.0556  -1.0019  -1.0011  -0.9829  -0.9652  -0.9506  -0.9114  -0.8587
    -0.6912  -0.6761  -0.6608  -0.6295  -0.6098  -0.5968  -0.5770  -0.5606
    -0.3850  -0.3415  -0.2971  -0.2944  -0.0177  -0.0153   0.0051   0.0895
     0.1380   0.1646   0.1714   0.1954   0.2850   0.2896   0.2923   0.3468
     0.3482   0.3925   0.4506   0.4637   0.4687   0.4823   0.4840   0.4912
     0.5040   0.5386   0.5528   0.5688   0.7207   0.7356   0.7649   0.7738
     0.8150   0.8427   0.8483   0.8663   0.8977   0.9410   0.9929   1.0073
     1.0082   1.0343   1.0361   1.0392   1.0681   1.0742   1.0931   1.0950
     1.1361   1.2080   1.2671   1.2752   1.2820   1.3011   1.3188   1.3306
     1.3403   1.3433   1.4653   1.5540   1.5633   1.5724   1.6100   1.7071
     1.7473   1.7569   1.7571   1.8159   1.8475   1.8555   1.8944   2.0194
     2.0277   2.0805   3.7244   3.7623   3.8212   3.8363   4.9473   4.9627
     4.9687   5.6637   5.7805   6.9375   6.9478   6.9515   7.0025   7.0615
     7.2491   7.3327   7.4461   7.4968   7.5169   7.6725   7.7631   7.7821
     7.9055   7.9548   7.9945   8.0256   8.0385   8.0727   8.2031   8.2117
     8.2353   8.2378   8.3527   8.3624   8.3989   8.4621   8.4623   8.6171
     8.6467   8.7598

          k = 0.1250 0.0000 0.0000 ( 79371 PWs)   bands (ev):

   -39.0297 -38.9664 -36.6647 -36.5923 -23.8256 -23.7690 -23.7579 -23.6499
   -23.6389 -23.6192 -23.4579 -23.2469 -19.5020 -19.4482 -19.3994 -19.3375
   -19.0337 -18.9691 -18.0137 -17.9443 -17.8891 -17.8212 -17.6961 -17.6201
   -16.3793 -16.3380 -15.9319 -15.9137 -15.7301 -15.6113 -15.5717 -15.5484
   -15.5233 -15.5212 -15.4701 -15.4203 -15.4076 -15.3927 -15.2469 -15.2260
   -15.0852 -15.0433 -14.9827 -14.9503 -14.9429 -14.9407 -14.9346 -14.9253
   -14.9023 -14.8263 -14.7555 -14.6988 -13.7899 -13.3526  -9.1734  -9.0145
    -9.0009  -8.9090  -8.8955  -8.8632  -8.8087  -8.7982  -8.7357  -8.6762
    -8.6679  -8.6655  -8.6140  -8.5945  -8.5842  -8.5470  -8.5417  -8.4999
    -8.4567  -8.4559  -8.4451  -8.2822  -8.0879  -7.9846  -3.9180  -3.8939
    -3.8074  -3.7082  -3.1231  -3.1163  -3.0571  -3.0516  -3.0358  -2.9990
    -2.9242  -2.8558  -2.8409  -2.8189  -2.8041  -2.7920  -2.7576  -2.7471
    -2.6836  -2.6524  -2.6441  -2.6176  -2.5073  -2.4491  -2.3738  -2.3418
    -2.1201  -2.0718  -2.0374  -2.0028  -1.9828  -1.9249  -1.9143  -1.8707
    -1.8692  -1.8611  -1.8606  -1.8596  -1.8540  -1.8122  -1.7359  -1.6528
    -1.6268  -1.6196  -1.3759  -1.3501  -1.2929  -1.2760  -1.2500  -1.2196
    -1.1853  -1.1809  -1.1603  -1.1558  -1.1373  -1.1349  -1.1339  -1.1113
    -1.1012  -1.1005  -1.0951  -1.0658  -1.0582  -0.9390  -0.9109  -0.9032
    -0.8944  -0.8936  -0.8740  -0.8646  -0.8474  -0.8003  -0.7588  -0.7456
    -0.7358  -0.7354  -0.7276  -0.7240  -0.6752  -0.6674  -0.6624  -0.6389
    -0.6307  -0.5965  -0.5680  -0.5401  -0.5187  -0.5180  -0.4726  -0.4187
    -0.3992  -0.3807  -0.3732  -0.3710  -0.3529  -0.3307  -0.3282  -0.3277
    -0.1910  -0.1724  -0.0758  -0.0147  -0.0051   0.0299   0.0380   0.0473
     0.1112   0.1344   0.1640   0.1769   0.2102   0.2407   0.2465   0.2784
     0.2787   0.3131   0.3323   0.3463   0.3665   0.3737   0.4660   0.4868
     0.4900   0.5319   0.5443   0.5659   0.5845   0.6065   0.6417   0.6936
     0.7527   0.8018   0.8309   0.8341   0.8360   0.8863   0.8981   0.9196
     0.9247   0.9301   0.9626   1.0251   1.0431   1.1434   1.1578   1.2081
     1.3173   1.3284   1.4676   1.5049   1.5079   1.5449   1.5981   1.6621
     1.6901   1.7193   1.7198   1.7661   1.9549   2.0088   4.1505   4.3891
     4.3911   5.0473   5.0731   5.4995   5.7362   5.7799   5.7904   5.9075
     5.9973   6.0138   6.0215   6.5296   6.6091   6.6276   6.8425   6.8488
     6.8861   7.0277   7.1312   7.1934   7.2036   7.2546   7.3267   7.4271
     7.5269   7.5473   7.6971   7.7300   7.7390   7.8034   7.9047   8.1238
     8.1434   8.1845

          k = 0.1250 0.2618 0.0000 ( 79311 PWs)   bands (ev):

   -39.0270 -38.9637 -36.6630 -36.5906 -23.8069 -23.7446 -23.7335 -23.6305
   -23.6195 -23.5956 -23.4386 -23.2263 -19.4635 -19.4095 -19.3922 -19.3302
   -19.1444 -19.0804 -17.9842 -17.9147 -17.8842 -17.8162 -17.7619 -17.6861
   -16.2739 -16.2329 -15.8779 -15.8597 -15.6764 -15.5739 -15.5574 -15.5135
   -15.5134 -15.4401 -15.4111 -15.3971 -15.3949 -15.3639 -15.2090 -15.1849
   -15.0808 -15.0426 -15.0405 -14.9989 -14.9651 -14.9305 -14.9279 -14.9240
   -14.9172 -14.8617 -14.7569 -14.7254 -13.7456 -13.4126  -9.1642  -9.0074
    -8.9948  -8.9230  -8.9107  -8.8751  -8.8349  -8.8243  -8.7622  -8.7516
    -8.7284  -8.6953  -8.6708  -8.6643  -8.6535  -8.6510  -8.6077  -8.6055
    -8.5965  -8.5443  -8.4717  -8.4536  -8.1561  -8.0893  -4.0275  -3.9898
    -3.8584  -3.7615  -3.2631  -3.2480  -3.2236  -3.1498  -3.1324  -3.1249
    -3.0270  -3.0170  -3.0027  -2.9563  -2.9060  -2.8482  -2.7941  -2.7559
    -2.7032  -2.6961  -2.6936  -2.6465  -2.6026  -2.5481  -2.4400  -2.3901
    -2.3878  -2.3755  -2.3141  -2.3036  -2.2911  -2.2814  -2.2780  -2.2566
    -2.2226  -2.1436  -1.9593  -1.8098  -1.7960  -1.7485  -1.6592  -1.6398
    -1.5928  -1.5675  -1.5318  -1.5219  -1.4804  -1.4718  -1.3479  -1.3270
    -1.2773  -1.2639  -1.2605  -1.2423  -1.2367  -1.2100  -1.1929  -1.1385
    -1.0706  -1.0689  -1.0268  -1.0246  -0.9614  -0.9312  -0.8959  -0.8895
    -0.8845  -0.8441  -0.8182  -0.7985  -0.7921  -0.7794  -0.7478  -0.7359
    -0.7300  -0.7230  -0.6964  -0.6919  -0.6622  -0.6300  -0.6078  -0.6005
    -0.5929  -0.5513  -0.5382  -0.5093  -0.5061  -0.4952  -0.4816  -0.4710
    -0.4358  -0.4318  -0.4041  -0.3995  -0.2572  -0.2519  -0.2464  -0.1738
    -0.1429  -0.1315  -0.0535  -0.0316   0.0273   0.0494   0.0810   0.1375
     0.1753   0.1942   0.2205   0.2800   0.3008   0.3050   0.3250   0.3293
     0.3344   0.3799   0.3813   0.3987   0.4089   0.4655   0.4932   0.5065
     0.5087   0.5157   0.5948   0.6177   0.6296   0.6871   0.7082   0.7571
     0.7656   0.8115   0.8181   0.8196   0.8265   0.8615   0.8819   0.8950
     0.9022   0.9391   0.9658   1.0588   1.0977   1.2026   1.2589   1.2986
     1.3067   1.5886   1.7191   1.7380   1.8143   1.8854   1.9130   1.9335
     1.9854   1.9943   2.0309   2.0608   2.2349   2.2648   4.4274   4.7508
     4.7584   5.3122   5.3374   5.6369   5.9138   6.0465   6.0547   6.0880
     6.1085   6.2012   6.3205   6.6195   6.6811   6.6970   6.8105   6.8363
     6.9690   6.9876   7.0625   7.2394   7.3555   7.3815   7.5081   7.5851
     7.5907   7.7308   7.8440   7.8898   7.9201   8.0062   8.1124   8.2534
     8.2864   8.2915

          k = 0.1250 0.5236 0.0000 ( 79264 PWs)   bands (ev):

   -39.0205 -38.9572 -36.6589 -36.5865 -23.7611 -23.6846 -23.6735 -23.5831
   -23.5721 -23.5375 -23.3915 -23.1758 -19.3852 -19.3747 -19.3633 -19.3222
   -19.3127 -19.3086 -17.9168 -17.8989 -17.8725 -17.8425 -17.8282 -17.8043
   -16.0342 -15.9957 -15.7365 -15.7180 -15.5996 -15.5610 -15.5446 -15.4829
   -15.4222 -15.3974 -15.3847 -15.3130 -15.2484 -15.2261 -15.1950 -15.1465
   -15.1139 -15.0750 -15.0591 -15.0390 -15.0337 -14.9333 -14.9127 -14.8988
   -14.8772 -14.8654 -14.8080 -14.7353 -13.6325 -13.5546  -9.2258  -9.2151
    -9.1437  -9.0515  -8.9947  -8.9876  -8.9764  -8.9560  -8.9443  -8.9041
    -8.8926  -8.8613  -8.8575  -8.8486  -8.8192  -8.7993  -8.7079  -8.6693
    -8.6100  -8.5995  -8.5677  -8.4261  -8.3105  -8.1959  -4.4339  -4.3787
    -4.0942  -4.0031  -3.7612  -3.7355  -3.6103  -3.5445  -3.3628  -3.3496
    -3.2804  -3.2300  -3.1746  -3.1675  -3.1551  -3.1325  -3.1251  -3.0420
    -2.9894  -2.9814  -2.9773  -2.9695  -2.8698  -2.8299  -2.7879  -2.7584
    -2.7212  -2.7044  -2.6197  -2.5929  -2.5749  -2.5453  -2.5342  -2.4844
    -2.1674  -2.1174  -2.0416  -1.9176  -1.9073  -1.8721  -1.8260  -1.7981
    -1.7553  -1.7312  -1.6956  -1.6689  -1.6217  -1.6078  -1.6031  -1.5436
    -1.5380  -1.4976  -1.4664  -1.4317  -1.4123  -1.3964  -1.3938  -1.3470
    -1.3337  -1.2868  -1.2632  -1.2304  -1.2277  -1.1771  -1.1568  -1.1433
    -1.0881  -0.9828  -0.9701  -0.9227  -0.8364  -0.8005  -0.7869  -0.7638
    -0.7293  -0.7242  -0.6550  -0.6478  -0.6124  -0.5780  -0.5690  -0.5513
    -0.4819  -0.4578  -0.4525  -0.4032  -0.2663  -0.2521  -0.2447  -0.2160
    -0.1458  -0.0791  -0.0619  -0.0418  -0.0339   0.0861   0.1363   0.1504
     0.1636   0.1862   0.1909   0.2140   0.2522   0.2693   0.3044   0.3167
     0.3345   0.3744   0.3794   0.4281   0.4329   0.4480   0.4633   0.4709
     0.5059   0.5235   0.5284   0.5563   0.5742   0.5913   0.6237   0.6567
     0.6761   0.7176   0.7415   0.7600   0.7925   0.8169   0.8344   0.8575
     0.8695   0.8911   0.9125   0.9309   0.9337   0.9412   0.9489   1.0238
     1.0383   1.0807   1.1410   1.1696   1.1801   1.2601   1.3444   1.4157
     1.4580   1.4772   1.6806   1.8608   2.1203   2.1402   2.2034   2.2324
     2.2402   2.2495   2.8676   2.8914   2.9600   2.9936   4.9364   5.6283
     5.6365   5.7362   5.7470   5.9517   6.0182   6.0851   6.1422   6.2162
     6.2459   6.9415   6.9514   6.9666   6.9801   7.0681   7.2176   7.3156
     7.4231   7.5067   7.5317   7.5720   7.6135   7.6676   7.7020   7.8301
     7.8469   7.8886   7.9627   8.1102   8.1401   8.1999   8.3002   8.3837
     8.4686   8.5041

          k = 0.1250 0.7854 0.0000 ( 79260 PWs)   bands (ev):

   -39.0139 -38.9507 -36.6548 -36.5823 -23.7143 -23.6228 -23.6117 -23.5345
   -23.5235 -23.4779 -23.3431 -23.1240 -19.5932 -19.5305 -19.3574 -19.2952
   -19.2584 -19.2034 -18.0369 -17.9610 -17.8614 -17.8271 -17.7932 -17.7580
   -15.8076 -15.7865 -15.7051 -15.6500 -15.5690 -15.5479 -15.5031 -15.4472
   -15.4258 -15.4018 -15.3532 -15.2347 -15.2234 -15.2150 -15.1109 -15.0981
   -15.0860 -15.0764 -15.0217 -15.0021 -14.9889 -14.9186 -14.8603 -14.8468
   -14.8452 -14.8305 -14.8181 -14.7693 -13.6904 -13.5095  -9.5774  -9.5666
    -9.3976  -9.3102  -9.2853  -9.2749  -9.1217  -9.0915  -9.0513  -8.9717
    -8.9593  -8.9079  -8.9044  -8.8965  -8.8923  -8.8811  -8.7742  -8.6422
    -8.5893  -8.5559  -8.5452  -8.3891  -8.3681  -8.2237  -4.9185  -4.8642
    -4.5001  -4.4159  -4.1684  -4.1473  -3.9811  -3.9097  -3.7455  -3.7358
    -3.7036  -3.6843  -3.6745  -3.6073  -3.4929  -3.4849  -3.3999  -3.3384
    -3.2409  -3.2000  -3.0973  -3.0921  -3.0275  -3.0229  -2.8046  -2.7528
    -2.7514  -2.7346  -2.7063  -2.6667  -2.6175  -2.5716  -2.5044  -2.4580
    -2.3477  -2.1572  -2.1235  -2.1155  -2.0501  -2.0025  -1.9677  -1.9415
    -1.9386  -1.9320  -1.9142  -1.8805  -1.8777  -1.8618  -1.7593  -1.7101
    -1.7024  -1.6814  -1.6705  -1.6385  -1.6224  -1.6087  -1.6071  -1.5994
    -1.4954  -1.4859  -1.4822  -1.4657  -1.4396  -1.3975  -1.3088  -1.1108
    -1.1035  -1.0377  -0.9729  -0.9409  -0.8982  -0.8354  -0.8286  -0.7190
    -0.7162  -0.7116  -0.6785  -0.6309  -0.6177  -0.5900  -0.5525  -0.5486
    -0.4224  -0.3518  -0.3206  -0.3121  -0.1115  -0.0807  -0.0086   0.0007
     0.0731   0.1116   0.1393   0.1680   0.1976   0.2085   0.2915   0.3228
     0.3365   0.3502   0.3704   0.3706   0.4056   0.4086   0.4393   0.4669
     0.4864   0.5052   0.5220   0.5747   0.6374   0.6554   0.6804   0.6867
     0.7304   0.7731   0.7919   0.7960   0.8110   0.8221   0.8532   0.8698
     0.9031   0.9115   0.9137   0.9295   0.9374   0.9662   0.9790   0.9937
     1.0343   1.0636   1.0974   1.1062   1.1228   1.2087   1.2276   1.2954
     1.3182   1.3689   1.3708   1.3765   1.3799   1.4757   1.5058   1.5483
     1.5758   1.5852   1.7648   1.8231   1.9971   2.0622   2.0654   2.1665
     2.1700   2.2159   3.4647   3.4988   3.5421   3.5613   5.0673   5.2557
     5.2631   5.8144   5.9145   6.4456   6.4998   6.5183   6.6312   6.8751
     6.9555   7.1868   7.3724   7.4002   7.4671   7.4898   7.6664   7.6993
     7.7276   7.8079   7.8855   7.9498   7.9867   8.0425   8.1072   8.1511
     8.2282   8.2655   8.2907   8.3039   8.4069   8.4698   8.5058   8.5256
     8.5932   8.6569

          k = 0.1250-1.0472 0.0000 ( 79350 PWs)   bands (ev):

   -39.0112 -38.9480 -36.6531 -36.5806 -23.6946 -23.5967 -23.5855 -23.5140
   -23.5030 -23.4528 -23.3226 -23.1022 -19.6737 -19.6112 -19.3502 -19.2880
   -19.2113 -19.1560 -18.0873 -18.0115 -17.8568 -17.7913 -17.7886 -17.7222
   -15.8161 -15.7911 -15.6261 -15.5931 -15.5822 -15.5105 -15.4698 -15.4397
   -15.4319 -15.3964 -15.3795 -15.2246 -15.2125 -15.1301 -15.0970 -15.0906
   -15.0833 -15.0402 -15.0170 -14.9988 -14.9277 -14.8678 -14.8568 -14.8302
   -14.8175 -14.8150 -14.8129 -14.8003 -13.7443 -13.4550  -9.7101  -9.6993
    -9.5343  -9.4270  -9.4157  -9.4052  -9.2052  -9.1752  -9.1142  -8.9748
    -8.9611  -8.9228  -8.9122  -8.9021  -8.8886  -8.8877  -8.7979  -8.6312
    -8.5993  -8.5321  -8.5215  -8.3923  -8.3412  -8.2354  -5.1190  -5.0661
    -4.6867  -4.6042  -4.3242  -4.3055  -4.1331  -4.0573  -3.9803  -3.9699
    -3.9146  -3.9133  -3.9047  -3.8237  -3.5185  -3.5104  -3.4173  -3.3688
    -3.3521  -3.3285  -3.1201  -3.1154  -3.0167  -3.0123  -2.8651  -2.8159
    -2.7867  -2.7628  -2.7460  -2.7107  -2.5681  -2.4924  -2.4183  -2.3608
    -2.3145  -2.2958  -2.2621  -2.1966  -2.1831  -2.1149  -2.0736  -2.0438
    -2.0262  -2.0221  -1.9549  -1.9511  -1.9501  -1.9142  -1.8119  -1.8031
    -1.7745  -1.7619  -1.7427  -1.7252  -1.7155  -1.7057  -1.6975  -1.6603
    -1.5843  -1.5758  -1.5594  -1.5567  -1.4239  -1.4050  -1.3414  -1.0772
    -1.0701  -1.0064  -0.9658  -0.9311  -0.9100  -0.8721  -0.8624  -0.8601
    -0.7128  -0.7080  -0.6791  -0.6455  -0.6254  -0.5847  -0.5759  -0.5529
    -0.3927  -0.3067  -0.2910  -0.2443  -0.0520   0.0122   0.0329   0.0920
     0.0953   0.1616   0.1787   0.1905   0.2466   0.2989   0.2997   0.3431
     0.3471   0.3825   0.4160   0.4554   0.4793   0.4811   0.4940   0.5033
     0.5085   0.5368   0.5614   0.5953   0.6447   0.7162   0.7382   0.7559
     0.8002   0.8298   0.9042   0.9325   0.9479   0.9490   0.9750   1.0192
     1.0306   1.0351   1.0352   1.0634   1.0763   1.0803   1.1023   1.1123
     1.2463   1.2790   1.2802   1.2812   1.3091   1.3237   1.3265   1.3287
     1.3385   1.3430   1.4628   1.5541   1.5699   1.5791   1.6086   1.7061
     1.7401   1.7496   1.7614   1.7711   1.8101   1.8513   1.8954   2.0209
     2.0326   2.0953   3.6466   3.6842   3.7454   3.7616   4.9997   5.0298
     5.0368   5.6965   5.8087   6.8447   6.8553   6.9243   6.9945   7.0729
     7.2599   7.2676   7.3377   7.3427   7.5214   7.6459   7.7818   7.7906
     7.9643   8.0020   8.0143   8.1069   8.1355   8.1754   8.1774   8.2456
     8.2825   8.3161   8.3861   8.3963   8.4048   8.4638   8.5153   8.6505
     8.7022   8.7295

          k = 0.2500 0.0000 0.0000 ( 79299 PWs)   bands (ev):

   -39.0297 -38.9664 -36.6647 -36.5923 -23.8243 -23.7563 -23.7452 -23.6633
   -23.6523 -23.6110 -23.4667 -23.2487 -19.5003 -19.4465 -19.3915 -19.3295
   -19.0337 -18.9691 -18.0208 -17.9515 -17.9174 -17.8502 -17.6961 -17.6201
   -16.3051 -16.2636 -15.8925 -15.8770 -15.7242 -15.6053 -15.6035 -15.5800
   -15.5729 -15.5305 -15.5213 -15.4446 -15.4278 -15.4152 -15.2143 -15.1840
   -15.0651 -15.0277 -14.9862 -14.9566 -14.9464 -14.9463 -14.9390 -14.9291
   -14.9152 -14.8351 -14.7689 -14.6961 -13.7425 -13.4074  -9.1738  -9.0193
    -9.0058  -8.9163  -8.9032  -8.8737  -8.7757  -8.7652  -8.7572  -8.6675
    -8.6525  -8.6418  -8.6135  -8.6032  -8.5773  -8.5370  -8.5342  -8.4821
    -8.4789  -8.4713  -8.4596  -8.3055  -8.0971  -7.9907  -3.8173  -3.7929
    -3.7128  -3.6129  -3.1447  -3.1335  -3.0947  -3.0879  -3.0258  -3.0239
    -2.9898  -2.9222  -2.8911  -2.8526  -2.8349  -2.7984  -2.7962  -2.7401
    -2.7036  -2.6767  -2.6619  -2.6487  -2.4656  -2.4415  -2.4084  -2.4031
    -2.0541  -2.0474  -1.9872  -1.9579  -1.9368  -1.9218  -1.8933  -1.8677
    -1.8640  -1.8578  -1.8543  -1.8333  -1.7875  -1.7424  -1.6934  -1.5948
    -1.5679  -1.5610  -1.4208  -1.3597  -1.3367  -1.3178  -1.2588  -1.2484
    -1.2399  -1.2311  -1.2228  -1.1886  -1.1860  -1.1844  -1.1687  -1.1617
    -1.1535  -1.1456  -1.1238  -1.0809  -1.0551  -0.9554  -0.9368  -0.9165
    -0.9156  -0.9023  -0.8975  -0.8791  -0.8692  -0.7969  -0.7944  -0.7438
    -0.7201  -0.6728  -0.6651  -0.6559  -0.6548  -0.6527  -0.6465  -0.6326
    -0.6209  -0.5352  -0.5297  -0.5287  -0.5095  -0.4811  -0.4492  -0.4054
    -0.3972  -0.3903  -0.3853  -0.3677  -0.3437  -0.3229  -0.3187  -0.3087
    -0.2252  -0.2106  -0.0780  -0.0546  -0.0240  -0.0119   0.0083   0.0614
     0.0834   0.0964   0.1149   0.1272   0.1289   0.1905   0.1914   0.2029
     0.2885   0.3275   0.3341   0.3642   0.3943   0.3998   0.4674   0.4778
     0.5048   0.5416   0.5491   0.6237   0.6248   0.6456   0.6672   0.6719
     0.7151   0.7735   0.8206   0.8332   0.8704   0.8812   0.9073   0.9224
     0.9237   0.9248   1.1068   1.1093   1.1292   1.1327   1.1359   1.1719
     1.2912   1.3069   1.4309   1.4826   1.5244   1.5296   1.5851   1.6316
     1.7049   1.7246   1.7428   1.7697   1.9339   1.9876   4.2685   4.5213
     4.5266   5.1932   5.2219   5.4088   5.5974   5.6287   5.6360   5.9286
     5.9547   6.0465   6.1607   6.4449   6.4796   6.6346   6.8407   7.0595
     7.0768   7.1214   7.1261   7.1963   7.2575   7.2944   7.3781   7.4907
     7.5162   7.5566   7.7212   7.7763   7.8375   7.8789   7.9063   8.0146
     8.0951   8.1815

          k = 0.2500 0.2618 0.0000 ( 79282 PWs)   bands (ev):

   -39.0270 -38.9637 -36.6630 -36.5906 -23.8056 -23.7326 -23.7215 -23.6433
   -23.6323 -23.5879 -23.4469 -23.2280 -19.4618 -19.4078 -19.3844 -19.3223
   -19.1444 -19.0804 -17.9909 -17.9216 -17.9112 -17.8439 -17.7617 -17.6859
   -16.2012 -16.1601 -15.8431 -15.8278 -15.6695 -15.5780 -15.5588 -15.5411
   -15.5199 -15.4869 -15.4838 -15.4304 -15.4108 -15.3831 -15.1762 -15.1428
   -15.0660 -15.0420 -15.0290 -15.0052 -14.9784 -14.9360 -14.9289 -14.9257
   -14.9222 -14.8668 -14.7737 -14.7152 -13.7081 -13.4526  -9.1642  -9.0137
    -9.0013  -8.9427  -8.9310  -8.8886  -8.8857  -8.8777  -8.8078  -8.7970
    -8.7680  -8.7227  -8.6908  -8.6777  -8.6415  -8.5907  -8.5803  -8.5479
    -8.5445  -8.5368  -8.4106  -8.3978  -8.1303  -8.0642  -3.9239  -3.8854
    -3.7568  -3.6602  -3.3016  -3.2818  -3.2374  -3.1585  -3.1127  -3.1037
    -3.0558  -3.0406  -3.0092  -2.9659  -2.9591  -2.8975  -2.8522  -2.8152
    -2.7921  -2.7529  -2.7373  -2.7147  -2.6001  -2.5373  -2.4133  -2.3869
    -2.3683  -2.3490  -2.3089  -2.2974  -2.2911  -2.2807  -2.2031  -2.1738
    -2.1481  -2.0715  -1.9362  -1.8212  -1.8141  -1.7634  -1.6925  -1.6432
    -1.6211  -1.5818  -1.5749  -1.5419  -1.5043  -1.4881  -1.4658  -1.4526
    -1.3931  -1.3587  -1.2652  -1.2428  -1.2214  -1.1979  -1.1919  -1.1364
    -1.0525  -1.0474  -0.9966  -0.9892  -0.9483  -0.9315  -0.9129  -0.8926
    -0.8924  -0.8830  -0.8506  -0.8451  -0.8046  -0.7981  -0.7500  -0.7432
    -0.7330  -0.7259  -0.7056  -0.6869  -0.6437  -0.6153  -0.5874  -0.5673
    -0.5589  -0.5282  -0.5273  -0.5021  -0.4989  -0.4934  -0.4770  -0.4670
    -0.4164  -0.3923  -0.3766  -0.3427  -0.3003  -0.2881  -0.2235  -0.1828
    -0.1478  -0.1323  -0.0371  -0.0076   0.0183   0.0344   0.1223   0.1786
     0.1894   0.2026   0.2208   0.2401   0.2513   0.2667   0.2880   0.3126
     0.3178   0.3339   0.3553   0.3626   0.4193   0.4302   0.4348   0.4698
     0.5392   0.5491   0.5620   0.6093   0.6183   0.7284   0.7467   0.7592
     0.7658   0.7740   0.7767   0.7821   0.8233   0.8353   0.8414   0.8663
     0.8914   0.8942   0.9370   1.1257   1.2043   1.2743   1.3900   1.4574
     1.5191   1.6634   1.7209   1.7756   1.8175   1.8760   1.9043   1.9298
     1.9896   2.0001   2.0237   2.0543   2.2041   2.2342   4.5142   4.8571
     4.8653   5.4281   5.4625   5.5887   5.7369   5.7651   5.7736   6.2454
     6.2691   6.3378   6.4665   6.5161   6.5373   6.7167   6.9110   6.9535
     6.9986   7.1800   7.1917   7.2733   7.3421   7.4572   7.5269   7.6233
     7.6785   7.6962   7.8273   7.8897   7.9445   8.0402   8.0418   8.1198
     8.1945   8.2181

          k = 0.2500 0.5236 0.0000 ( 79246 PWs)   bands (ev):

   -39.0205 -38.9572 -36.6589 -36.5865 -23.7600 -23.6741 -23.6630 -23.5941
   -23.5831 -23.5311 -23.3984 -23.1772 -19.3851 -19.3672 -19.3619 -19.3220
   -19.3073 -19.3050 -17.9206 -17.9018 -17.8958 -17.8477 -17.8319 -17.8262
   -15.9666 -15.9285 -15.7168 -15.7015 -15.5952 -15.5567 -15.5423 -15.4676
   -15.4237 -15.4017 -15.3858 -15.3256 -15.3215 -15.3122 -15.2023 -15.1567
   -15.0900 -15.0766 -15.0519 -15.0462 -15.0201 -14.9230 -14.9089 -14.8942
   -14.8814 -14.8696 -14.8071 -14.7374 -13.6221 -13.5622  -9.2612  -9.2506
    -9.1431  -9.0813  -9.0186  -9.0081  -8.9974  -8.9719  -8.9598  -8.9091
    -8.8974  -8.8608  -8.8391  -8.8275  -8.8221  -8.8166  -8.6889  -8.6698
    -8.5713  -8.5628  -8.5521  -8.3908  -8.3076  -8.1557  -4.3332  -4.2787
    -3.9914  -3.9019  -3.7991  -3.7676  -3.6199  -3.5536  -3.3439  -3.3318
    -3.2722  -3.2184  -3.1799  -3.1726  -3.1466  -3.1302  -3.1227  -3.0496
    -2.9974  -2.9884  -2.9741  -2.9665  -2.8887  -2.8165  -2.8030  -2.7750
    -2.7512  -2.7501  -2.7288  -2.6749  -2.5368  -2.5080  -2.4888  -2.4622
    -2.1996  -2.1519  -2.0666  -1.9527  -1.9508  -1.8982  -1.8672  -1.8342
    -1.8311  -1.8030  -1.7831  -1.7547  -1.7321  -1.7157  -1.6367  -1.6009
    -1.5345  -1.4920  -1.4499  -1.4206  -1.4061  -1.3806  -1.3793  -1.3569
    -1.3184  -1.2962  -1.2735  -1.2097  -1.2070  -1.1875  -1.1511  -1.1191
    -1.0846  -0.9896  -0.9661  -0.9371  -0.9022  -0.8808  -0.7890  -0.7648
    -0.7185  -0.7027  -0.6526  -0.6332  -0.5708  -0.5477  -0.5220  -0.5043
    -0.4531  -0.3976  -0.3829  -0.3672  -0.2993  -0.2669  -0.1746  -0.1605
    -0.1283  -0.0786  -0.0351  -0.0130  -0.0025   0.0489   0.1105   0.1402
     0.1546   0.1816   0.1850   0.2042   0.2256   0.2333   0.2510   0.2624
     0.3091   0.3302   0.3517   0.3531   0.3648   0.4706   0.4733   0.5018
     0.5295   0.5490   0.5812   0.5872   0.5947   0.5962   0.6201   0.6589
     0.6645   0.7009   0.7120   0.7448   0.7666   0.7860   0.8144   0.8326
     0.8359   0.8384   0.8488   0.9012   0.9282   0.9577   0.9724   0.9905
     1.0116   1.0361   1.1450   1.1533   1.2992   1.5628   1.5955   1.6113
     1.6673   1.7022   1.7618   1.9487   2.1186   2.1439   2.2055   2.2277
     2.2479   2.2583   2.7653   2.7901   2.8705   2.9052   4.9859   5.6686
     5.6770   5.7529   5.7646   5.9796   6.0750   6.1356   6.1579   6.2517
     6.2788   6.8631   6.9983   7.0915   7.1038   7.1364   7.2672   7.3073
     7.3899   7.4287   7.4939   7.5012   7.5265   7.6770   7.7051   7.8504
     7.8617   7.9395   7.9812   8.1335   8.1410   8.2095   8.3128   8.3665
     8.4009   8.4267

          k = 0.2500 0.7854 0.0000 ( 79284 PWs)   bands (ev):

   -39.0139 -38.9507 -36.6548 -36.5823 -23.7135 -23.6140 -23.6028 -23.5437
   -23.5328 -23.4727 -23.3486 -23.1251 -19.5931 -19.5305 -19.3500 -19.2878
   -19.2571 -19.2021 -18.0369 -17.9610 -17.8838 -17.8322 -17.8161 -17.7633
   -15.7625 -15.7448 -15.6624 -15.6005 -15.5737 -15.5568 -15.4812 -15.4346
   -15.4290 -15.3959 -15.3564 -15.2472 -15.2298 -15.2167 -15.1568 -15.1563
   -15.1324 -15.1076 -15.0151 -14.9895 -14.9811 -14.9141 -14.8570 -14.8435
   -14.8405 -14.8333 -14.8205 -14.7736 -13.6702 -13.5317  -9.5374  -9.5267
    -9.3564  -9.2797  -9.1762  -9.1658  -9.1213  -9.0345  -9.0238  -8.9950
    -8.9940  -8.9558  -8.9435  -8.9109  -8.8988  -8.8841  -8.8703  -8.6460
    -8.6120  -8.6015  -8.5889  -8.4664  -8.4276  -8.2518  -4.8150  -4.7627
    -4.4053  -4.3232  -4.2191  -4.1931  -4.0077  -3.9348  -3.7383  -3.7286
    -3.6954  -3.6914  -3.6816  -3.6138  -3.4492  -3.4404  -3.3594  -3.2926
    -3.1542  -3.1185  -3.1074  -3.0982  -3.0233  -3.0182  -2.8371  -2.7784
    -2.7512  -2.7326  -2.7053  -2.6801  -2.6484  -2.6459  -2.6079  -2.5590
    -2.2971  -2.2948  -2.2670  -2.1469  -2.1430  -2.1415  -2.0915  -2.0196
    -1.9914  -1.9662  -1.9636  -1.9346  -1.8748  -1.8561  -1.7516  -1.6804
    -1.6646  -1.6573  -1.6543  -1.6475  -1.6283  -1.6004  -1.5846  -1.5667
    -1.5059  -1.4934  -1.4558  -1.4214  -1.4012  -1.3698  -1.3168  -1.1460
    -1.1394  -1.0661  -0.9760  -0.9616  -0.9490  -0.9201  -0.7550  -0.7074
    -0.6920  -0.6755  -0.6122  -0.5814  -0.5389  -0.5132  -0.4962  -0.4507
    -0.4312  -0.3505  -0.2280  -0.1906  -0.1803  -0.0891  -0.0335   0.0373
     0.0720   0.0808   0.1088   0.1639   0.2383   0.2714   0.2791   0.2882
     0.3068   0.3217   0.3563   0.3687   0.4076   0.4201   0.4338   0.4512
     0.4760   0.4849   0.5031   0.5351   0.5994   0.6273   0.6415   0.6776
     0.6915   0.7214   0.7585   0.7712   0.8124   0.8246   0.8456   0.8644
     0.8659   0.8969   0.9198   0.9324   0.9730   0.9798   0.9930   1.0048
     1.0111   1.0578   1.0733   1.0996   1.1282   1.2854   1.3213   1.3429
     1.3592   1.3939   1.4026   1.5227   1.5510   1.5614   1.5859   1.5880
     1.6547   1.7640   1.7647   1.9038   2.0015   2.0663   2.0689   2.1594
     2.2097   2.2467   3.2752   3.3082   3.3685   3.3909   5.1664   5.4112
     5.4192   5.8973   5.9845   6.3876   6.3976   6.5070   6.6330   6.8249
     6.9301   7.1439   7.2595   7.3017   7.3466   7.4394   7.6322   7.7103
     7.7206   7.8364   7.8585   7.9890   8.0294   8.1031   8.1187   8.2260
     8.2495   8.3097   8.3416   8.3464   8.4718   8.4931   8.5288   8.5936
     8.6203   8.6554

          k = 0.2500-1.0472 0.0000 ( 79252 PWs)   bands (ev):

   -39.0112 -38.9480 -36.6531 -36.5806 -23.6939 -23.5886 -23.5774 -23.5225
   -23.5115 -23.4481 -23.3276 -23.1031 -19.6736 -19.6111 -19.3429 -19.2806
   -19.2101 -19.1548 -18.0874 -18.0115 -17.8784 -17.8107 -17.7961 -17.7271
   -15.7844 -15.7589 -15.5708 -15.5607 -15.5276 -15.5233 -15.4742 -15.4336
   -15.4292 -15.4041 -15.3811 -15.2173 -15.2058 -15.1614 -15.1336 -15.1239
   -15.1222 -15.0904 -14.9999 -14.9866 -14.9287 -14.8858 -14.8575 -14.8286
   -14.8159 -14.8155 -14.8151 -14.8028 -13.7138 -13.4929  -9.6233  -9.6125
    -9.4525  -9.3560  -9.3270  -9.3165  -9.1227  -9.1165  -9.1008  -9.0210
    -9.0103  -8.9643  -8.9511  -8.9092  -8.8965  -8.8878  -8.8873  -8.6525
    -8.6418  -8.6329  -8.5980  -8.4655  -8.4529  -8.3313  -5.0127  -4.9621
    -4.5929  -4.5122  -4.3790  -4.3554  -4.1661  -4.0883  -3.9729  -3.9628
    -3.9223  -3.9125  -3.9066  -3.8298  -3.4662  -3.4570  -3.3660  -3.2950
    -3.2902  -3.2512  -3.1277  -3.1226  -3.0173  -3.0124  -2.8449  -2.8030
    -2.7951  -2.7144  -2.6906  -2.6657  -2.6103  -2.5750  -2.5618  -2.5387
    -2.4983  -2.4296  -2.3550  -2.3210  -2.3052  -2.2243  -2.1821  -2.0990
    -2.0369  -2.0139  -1.9925  -1.9915  -1.8978  -1.8608  -1.8123  -1.7592
    -1.7514  -1.7356  -1.7303  -1.7289  -1.6987  -1.6863  -1.6725  -1.6003
    -1.5947  -1.5841  -1.5349  -1.4831  -1.4362  -1.3836  -1.3375  -1.1208
    -1.1147  -1.0418  -0.9910  -0.9775  -0.9596  -0.9103  -0.7484  -0.7065
    -0.6756  -0.6634  -0.6532  -0.5713  -0.5447  -0.5407  -0.5197  -0.5081
    -0.4139  -0.3342  -0.1530  -0.1379  -0.1076  -0.0213   0.0883   0.1108
     0.1131   0.1427   0.1664   0.2025   0.2541   0.3124   0.3171   0.3298
     0.3410   0.3601   0.3644   0.4116   0.4706   0.4859   0.4871   0.4939
     0.5062   0.5200   0.5376   0.5392   0.6529   0.6951   0.7271   0.7443
     0.7703   0.8104   0.8728   0.8824   0.8998   0.9195   0.9621   0.9733
     0.9846   1.0048   1.0157   1.0311   1.0600   1.0655   1.1871   1.2207
     1.2820   1.3026   1.3157   1.3174   1.3309   1.3814   1.4543   1.5017
     1.5355   1.5546   1.5675   1.5890   1.5984   1.6063   1.6411   1.6531
     1.6703   1.7195   1.7290   1.7625   1.7775   1.8613   1.9121   2.0165
     2.1076   2.1442   3.4191   3.4559   3.5283   3.5477   5.1379   5.2214
     5.2295   5.7868   5.8865   6.5953   6.6067   6.8085   6.9671   6.9905
     7.0958   7.1003   7.2857   7.3584   7.5663   7.5906   7.7562   7.8083
     7.9690   8.1027   8.1142   8.1639   8.2877   8.2946   8.3127   8.3643
     8.3821   8.4215   8.4746   8.4969   8.5353   8.5576   8.6146   8.6697
     8.7145   8.8239

          k = 0.3750 0.0000 0.0000 ( 79356 PWs)   bands (ev):

   -39.0297 -38.9664 -36.6647 -36.5923 -23.8229 -23.7382 -23.7271 -23.6821
   -23.6712 -23.6018 -23.4766 -23.2506 -19.4985 -19.4447 -19.3834 -19.3213
   -19.0337 -18.9691 -18.0277 -17.9587 -17.9449 -17.8784 -17.6961 -17.6201
   -16.2092 -16.1682 -15.8737 -15.8536 -15.7459 -15.6659 -15.6304 -15.5951
   -15.5800 -15.5316 -15.5107 -15.4778 -15.4519 -15.4450 -15.1948 -15.1594
   -15.0450 -15.0126 -14.9883 -14.9668 -14.9508 -14.9496 -14.9449 -14.9336
   -14.9261 -14.8424 -14.7815 -14.6944 -13.6700 -13.4871  -9.1741  -9.0234
    -9.0101  -8.9218  -8.9089  -8.8835  -8.7728  -8.7355  -8.7251  -8.6676
    -8.6423  -8.6318  -8.6177  -8.6069  -8.5436  -8.5323  -8.5204  -8.5196
    -8.5088  -8.4662  -8.4499  -8.3368  -8.1068  -7.9969  -3.6611  -3.6376
    -3.5731  -3.4725  -3.2777  -3.2632  -3.1970  -3.0820  -3.0671  -3.0459
    -3.0147  -2.9798  -2.9577  -2.9472  -2.8272  -2.7911  -2.7893  -2.7279
    -2.7251  -2.6946  -2.6806  -2.6414  -2.4920  -2.4588  -2.4222  -2.3541
    -2.0324  -2.0011  -1.9955  -1.9519  -1.9047  -1.8653  -1.8617  -1.8557
    -1.8522  -1.7954  -1.7853  -1.7752  -1.7117  -1.6922  -1.6392  -1.6097
    -1.5574  -1.4824  -1.4752  -1.4077  -1.4021  -1.3699  -1.3504  -1.3209
    -1.3078  -1.2870  -1.2494  -1.2420  -1.2397  -1.2146  -1.1907  -1.1761
    -1.1496  -1.1415  -1.0809  -1.0730  -1.0458  -0.9972  -0.9756  -0.9496
    -0.9477  -0.9218  -0.9130  -0.8936  -0.8852  -0.8045  -0.7939  -0.7674
    -0.7317  -0.6657  -0.6582  -0.6520  -0.6446  -0.6075  -0.6001  -0.5567
    -0.5491  -0.5257  -0.5194  -0.4831  -0.4702  -0.4670  -0.4258  -0.4165
    -0.3991  -0.3935  -0.3708  -0.3578  -0.3354  -0.3179  -0.3123  -0.3057
    -0.1972  -0.1785  -0.1184  -0.0844  -0.0774  -0.0478  -0.0296  -0.0207
    -0.0138   0.0191   0.0632   0.1182   0.1185   0.1388   0.2434   0.2735
     0.2912   0.3627   0.3761   0.4109   0.4380   0.4467   0.4564   0.4566
     0.5234   0.5536   0.5555   0.5877   0.6012   0.6086   0.6102   0.6517
     0.6517   0.7075   0.7446   0.8182   0.8951   0.9160   0.9511   0.9539
     0.9941   1.0027   1.0577   1.0766   1.1289   1.1796   1.2084   1.2468
     1.2774   1.3000   1.3686   1.4800   1.4867   1.5359   1.5737   1.6781
     1.6939   1.7600   1.7647   1.7863   1.8910   1.9436   4.4259   4.7226
     4.7306   5.0978   5.2824   5.2897   5.4220   5.4641   5.7241   6.1647
     6.1961   6.2289   6.2367   6.2833   6.3117   6.4387   6.9067   6.9322
     6.9542   7.0733   7.1992   7.2035   7.2603   7.2831   7.4601   7.4945
     7.5765   7.6275   7.6909   7.7818   7.8832   8.0100   8.0895   8.1191
     8.1661   8.2100

          k = 0.3750 0.2618 0.0000 ( 79328 PWs)   bands (ev):

   -39.0270 -38.9637 -36.6630 -36.5906 -23.8043 -23.7154 -23.7042 -23.6611
   -23.6502 -23.5793 -23.4562 -23.2297 -19.4601 -19.4061 -19.3764 -19.3143
   -19.1444 -19.0804 -17.9976 -17.9374 -17.9285 -17.8708 -17.7615 -17.6858
   -16.1057 -16.0653 -15.8209 -15.8045 -15.6911 -15.6098 -15.6033 -15.5716
   -15.5325 -15.5003 -15.4741 -15.4513 -15.4288 -15.4093 -15.1584 -15.1202
   -15.0600 -15.0359 -15.0210 -15.0114 -14.9904 -14.9393 -14.9296 -14.9284
   -14.9272 -14.8696 -14.7863 -14.7094 -13.6513 -13.5118  -9.1643  -9.0235
    -9.0114  -8.9677  -8.9566  -8.9154  -8.9043  -8.8968  -8.8315  -8.8204
    -8.8061  -8.7462  -8.7107  -8.6945  -8.6552  -8.5448  -8.5386  -8.5280
    -8.5074  -8.4967  -8.3701  -8.3540  -8.1059  -8.0411  -3.7651  -3.7263
    -3.6075  -3.5120  -3.4023  -3.3737  -3.2951  -3.1980  -3.0989  -3.0860
    -3.0851  -3.0664  -3.0373  -3.0017  -2.9826  -2.9559  -2.9464  -2.9259
    -2.8445  -2.7950  -2.7411  -2.7208  -2.6005  -2.5279  -2.3985  -2.3846
    -2.3517  -2.3122  -2.3045  -2.2956  -2.2898  -2.2853  -2.0930  -2.0550
    -2.0185  -1.9534  -1.9003  -1.8381  -1.8367  -1.8205  -1.7632  -1.7527
    -1.6629  -1.6366  -1.6264  -1.5927  -1.5838  -1.5822  -1.5050  -1.4974
    -1.4240  -1.4204  -1.3038  -1.2613  -1.2250  -1.1777  -1.1569  -1.1104
    -1.0540  -1.0424  -1.0179  -1.0042  -0.9623  -0.9553  -0.9237  -0.9191
    -0.8786  -0.8775  -0.8479  -0.8435  -0.8062  -0.7950  -0.7615  -0.7573
    -0.7251  -0.7218  -0.6825  -0.6807  -0.6538  -0.5874  -0.5736  -0.5271
    -0.5202  -0.5201  -0.5096  -0.5058  -0.4881  -0.4733  -0.4579  -0.4458
    -0.4106  -0.3802  -0.3688  -0.3433  -0.3295  -0.2326  -0.2082  -0.1918
    -0.1756  -0.1139  -0.0237   0.0048   0.0170   0.0522   0.0865   0.1256
     0.1303   0.1658   0.2090   0.2261   0.2427   0.2899   0.3177   0.3316
     0.3428   0.3573   0.3589   0.3590   0.3941   0.4144   0.4383   0.4627
     0.5283   0.5793   0.5812   0.6064   0.6200   0.6356   0.6741   0.6785
     0.7324   0.7324   0.7465   0.7664   0.7953   0.8488   0.8572   0.8580
     0.8911   0.9281   0.9353   0.9771   1.3246   1.4112   1.5715   1.6281
     1.7047   1.7208   1.7362   1.8044   1.8567   1.8714   1.8811   1.9204
     1.9950   2.0089   2.0109   2.0380   2.1395   2.1695   4.6302   5.0229
     5.0311   5.3383   5.4862   5.4941   5.6094   5.6650   5.8474   6.3089
     6.3140   6.4121   6.4975   6.5273   6.5606   6.7345   6.9671   7.0595
     7.0970   7.1508   7.1634   7.2762   7.3537   7.4095   7.6098   7.6348
     7.7244   7.7707   7.7730   7.8472   7.8887   7.9720   8.0964   8.1239
     8.2164   8.2333

          k = 0.3750 0.5236 0.0000 ( 79235 PWs)   bands (ev):

   -39.0205 -38.9572 -36.6589 -36.5865 -23.7590 -23.6593 -23.6481 -23.6094
   -23.5985 -23.5239 -23.4061 -23.1786 -19.3849 -19.3605 -19.3594 -19.3218
   -19.3060 -19.2972 -17.9254 -17.9204 -17.9021 -17.8551 -17.8521 -17.8290
   -15.8762 -15.8404 -15.7058 -15.6931 -15.5915 -15.5585 -15.5518 -15.4562
   -15.4293 -15.4216 -15.4047 -15.3890 -15.3439 -15.3255 -15.2085 -15.1672
   -15.1083 -15.0765 -15.0713 -15.0329 -15.0030 -14.9098 -14.9042 -14.8897
   -14.8868 -14.8747 -14.8067 -14.7393 -13.6071 -13.5743  -9.2594  -9.2487
    -9.1422  -9.1218  -9.1112  -9.0758  -9.0224  -8.9713  -8.9592  -8.9383
    -8.9037  -8.8920  -8.8905  -8.8517  -8.7165  -8.7058  -8.6807  -8.5730
    -8.5714  -8.5656  -8.5550  -8.3965  -8.2559  -8.1548  -4.1876  -4.1353
    -3.8843  -3.8477  -3.8452  -3.7556  -3.6484  -3.5779  -3.3084  -3.2983
    -3.2458  -3.1970  -3.1924  -3.1797  -3.1403  -3.1232  -3.1152  -3.0589
    -3.0374  -3.0281  -3.0249  -2.9685  -2.9618  -2.9370  -2.9155  -2.9058
    -2.7380  -2.6896  -2.6117  -2.5771  -2.4770  -2.4397  -2.4371  -2.3890
    -2.2680  -2.2204  -2.1522  -2.1180  -2.1071  -2.0257  -1.9716  -1.9121
    -1.8944  -1.8616  -1.8065  -1.7955  -1.7640  -1.7443  -1.5848  -1.5636
    -1.5551  -1.5039  -1.4684  -1.4275  -1.3846  -1.3577  -1.3547  -1.3382
    -1.3165  -1.2830  -1.2770  -1.2194  -1.2109  -1.1880  -1.1502  -1.0952
    -1.0746  -1.0613  -1.0210  -1.0013  -0.9579  -0.9299  -0.7896  -0.7833
    -0.6582  -0.6352  -0.5909  -0.5842  -0.5570  -0.4956  -0.4727  -0.4508
    -0.4130  -0.3568  -0.3243  -0.3152  -0.3031  -0.2443  -0.1965  -0.1124
    -0.1109  -0.0245  -0.0105   0.0261   0.0437   0.0482   0.0860   0.0898
     0.1247   0.1313   0.1681   0.1852   0.1899   0.1953   0.2099   0.2279
     0.2494   0.2807   0.2903   0.3845   0.4066   0.4221   0.4759   0.4921
     0.5253   0.5371   0.5827   0.6025   0.6159   0.6282   0.6479   0.6515
     0.6609   0.6880   0.6991   0.7318   0.7388   0.7555   0.7652   0.7818
     0.8264   0.8433   0.8622   0.8800   0.9049   0.9230   0.9751   1.0126
     1.0174   1.0306   1.1072   1.1147   1.4852   1.6200   1.7091   1.7163
     1.9552   1.9990   2.0640   2.1178   2.1483   2.1549   2.2070   2.2215
     2.2938   2.2977   2.5849   2.6118   2.7098   2.7472   5.0403   5.7159
     5.7251   5.7671   5.7782   5.9623   6.1522   6.1829   6.2667   6.2852
     6.2985   6.7111   7.0554   7.1635   7.2289   7.2539   7.2777   7.2852
     7.3253   7.3675   7.4556   7.4690   7.5639   7.7378   7.7964   7.8902
     7.9061   8.0186   8.0656   8.1441   8.1626   8.2058   8.2650   8.2826
     8.2909   8.3631

          k = 0.3750 0.7854 0.0000 ( 79296 PWs)   bands (ev):

   -39.0139 -38.9507 -36.6548 -36.5823 -23.7127 -23.6018 -23.5905 -23.5563
   -23.5454 -23.4670 -23.3547 -23.1262 -19.5931 -19.5304 -19.3425 -19.2802
   -19.2558 -19.2008 -18.0369 -17.9609 -17.9058 -17.8386 -17.8373 -17.7685
   -15.7093 -15.6932 -15.6060 -15.5919 -15.5882 -15.5269 -15.4484 -15.4359
   -15.4176 -15.3753 -15.3581 -15.2735 -15.2472 -15.2335 -15.2149 -15.2088
   -15.1609 -15.1468 -15.0063 -14.9815 -14.9730 -14.9190 -14.8520 -14.8386
   -14.8379 -14.8352 -14.8246 -14.7785 -13.6395 -13.5645  -9.4560  -9.4453
    -9.2781  -9.2260  -9.1836  -9.1730  -9.1209  -9.0311  -9.0204  -9.0149
    -8.9729  -8.9468  -8.9347  -8.9172  -8.9055  -8.8833  -8.8515  -8.7170
    -8.7063  -8.6477  -8.5916  -8.5260  -8.4857  -8.3239  -4.6717  -4.6237
    -4.3078  -4.2800  -4.2761  -4.2008  -4.0586  -3.9811  -3.7275  -3.7178
    -3.7021  -3.6924  -3.6856  -3.6219  -3.3710  -3.3606  -3.2793  -3.2014
    -3.1468  -3.1391  -3.0202  -3.0087  -3.0064  -2.9835  -2.9775  -2.8779
    -2.8748  -2.8369  -2.7264  -2.6942  -2.6753  -2.6364  -2.5457  -2.5135
    -2.5019  -2.4772  -2.4371  -2.3537  -2.2227  -2.1768  -2.1419  -2.0179
    -2.0109  -1.9807  -1.9741  -1.9520  -1.8256  -1.7939  -1.7632  -1.7084
    -1.6774  -1.6645  -1.6298  -1.6094  -1.5748  -1.5638  -1.5579  -1.5261
    -1.5210  -1.4787  -1.4441  -1.3981  -1.3654  -1.3545  -1.3058  -1.2017
    -1.1926  -1.1189  -1.1099  -1.0988  -0.9749  -0.9440  -0.7621  -0.7076
    -0.6049  -0.5384  -0.5140  -0.4995  -0.4766  -0.4102  -0.3931  -0.3796
    -0.3785  -0.2741  -0.2579  -0.2101  -0.0952  -0.0233   0.0020   0.0248
[...]
    -2.3408  -2.3011  -2.2995  -2.2985  -2.2892  -2.2823  -1.9730  -1.9717
    -1.9445  -1.9035  -1.8720  -1.8582  -1.8402  -1.8231  -1.8132  -1.7780
    -1.7542  -1.7358  -1.7332  -1.6691  -1.6233  -1.5881  -1.4925  -1.4784
    -1.3926  -1.3673  -1.3658  -1.3208  -1.2229  -1.1686  -1.1262  -1.0988
    -1.0775  -1.0525  -1.0334  -1.0186  -0.9703  -0.9681  -0.9128  -0.9074
    -0.8913  -0.8716  -0.8340  -0.8287  -0.8065  -0.7877  -0.7681  -0.7621
    -0.7251  -0.7143  -0.6730  -0.6685  -0.6633  -0.5787  -0.5697  -0.5278
    -0.5180  -0.5154  -0.4857  -0.4764  -0.4708  -0.4642  -0.4390  -0.4363
    -0.4169  -0.4165  -0.3975  -0.3340  -0.3198  -0.2280  -0.2174  -0.1772
    -0.1258  -0.0987  -0.0251   0.0056   0.0151   0.0328   0.0433   0.0629
     0.1419   0.1550   0.1718   0.1851   0.2350   0.3204   0.3519   0.3640
     0.3687   0.3749   0.3804   0.3834   0.4089   0.4551   0.4749   0.4999
     0.5091   0.5174   0.5253   0.5798   0.5834   0.6226   0.6666   0.6716
     0.6769   0.6856   0.7368   0.7396   0.8354   0.8668   0.8736   0.8781
     0.8826   0.8888   0.9325   0.9359   1.4065   1.4192   1.6752   1.7064
     1.7107   1.7272   1.7640   1.8508   1.8542   1.8765   1.9172   1.9397
     1.9775   2.0206   2.0228   2.0285   2.0757   2.1035   4.6981   5.2237
     5.2323   5.2351   5.2448   5.2528   5.7319   5.8000   5.9596   6.1659
     6.1728   6.2470   6.7057   6.8037   6.8175   6.8507   6.8684   6.9074
     6.9569   7.0666   7.1204   7.3179   7.3345   7.3716   7.5378   7.6880
     7.7151   7.7739   7.8159   7.9180   7.9920   8.0337   8.0422   8.0947
     8.1558   8.2005

          k =-0.5000 0.5236 0.0000 ( 79254 PWs)   bands (ev):

   -39.0205 -38.9572 -36.6589 -36.5865 -23.7585 -23.6492 -23.6379 -23.6197
   -23.6089 -23.5206 -23.4095 -23.1792 -19.3849 -19.3599 -19.3562 -19.3217
   -19.3054 -19.2939 -17.9309 -17.9266 -17.9027 -17.8641 -17.8553 -17.8293
   -15.8163 -15.7839 -15.7187 -15.7034 -15.5893 -15.5780 -15.5484 -15.4748
   -15.4303 -15.4301 -15.4178 -15.3927 -15.3400 -15.3335 -15.2103 -15.1717
   -15.1223 -15.0812 -15.0731 -15.0286 -14.9968 -14.9030 -14.9016 -14.8898
   -14.8897 -14.8766 -14.8067 -14.7399 -13.5927 -13.5875  -9.2254  -9.2148
    -9.1963  -9.1856  -9.1416  -9.0418  -9.0143  -9.0089  -8.9707  -8.9586
    -8.9231  -8.9031  -8.8915  -8.8521  -8.6806  -8.6263  -8.6158  -8.6155
    -8.6048  -8.5731  -8.5080  -8.4231  -8.2033  -8.1847  -4.0638  -4.0143
    -3.9756  -3.9344  -3.7326  -3.7104  -3.6415  -3.6388  -3.2696  -3.2604
    -3.2309  -3.2213  -3.1815  -3.1800  -3.1198  -3.1092  -3.1039  -3.0956
    -3.0841  -3.0812  -3.0633  -3.0566  -2.9639  -2.9564  -2.9423  -2.9347
    -2.7265  -2.6970  -2.4512  -2.4374  -2.4188  -2.3994  -2.3923  -2.3611
    -2.3119  -2.3063  -2.2796  -2.2525  -2.2168  -2.1399  -1.9711  -1.9556
    -1.8974  -1.8672  -1.8291  -1.7775  -1.7568  -1.7394  -1.5991  -1.5818
    -1.5131  -1.5032  -1.4786  -1.4440  -1.3555  -1.3549  -1.3403  -1.3282
    -1.3095  -1.2754  -1.2450  -1.2414  -1.2275  -1.2057  -1.1570  -1.1361
    -1.0775  -1.0718  -1.0640  -1.0128  -0.9550  -0.9389  -0.7891  -0.7870
    -0.6130  -0.6075  -0.5932  -0.5527  -0.5052  -0.5009  -0.4544  -0.4010
    -0.4002  -0.3708  -0.3348  -0.3332  -0.2611  -0.1878  -0.1771  -0.1180
    -0.0998  -0.0367   0.0051   0.0522   0.0573   0.0712   0.0812   0.0897
     0.0980   0.1063   0.1538   0.1722   0.1725   0.1747   0.1826   0.1833
     0.2437   0.2590   0.2748   0.3908   0.4265   0.4401   0.4711   0.5293
     0.5461   0.5472   0.5490   0.5584   0.6021   0.6043   0.6110   0.6368
     0.6643   0.6746   0.6921   0.7034   0.7604   0.7659   0.7914   0.8068
     0.8289   0.8365   0.8516   0.8646   0.8950   0.9178   0.9663   1.0179
     1.0606   1.0625   1.0636   1.0720   1.5885   1.6031   1.7226   1.7264
     2.1151   2.1154   2.1697   2.1840   2.2046   2.2130   2.3024   2.3305
     2.3496   2.3836   2.4437   2.4816   2.5156   2.5554   5.0648   5.7413
     5.7516   5.7688   5.7785   5.9433   6.1973   6.2281   6.2642   6.2920
     6.3939   6.5878   7.0798   7.1316   7.1783   7.2445   7.3186   7.3444
     7.3983   7.4069   7.4202   7.4298   7.6639   7.8131   7.8550   7.9188
     7.9657   8.0321   8.0805   8.1272   8.1714   8.1780   8.1811   8.2188
     8.2601   8.3531

          k =-0.5000 0.7854 0.0000 ( 79278 PWs)   bands (ev):

   -39.0139 -38.9507 -36.6548 -36.5824 -23.7123 -23.5939 -23.5826 -23.5643
   -23.5534 -23.4644 -23.3574 -23.1266 -19.5930 -19.5303 -19.3393 -19.2770
   -19.2553 -19.2003 -18.0368 -17.9609 -17.9149 -17.8479 -17.8394 -17.7707
   -15.6694 -15.6514 -15.6365 -15.6244 -15.5481 -15.4804 -15.4553 -15.4256
   -15.4040 -15.3648 -15.3611 -15.3039 -15.2711 -15.2543 -15.2266 -15.2137
   -15.1719 -15.1692 -15.0011 -14.9842 -14.9633 -14.9249 -14.8480 -14.8417
   -14.8347 -14.8327 -14.8280 -14.7809 -13.6053 -13.5996  -9.3520  -9.3414
    -9.3135  -9.3028  -9.1922  -9.1902  -9.1218  -9.1206  -8.9868  -8.9503
    -8.9381  -8.9354  -8.9239  -8.8780  -8.8558  -8.8550  -8.8449  -8.8444
    -8.7648  -8.6442  -8.6099  -8.5931  -8.4316  -8.4063  -4.5721  -4.5290
    -4.3838  -4.3449  -4.1888  -4.1212  -4.1173  -4.0289  -3.7153  -3.7143
    -3.7056  -3.7045  -3.6807  -3.6261  -3.2906  -3.2797  -3.2135  -3.2010
    -3.1602  -3.1413  -3.0661  -3.0460  -2.9875  -2.9763  -2.9575  -2.9445
    -2.8661  -2.8287  -2.7369  -2.7097  -2.6929  -2.6898  -2.6041  -2.5900
    -2.5479  -2.5428  -2.4201  -2.3738  -2.2891  -2.2380  -2.0638  -2.0352
    -2.0226  -2.0126  -1.9746  -1.9576  -1.7793  -1.7629  -1.7475  -1.7279
    -1.6851  -1.6611  -1.6598  -1.6329  -1.5510  -1.5490  -1.5368  -1.5336
    -1.4921  -1.4394  -1.4233  -1.3836  -1.3612  -1.3419  -1.2650  -1.2529
    -1.2297  -1.2032  -1.1663  -1.1448  -0.9773  -0.9486  -0.7504  -0.7204
    -0.5314  -0.5194  -0.4546  -0.4451  -0.4396  -0.4303  -0.3597  -0.3419
    -0.3211  -0.2933  -0.2455  -0.1625  -0.1318   0.0596   0.0609   0.0612
     0.0878   0.0913   0.1154   0.1401   0.1476   0.1749   0.1812   0.2099
     0.2306   0.2702   0.3584   0.3958   0.4031   0.4185   0.4406   0.4444
     0.4456   0.4818   0.5084   0.5333   0.5472   0.6029   0.6531   0.6623
     0.6814   0.6930   0.7030   0.7131   0.7640   0.8140   0.8356   0.8587
     0.8633   0.8835   0.8961   0.8980   0.9183   0.9305   0.9313   0.9547
     1.0207   1.0230   1.0521   1.0540   1.1525   1.2642   1.3270   1.3498
     1.4691   1.4771   1.4795   1.4872   1.4925   1.4976   1.6356   1.6581
     2.0070   2.0088   2.0419   2.0725   2.1313   2.1511   2.5421   2.5771
     2.5778   2.6117   2.7152   2.7501   2.7574   2.7823   5.3295   5.8871
     5.8963   5.9112   5.9319   6.1120   6.1646   6.5408   6.5768   6.6683
     6.8689   7.0736   7.1005   7.2219   7.2963   7.4891   7.4914   7.7597
     7.7914   7.8122   7.8232   7.8988   7.9208   7.9447   8.2767   8.2881
     8.3122   8.4866   8.5941   8.6123   8.6499   8.6813   8.6833   8.6960
     8.7525   8.8051

          k =-0.5000-1.0472 0.0000 ( 79260 PWs)   bands (ev):

   -39.0112 -38.9480 -36.6531 -36.5806 -23.6929 -23.5706 -23.5593 -23.5409
   -23.5300 -23.4407 -23.3354 -23.1045 -19.6735 -19.6110 -19.3323 -19.2699
   -19.2084 -19.1531 -18.0874 -18.0116 -17.9086 -17.8415 -17.8029 -17.7341
   -15.7034 -15.6719 -15.6217 -15.6065 -15.4822 -15.4450 -15.4159 -15.4008
   -15.3842 -15.3587 -15.3354 -15.2555 -15.2323 -15.2140 -15.2066 -15.1989
   -15.1919 -15.1594 -14.9530 -14.9498 -14.9446 -14.9423 -14.8584 -14.8229
   -14.8221 -14.8151 -14.8103 -14.8094 -13.6128 -13.6042  -9.3554  -9.3447
    -9.3047  -9.2940  -9.2302  -9.2130  -9.1386  -9.1133  -9.0305  -9.0197
    -9.0070  -8.9962  -8.9569  -8.9292  -8.9268  -8.9167  -8.9147  -8.8997
    -8.8868  -8.7133  -8.6349  -8.5943  -8.5919  -8.5156  -4.7718  -4.7307
    -4.5431  -4.5060  -4.3835  -4.3155  -4.2811  -4.1902  -3.9482  -3.9473
    -3.9384  -3.9374  -3.8940  -3.8413  -3.2953  -3.2854  -3.1920  -3.1773
    -3.1424  -3.0835  -3.0648  -3.0303  -3.0259  -3.0135  -2.9424  -2.9284
    -2.9250  -2.8908  -2.8653  -2.8436  -2.7945  -2.7135  -2.7124  -2.6996
    -2.6833  -2.6532  -2.4371  -2.3927  -2.3170  -2.2680  -2.0979  -2.0763
    -2.0665  -2.0600  -2.0327  -2.0204  -1.8640  -1.8258  -1.7773  -1.7546
    -1.7471  -1.7212  -1.6746  -1.6481  -1.6312  -1.6305  -1.6197  -1.6111
    -1.5329  -1.4864  -1.4683  -1.4538  -1.4521  -1.3485  -1.2702  -1.2677
    -1.2497  -1.2253  -1.1837  -1.1614  -0.9799  -0.9494  -0.7288  -0.6918
    -0.5010  -0.4950  -0.4339  -0.4268  -0.3871  -0.3832  -0.3683  -0.3490
    -0.3462  -0.3000  -0.2274  -0.1138  -0.1134   0.0989   0.1088   0.1520
     0.1604   0.1808   0.1992   0.2356   0.2391   0.2679   0.2703   0.3200
     0.3210   0.3241   0.3857   0.4168   0.4285   0.4489   0.4643   0.4885
     0.4987   0.5411   0.5446   0.5622   0.5721   0.5853   0.6098   0.6161
     0.6525   0.6949   0.7089   0.8110   0.8859   0.9021   0.9529   0.9687
     0.9711   1.0030   1.0697   1.1013   1.1159   1.1280   1.1945   1.1951
     1.2192   1.2581   1.2885   1.3004   1.3012   1.3135   1.3150   1.4383
     1.5320   1.5561   1.5794   1.6043   1.6489   1.6578   1.6581   1.6674
     1.7934   1.8026   1.8551   1.8775   1.9816   2.0491   2.5634   2.5981
     2.6270   2.6640   2.7238   2.7594   2.8361   2.8593   5.3916   5.8306
     5.8397   5.8513   5.8793   6.0379   6.0925   6.5255   6.6417   6.7099
     7.0359   7.1373   7.3209   7.3801   7.5794   7.7021   7.7033   7.8200
     7.8439   8.2342   8.2597   8.2653   8.2928   8.4463   8.4946   8.5105
     8.5111   8.5559   8.5773   8.6074   8.8301   8.8705   8.8746   8.8885
     8.8895   8.8974

     the Fermi energy is     1.8292 ev

!    total energy              =   -3711.51765632 Ry
     Harris-Foulkes estimate   =   -3711.51765635 Ry
     estimated scf accuracy    <          4.4E-09 Ry

     The total energy is the sum of the following terms:

     one-electron contribution =  -44662.07520161 Ry
     hartree contribution      =   22622.59918351 Ry
     xc contribution           =   -1263.80787908 Ry
     ewald contribution        =   19591.78629250 Ry
     smearing contrib. (-TS)   =      -0.02005164 Ry

     convergence has been achieved in  40 iterations

     negative rho (up, down):  9.209E-02 0.000E+00

     Forces acting on atoms (cartesian axes, Ry/au):

     atom    1 type  4   force =    -0.00000530    0.00000000   -0.00052447
     atom    2 type  4   force =     0.00000530    0.00000000   -0.00052447
     atom    3 type  3   force =    -0.00000241    0.00000000    0.00013064
     atom    4 type  3   force =     0.00000241    0.00000000    0.00013064
     atom    5 type  4   force =     0.00000305    0.00000000    0.00013022
     atom    6 type  4   force =    -0.00000305    0.00000000    0.00013022
     atom    7 type  1   force =     0.00000000    0.00000000   -0.00038647
     atom    8 type  1   force =     0.00000000    0.00000000   -0.00035163
     atom    9 type  3   force =     0.00010971    0.00000000   -0.00028278
     atom   10 type  3   force =    -0.00010971    0.00000000   -0.00028278
     atom   11 type  4   force =     0.00000000    0.00000000    0.00108929
     atom   12 type  4   force =     0.00005620    0.00000000    0.00136615
     atom   13 type  4   force =    -0.00005620    0.00000000    0.00136615
     atom   14 type  4   force =     0.00000000    0.00000000    0.00142557
     atom   15 type  2   force =     0.00000000    0.00000000   -0.00326614
     atom   16 type  5   force =     0.00000000    0.00000000   -0.00480608
     atom   17 type  4   force =     0.00095673    0.00000000    0.00622979
     atom   18 type  4   force =    -0.00095673    0.00000000    0.00622979
     atom   19 type  4   force =     0.00000000    0.00000000    0.00396194
     atom   20 type  4   force =     0.00000000    0.00000000    0.00514318
     atom   21 type  3   force =     0.00053652    0.00000000   -0.00176121
     atom   22 type  3   force =    -0.00053652    0.00000000   -0.00176121
     atom   23 type  1   force =     0.00000000    0.00000000    0.00762666
     atom   24 type  1   force =     0.00000000    0.00000000    0.01432038
     atom   25 type  4   force =     0.00258775    0.00000000   -0.01801685
     atom   26 type  4   force =    -0.00258775    0.00000000   -0.01801685
     atom   27 type  4   force =    -0.01344647    0.00000000    0.02725152
     atom   28 type  4   force =     0.01344647    0.00000000    0.02725152
     atom   29 type  3   force =     0.01300965    0.00000000   -0.02689671
     atom   30 type  3   force =    -0.01300965    0.00000000   -0.02689671
     atom   31 type  4   force =     0.01597411    0.00000000    0.02409921
     atom   32 type  4   force =    -0.01597411    0.00000000    0.02409921
     atom   33 type  1   force =     0.00000000    0.00000000    0.00141059
     atom   34 type  1   force =     0.00000000    0.00000000   -0.01265062
     atom   35 type  3   force =    -0.00350202    0.00000000   -0.02048384
     atom   36 type  3   force =     0.00350202    0.00000000   -0.02048384
     atom   37 type  4   force =     0.00000000    0.00000000    0.00292280
     atom   38 type  4   force =     0.00000000    0.00000000    0.00037336
     atom   39 type  4   force =     0.00295175    0.00000000    0.00022153
     atom   40 type  4   force =    -0.00295175    0.00000000    0.00022153
     atom   41 type  5   force =     0.00000000    0.00000000    0.00208700
     atom   42 type  2   force =     0.00000000    0.00000000    0.00036361
     atom   43 type  4   force =     0.00000000    0.00000000    0.00021968
     atom   44 type  4   force =     0.00001470    0.00000000   -0.00138370
     atom   45 type  4   force =    -0.00001470    0.00000000   -0.00138370
     atom   46 type  4   force =     0.00000000    0.00000000   -0.00006485
     atom   47 type  3   force =    -0.00003971    0.00000000    0.00040410
     atom   48 type  3   force =     0.00003971    0.00000000    0.00040410
     atom   49 type  1   force =     0.00000000    0.00000000    0.00016268
     atom   50 type  1   force =     0.00000000    0.00000000    0.00022378
     atom   51 type  4   force =    -0.00005082    0.00000000   -0.00081188
     atom   52 type  4   force =     0.00005082    0.00000000   -0.00081188
     atom   53 type  3   force =    -0.00003634    0.00000000    0.00082302
     atom   54 type  3   force =     0.00003634    0.00000000    0.00082302
     atom   55 type  4   force =     0.00002038    0.00000000   -0.00039710
     atom   56 type  4   force =    -0.00002038    0.00000000   -0.00039710

     Total force =     0.086394     Total SCF correction =     0.000223


     Computing stress (Cartesian axis) and pressure


     negative rho (up, down):  9.209E-02 0.000E+00
          total   stress  (Ry/bohr**3)                   (kbar)     P=       -5.39
  -0.00000202   0.00000000   0.00000000           -0.30        0.00        0.00
   0.00000000  -0.00008428   0.00000000            0.00      -12.40        0.00
   0.00000000   0.00000000  -0.00002360            0.00        0.00       -3.47

 
     init_run     :     26.50s CPU     27.55s WALL (       1 calls)
     electrons    :   2191.61s CPU   2285.21s WALL (       1 calls)
     forces       :     11.42s CPU     12.09s WALL (       1 calls)
     stress       :    109.01s CPU    111.04s WALL (       1 calls)

     Called by init_run:
     wfcinit      :     21.58s CPU     21.94s WALL (       1 calls)
     potinit      :      1.13s CPU      1.15s WALL (       1 calls)
     hinit0       :      1.83s CPU      1.86s WALL (       1 calls)

     Called by electrons:
     c_bands      :   1843.92s CPU   1889.20s WALL (      40 calls)
     sum_band     :    262.99s CPU    290.26s WALL (      40 calls)
     v_of_rho     :      4.52s CPU      4.59s WALL (      41 calls)
     newd         :     42.48s CPU     63.60s WALL (      41 calls)
     mix_rho      :     38.34s CPU     38.73s WALL (      40 calls)

     Called by c_bands:
     init_us_2    :     10.58s CPU     10.67s WALL (    2075 calls)
     cegterg      :   1760.98s CPU   1805.01s WALL (    1000 calls)

     Called by sum_band:
     sum_band:bec :      1.22s CPU      1.23s WALL (    1000 calls)
     addusdens    :     42.31s CPU     66.66s WALL (      40 calls)

     Called by *egterg:
     h_psi        :    823.53s CPU    840.50s WALL (    5559 calls)
     s_psi        :    129.01s CPU    129.74s WALL (    5559 calls)
     g_psi        :      1.89s CPU      1.91s WALL (    4534 calls)
     cdiaghg      :    429.58s CPU    431.27s WALL (    5534 calls)

     Called by h_psi:
     h_psi:calbec :    136.25s CPU    136.82s WALL (    5559 calls)
     vloc_psi     :    554.02s CPU    562.31s WALL (    5559 calls)
     add_vuspsi   :    129.64s CPU    130.23s WALL (    5559 calls)

     General routines
     calbec       :    219.04s CPU    219.93s WALL (    6684 calls)
     fft          :      3.67s CPU      3.70s WALL (     556 calls)
     ffts         :     20.88s CPU     21.09s WALL (   23314 calls)
     fftw         :    633.44s CPU    642.70s WALL ( 1425478 calls)
     interpolate  :      0.30s CPU      0.31s WALL (      41 calls)
 
     Parallel routines
     fft_scatt_xy :     73.66s CPU     74.76s WALL ( 1449348 calls)
     fft_scatt_yz :    412.86s CPU    419.03s WALL ( 1449348 calls)
 
     PWSCF        :  38m59.51s CPU  40m36.94s WALL

 
   This run was terminated on:  12:52:31   1Jun2021            

=------------------------------------------------------------------------------=
   JOB DONE.
=------------------------------------------------------------------------------=
[1622566351.373127] [holy7c04510:25906:0]          mpool.c:43   UCX  WARN  object 0x3d97fc0 was not returned to mpool ucp_requests
[1622566351.376604] [holy7c04503:104351:0]          mpool.c:43   UCX  WARN  object 0x4266cc0 was not returned to mpool ucp_requests
[1622566351.378095] [holy7c04406:66577:0]          mpool.c:43   UCX  WARN  object 0x41bb140 was not returned to mpool ucp_requests
[1622566351.377525] [holy7c04406:66579:0]          mpool.c:43   UCX  WARN  object 0x2e11b80 was not returned to mpool ucp_requests
[1622566351.377546] [holy7c04406:66579:0]          mpool.c:43   UCX  WARN  object 0x2e11d40 was not returned to mpool ucp_requests
[1622566351.378002] [holy7c04406:66578:0]          mpool.c:43   UCX  WARN  object 0x3bfbac0 was not returned to mpool ucp_requests
[1622566351.378465] [holy7c04501:252998:0]          mpool.c:43   UCX  WARN  object 0x42b67c0 was not returned to mpool ucp_requests
[1622566351.378102] [holy7c04504:175969:0]          mpool.c:43   UCX  WARN  object 0x415f9c0 was not returned to mpool ucp_requests
[1622566351.378122] [holy7c04504:175969:0]          mpool.c:43   UCX  WARN  object 0x415fd40 was not returned to mpool ucp_requests
[1622566351.381583] [holy7c04511:18266:0]          mpool.c:43   UCX  WARN  object 0x3579640 was not returned to mpool ucp_requests
[1622566351.379511] [holy7c04501:253000:0]          mpool.c:43   UCX  WARN  object 0x440ff40 was not returned to mpool ucp_requests
[1622566351.379535] [holy7c04501:253000:0]          mpool.c:43   UCX  WARN  object 0x4410800 was not returned to mpool ucp_requests
[1622566351.384880] [holy7c04503:104350:0]          mpool.c:43   UCX  WARN  object 0x2808b40 was not returned to mpool ucp_requests
[1622566351.389212] [holy7c04408:38691:0]          mpool.c:43   UCX  WARN  object 0x2e2be00 was not returned to mpool ucp_requests
[1622566351.389229] [holy7c04408:38691:0]          mpool.c:43   UCX  WARN  object 0x2e2c340 was not returned to mpool ucp_requests
[1622566351.387340] [holy7c04408:38693:0]          mpool.c:43   UCX  WARN  object 0x46f4080 was not returned to mpool ucp_requests
[1622566351.387357] [holy7c04408:38693:0]          mpool.c:43   UCX  WARN  object 0x46f4240 was not returned to mpool ucp_requests
[1622566351.387359] [holy7c04408:38693:0]          mpool.c:43   UCX  WARN  object 0x46f4400 was not returned to mpool ucp_requests
[1622566351.385363] [holy7c04408:38692:0]          mpool.c:43   UCX  WARN  object 0x4533400 was not returned to mpool ucp_requests
