
     Program PWSCF v.6.5 starts on 27May2021 at 23:55:19 

     This program is part of the open-source Quantum ESPRESSO suite
     for quantum simulation of materials; please cite
         "P. Giannozzi et al., J. Phys.:Condens. Matter 21 395502 (2009);
         "P. Giannozzi et al., J. Phys.:Condens. Matter 29 465901 (2017);
          URL http://www.quantum-espresso.org", 
     in publications or presentations arising from this work. More details at
     http://www.quantum-espresso.org/quote

     Parallel version (MPI), running on    32 processors

     MPI processes distributed on    11 nodes
     R & G space division:  proc/nbgrp/npool/nimage =      32
     Reading input from YCBCO50_212_Y_cleave_0.25_sep.pwi
Warning: card &IONS ignored
Warning: card     ION_DYNAMICS = 'BFGS' ignored
Warning: card / ignored
Warning: card &CELL ignored
Warning: card     CELL_DYNAMICS = 'BFGS' ignored
Warning: card     PRESS_CONV_THR = 5 ignored
Warning: card / ignored

     Current dimensions of program PWSCF are:
     Max number of different atomic species (ntypx) = 10
     Max number of k-points (npk) =  40000
     Max angular momentum in pseudopotentials (lmaxx) =  3

     Subspace diagonalization in iterative solution of the eigenvalue problem:
     one sub-group per band group will be used
     scalapack distributed-memory algorithm (size of sub-group:  5*  5 procs)

     Message from routine setup:
     using ibrav=0 with symmetry is DISCOURAGED, use correct ibrav instead
 
     Parallelization info
     --------------------
     sticks:   dense  smooth     PW     G-vecs:    dense   smooth      PW
     Min         188      62     17                89354    17188    2565
     Max         189      63     18                89384    17233    2604
     Sum        6019    2003    565              2859873   550727   82827
 


     bravais-lattice index     =            0
     lattice parameter (alat)  =      14.8133  a.u.
     unit-cell volume          =    8766.7572 (a.u.)^3
     number of atoms/cell      =           56
     number of atomic types    =            5
     number of electrons       =       456.00
     number of Kohn-Sham states=          274
     kinetic-energy cutoff     =      60.0000  Ry
     charge density cutoff     =     720.0000  Ry
     convergence threshold     =      1.0E-08
     mixing beta               =       0.5000
     number of iterations used =           10  local-TF  mixing
     Exchange-correlation= SLA PW PBE PBE
                           (   1   4   3   4   0   0   0)

     celldm(1)=  14.813271  celldm(2)=   0.000000  celldm(3)=   0.000000
     celldm(4)=   0.000000  celldm(5)=   0.000000  celldm(6)=   0.000000

     crystal axes: (cart. coord. in units of alat)
               a(1) = (   1.000000   0.000000   0.000000 )  
               a(2) = (   0.000000   0.477453   0.000000 )  
               a(3) = (   0.000000   0.000000   5.648794 )  

     reciprocal axes: (cart. coord. in units 2 pi/alat)
               b(1) = (  1.000000  0.000000  0.000000 )  
               b(2) = (  0.000000  2.094448  0.000000 )  
               b(3) = (  0.000000  0.000000  0.177029 )  


     PseudoPot. # 1 for Ba read from file:
     ./pseudo/Ba.pbe-nsp-van.UPF
     MD5 check sum: 2b9c31dd849566dd297d80989662b7a0
     Pseudo is Ultrasoft + core correction, Zval = 10.0
     Generated by new atomic code, or converted to UPF format
     Using radial grid of  907 points,  6 beta functions with: 
                l(1) =   0
                l(2) =   0
                l(3) =   1
                l(4) =   1
                l(5) =   2
                l(6) =   2
     Q(r) pseudized with  6 coefficients,  rinner =    1.200   1.200   1.200
                                                       1.200   1.200

     PseudoPot. # 2 for Ca read from file:
     ./pseudo/Ca.pbe-nsp-van.UPF
     MD5 check sum: 6471098428ff4fa451746d08035ff179
     Pseudo is Ultrasoft + core correction, Zval = 10.0
     Generated by new atomic code, or converted to UPF format
     Using radial grid of  845 points,  6 beta functions with: 
                l(1) =   0
                l(2) =   0
                l(3) =   1
                l(4) =   1
                l(5) =   2
                l(6) =   2
     Q(r) pseudized with  6 coefficients,  rinner =    1.200   1.200   1.200
                                                       1.200   1.200

     PseudoPot. # 3 for Cu read from file:
     ./pseudo/Cu.pbe-n-van_ak.UPF
     MD5 check sum: 34e3282627ffb533726feb647e090d62
     Pseudo is Ultrasoft + core correction, Zval = 11.0
     Generated by new atomic code, or converted to UPF format
     Using radial grid of  867 points,  6 beta functions with: 
                l(1) =   0
                l(2) =   0
                l(3) =   1
                l(4) =   1
                l(5) =   2
                l(6) =   2
     Q(r) pseudized with  8 coefficients,  rinner =    1.400   1.400   1.400
                                                       1.400   1.400

     PseudoPot. # 4 for O  read from file:
     ./pseudo/O.pbe-van_ak.UPF
     MD5 check sum: 783ce7fe4c79b6a4916957118fed0856
     Pseudo is Ultrasoft, Zval =  6.0
     Generated by new atomic code, or converted to UPF format
     Using radial grid of  737 points,  4 beta functions with: 
                l(1) =   0
                l(2) =   0
                l(3) =   1
                l(4) =   1
     Q(r) pseudized with  8 coefficients,  rinner =    0.800   0.800   0.800


     PseudoPot. # 5 for Y  read from file:
     ./pseudo/Y.pbe-nsp-van.UPF
     MD5 check sum: 4412fed3ab108fed87a1b7d6a69a4a38
     Pseudo is Ultrasoft + core correction, Zval = 11.0
     Generated by new atomic code, or converted to UPF format
     Using radial grid of  885 points,  6 beta functions with: 
                l(1) =   0
                l(2) =   0
                l(3) =   1
                l(4) =   1
                l(5) =   2
                l(6) =   2
     Q(r) pseudized with  6 coefficients,  rinner =    1.200   1.200   1.200
                                                       1.200   1.200

     atomic species   valence    mass     pseudopotential
        Ba            10.00   137.32700     Ba( 1.00)
        Ca            10.00    40.07800     Ca( 1.00)
        Cu            11.00    63.54600     Cu( 1.00)
        O              6.00    15.99900     O ( 1.00)
        Y             11.00    88.90584     Y ( 1.00)

      4 Sym. Ops. (no inversion) found ( 2 have fractional translation)



   Cartesian axes

     site n.     atom                  positions (alat units)
         1           O   tau(   1) = (  -0.0008343   0.2387265  -0.0222443  )
         2           O   tau(   2) = (   0.5008340   0.2387265  -0.0222443  )
         3           Cu  tau(   3) = (   0.5017257   0.0000000   0.0109608  )
         4           Cu  tau(   4) = (  -0.0017260   0.0000000   0.0109608  )
         5           O   tau(   5) = (  -0.0028933   0.0000000   0.2506504  )
         6           O   tau(   6) = (   0.5028929   0.0000000   0.2506504  )
         7           Ba  tau(   7) = (   0.7499995   0.2387265   0.2749435  )
         8           Ba  tau(   8) = (   0.2499998   0.2387265   0.2755214  )
         9           Cu  tau(   9) = (   0.4980963   0.0000000   0.5208446  )
        10           Cu  tau(  10) = (   0.0019033   0.0000000   0.5208446  )
        11           O   tau(  11) = (   0.2499998   0.0000000   0.5341884  )
        12           O   tau(  12) = (   0.5083351   0.2387265   0.5569851  )
        13           O   tau(  13) = (  -0.0083354   0.2387265   0.5569851  )
        14           O   tau(  14) = (   0.7499995   0.0000000   0.5573831  )
        15           Ca  tau(  15) = (   0.2499998   0.2387265   0.7436937  )
        16           Y   tau(  16) = (   0.7499995   0.2387265   0.7469544  )
        17           O   tau(  17) = (  -0.0063798   0.2387265   0.9248530  )
        18           O   tau(  18) = (   0.5063794   0.2387265   0.9248530  )
        19           O   tau(  19) = (   0.7499995   0.0000000   0.9338544  )
        20           O   tau(  20) = (   0.2499998   0.0000000   0.9461329  )
        21           Cu  tau(  21) = (   0.0015717   0.0000000   0.9686860  )
        22           Cu  tau(  22) = (   0.4984280   0.0000000   0.9686860  )
        23           Ba  tau(  23) = (   0.2499998   0.2387265   1.2085224  )
        24           Ba  tau(  24) = (   0.7499995   0.2387265   1.2233294  )
        25           O   tau(  25) = (   0.0063772   0.0000000   1.2547537  )
        26           O   tau(  26) = (   0.4936224   0.0000000   1.2547537  )
        27           O   tau(  27) = (   0.5384045   0.2387265   1.4952521  )
        28           O   tau(  28) = (  -0.0384049   0.2387265   1.4952521  )
        29           Cu  tau(  29) = (   0.5006120   0.0000000   1.4952546  )
        30           Cu  tau(  30) = (  -0.0006123   0.0000000   1.4952546  )
        31           O   tau(  31) = (   0.4936212   0.0000000   1.7357531  )
        32           O   tau(  32) = (   0.0063785   0.0000000   1.7357531  )
        33           Ba  tau(  33) = (   0.7499995   0.2387265   1.7671824  )
        34           Ba  tau(  34) = (   0.2499998   0.2387265   1.7819920  )
        35           Cu  tau(  35) = (   0.4984280   0.0000000   2.0218232  )
        36           Cu  tau(  36) = (   0.0015717   0.0000000   2.0218232  )
        37           O   tau(  37) = (   0.2499998   0.0000000   2.0443814  )
        38           O   tau(  38) = (   0.7499995   0.0000000   2.0566511  )
        39           O   tau(  39) = (   0.5063781   0.2387265   2.0656562  )
        40           O   tau(  40) = (  -0.0063785   0.2387265   2.0656562  )
        41           Y   tau(  41) = (   0.7499995   0.2387265   2.2435498  )
        42           Ca  tau(  42) = (   0.2499998   0.2387265   2.2468194  )
        43           O   tau(  43) = (   0.7499995   0.0000000   2.4650097  )
        44           O   tau(  44) = (  -0.0083354   0.2387265   2.4654115  )
        45           O   tau(  45) = (   0.5083351   0.2387265   2.4654115  )
        46           O   tau(  46) = (   0.2499998   0.0000000   2.4882095  )
        47           Cu  tau(  47) = (   0.0019059   0.0000000   2.5015431  )
        48           Cu  tau(  48) = (   0.4980938   0.0000000   2.5015431  )
        49           Ba  tau(  49) = (   0.2499998   0.2387265   2.7468828  )
        50           Ba  tau(  50) = (   0.7499995   0.2387265   2.7474250  )
        51           O   tau(  51) = (  -0.0028895   0.0000000   2.7717321  )
        52           O   tau(  52) = (   0.5028891   0.0000000   2.7717321  )
        53           Cu  tau(  53) = (   0.5017844   0.0000000   3.0114167  )
        54           Cu  tau(  54) = (  -0.0017847   0.0000000   3.0114167  )
        55           O   tau(  55) = (   0.5008990   0.2387265   3.0446231  )
        56           O   tau(  56) = (  -0.0008994   0.2387265   3.0446231  )

     number of k points=    25  Gaussian smearing, width (Ry)=  0.0100
                       cart. coord. in units 2pi/alat
        k(    1) = (   0.0000000   0.0000000   0.0000000), wk =   0.0312500
        k(    2) = (   0.0000000   0.2618060   0.0000000), wk =   0.0625000
        k(    3) = (   0.0000000   0.5236121   0.0000000), wk =   0.0625000
        k(    4) = (   0.0000000   0.7854181   0.0000000), wk =   0.0625000
        k(    5) = (   0.0000000  -1.0472241   0.0000000), wk =   0.0312500
        k(    6) = (   0.1250000   0.0000000   0.0000000), wk =   0.0625000
        k(    7) = (   0.1250000   0.2618060   0.0000000), wk =   0.1250000
        k(    8) = (   0.1250000   0.5236121   0.0000000), wk =   0.1250000
        k(    9) = (   0.1250000   0.7854181   0.0000000), wk =   0.1250000
        k(   10) = (   0.1250000  -1.0472241   0.0000000), wk =   0.0625000
        k(   11) = (   0.2500000   0.0000000   0.0000000), wk =   0.0625000
        k(   12) = (   0.2500000   0.2618060   0.0000000), wk =   0.1250000
        k(   13) = (   0.2500000   0.5236121   0.0000000), wk =   0.1250000
        k(   14) = (   0.2500000   0.7854181   0.0000000), wk =   0.1250000
        k(   15) = (   0.2500000  -1.0472241   0.0000000), wk =   0.0625000
        k(   16) = (   0.3750000   0.0000000   0.0000000), wk =   0.0625000
        k(   17) = (   0.3750000   0.2618060   0.0000000), wk =   0.1250000
        k(   18) = (   0.3750000   0.5236121   0.0000000), wk =   0.1250000
        k(   19) = (   0.3750000   0.7854181   0.0000000), wk =   0.1250000
        k(   20) = (   0.3750000  -1.0472241   0.0000000), wk =   0.0625000
        k(   21) = (  -0.5000000   0.0000000   0.0000000), wk =   0.0312500
        k(   22) = (  -0.5000000   0.2618060   0.0000000), wk =   0.0625000
        k(   23) = (  -0.5000000   0.5236121   0.0000000), wk =   0.0625000
        k(   24) = (  -0.5000000   0.7854181   0.0000000), wk =   0.0625000
        k(   25) = (  -0.5000000  -1.0472241   0.0000000), wk =   0.0312500

     Dense  grid:  2859873 G-vectors     FFT dimensions: ( 128,  64, 720)

     Smooth grid:   550727 G-vectors     FFT dimensions: (  80,  36, 432)

     Estimated max dynamical RAM per process >     829.17 MB

     Estimated total dynamical RAM >      25.91 GB

     Initial potential from superposition of free atoms

     starting charge  455.69457, renormalised to  456.00000

     negative rho (up, down):  9.338E-02 0.000E+00
     Starting wfcs are  396 randomized atomic wfcs

     total cpu time spent up to now is       28.0 secs

     Self-consistent Calculation

     iteration #  1     ecut=    60.00 Ry     beta= 0.50
     Davidson diagonalization with overlap
     ethr =  1.00E-02,  avg # of iterations =  2.0

     negative rho (up, down):  8.601E-02 0.000E+00

     total cpu time spent up to now is       76.5 secs

     total energy              =   -3708.57330616 Ry
     Harris-Foulkes estimate   =   -3716.41932303 Ry
     estimated scf accuracy    <      29.39766216 Ry

     iteration #  2     ecut=    60.00 Ry     beta= 0.50
     Davidson diagonalization with overlap
     ethr =  6.45E-03,  avg # of iterations =  2.0

     negative rho (up, down):  8.564E-02 0.000E+00

     total cpu time spent up to now is      125.4 secs

     total energy              =   -3711.27612091 Ry
     Harris-Foulkes estimate   =   -3712.32922064 Ry
     estimated scf accuracy    <       5.63030907 Ry

     iteration #  3     ecut=    60.00 Ry     beta= 0.50
     Davidson diagonalization with overlap
     ethr =  1.23E-03,  avg # of iterations =  2.0

     negative rho (up, down):  8.617E-02 0.000E+00

     total cpu time spent up to now is      175.1 secs

     total energy              =   -3711.73118783 Ry
     Harris-Foulkes estimate   =   -3711.99699096 Ry
     estimated scf accuracy    <       4.40897687 Ry

     iteration #  4     ecut=    60.00 Ry     beta= 0.50
     Davidson diagonalization with overlap
     ethr =  9.67E-04,  avg # of iterations =  1.0

     negative rho (up, down):  8.714E-02 0.000E+00

     total cpu time spent up to now is      220.4 secs

     total energy              =   -3711.74556531 Ry
     Harris-Foulkes estimate   =   -3711.87490008 Ry
     estimated scf accuracy    <       0.71822908 Ry

     iteration #  5     ecut=    60.00 Ry     beta= 0.50
     Davidson diagonalization with overlap
     ethr =  1.58E-04,  avg # of iterations =  8.3

     negative rho (up, down):  8.804E-02 0.000E+00

     total cpu time spent up to now is      297.8 secs

     total energy              =   -3711.79156373 Ry
     Harris-Foulkes estimate   =   -3711.84425896 Ry
     estimated scf accuracy    <       3.11120634 Ry

     iteration #  6     ecut=    60.00 Ry     beta= 0.50
     Davidson diagonalization with overlap
     ethr =  1.58E-04,  avg # of iterations =  1.2

     negative rho (up, down):  8.855E-02 0.000E+00

     total cpu time spent up to now is      343.3 secs

     total energy              =   -3711.79460722 Ry
     Harris-Foulkes estimate   =   -3711.80777276 Ry
     estimated scf accuracy    <       1.70159809 Ry

     iteration #  7     ecut=    60.00 Ry     beta= 0.50
     Davidson diagonalization with overlap
     ethr =  1.58E-04,  avg # of iterations =  1.0

     negative rho (up, down):  8.960E-02 0.000E+00

     total cpu time spent up to now is      388.1 secs

     total energy              =   -3711.77439703 Ry
     Harris-Foulkes estimate   =   -3711.79870318 Ry
     estimated scf accuracy    <       1.24540343 Ry

     iteration #  8     ecut=    60.00 Ry     beta= 0.50
     Davidson diagonalization with overlap
     ethr =  1.58E-04,  avg # of iterations =  1.0

     negative rho (up, down):  8.999E-02 0.000E+00

     total cpu time spent up to now is      432.2 secs

     total energy              =   -3711.77303559 Ry
     Harris-Foulkes estimate   =   -3711.78471143 Ry
     estimated scf accuracy    <       0.94787248 Ry

     iteration #  9     ecut=    60.00 Ry     beta= 0.50
     Davidson diagonalization with overlap
     ethr =  1.58E-04,  avg # of iterations =  1.0

     negative rho (up, down):  9.020E-02 0.000E+00

     total cpu time spent up to now is      477.3 secs

     total energy              =   -3711.76620997 Ry
     Harris-Foulkes estimate   =   -3711.77675952 Ry
     estimated scf accuracy    <       0.39958300 Ry

     iteration # 10     ecut=    60.00 Ry     beta= 0.50
     Davidson diagonalization with overlap
     c_bands:  1 eigenvalues not converged
     ethr =  8.76E-05,  avg # of iterations =  3.5

     negative rho (up, down):  9.022E-02 0.000E+00

     total cpu time spent up to now is      531.3 secs

     total energy              =   -3711.75779674 Ry
     Harris-Foulkes estimate   =   -3711.76812665 Ry
     estimated scf accuracy    <       0.22493821 Ry

     iteration # 11     ecut=    60.00 Ry     beta= 0.50
     Davidson diagonalization with overlap
     ethr =  4.93E-05,  avg # of iterations =  9.3

     negative rho (up, down):  8.996E-02 0.000E+00

     total cpu time spent up to now is      605.1 secs

     total energy              =   -3711.75805362 Ry
     Harris-Foulkes estimate   =   -3711.76009441 Ry
     estimated scf accuracy    <       0.07584662 Ry

     iteration # 12     ecut=    60.00 Ry     beta= 0.50
     Davidson diagonalization with overlap
     c_bands:  1 eigenvalues not converged
     ethr =  1.66E-05,  avg # of iterations =  4.6

     negative rho (up, down):  9.061E-02 0.000E+00

     total cpu time spent up to now is      660.2 secs

     total energy              =   -3711.75661331 Ry
     Harris-Foulkes estimate   =   -3711.75872359 Ry
     estimated scf accuracy    <       0.07567649 Ry

     iteration # 13     ecut=    60.00 Ry     beta= 0.50
     Davidson diagonalization with overlap
     ethr =  1.66E-05,  avg # of iterations =  2.0

     negative rho (up, down):  9.858E-02 0.000E+00

     total cpu time spent up to now is      708.4 secs

     total energy              =   -3711.75382075 Ry
     Harris-Foulkes estimate   =   -3711.75688130 Ry
     estimated scf accuracy    <       0.05036438 Ry

     iteration # 14     ecut=    60.00 Ry     beta= 0.50
     Davidson diagonalization with overlap
     ethr =  1.10E-05,  avg # of iterations =  7.6

     negative rho (up, down):  1.183E-01 0.000E+00

     total cpu time spent up to now is      775.3 secs

     total energy              =   -3711.75151604 Ry
     Harris-Foulkes estimate   =   -3711.75415238 Ry
     estimated scf accuracy    <       0.01995846 Ry

     iteration # 15     ecut=    60.00 Ry     beta= 0.50
     Davidson diagonalization with overlap
     ethr =  4.38E-06,  avg # of iterations = 10.2

     negative rho (up, down):  1.126E-01 0.000E+00

     total cpu time spent up to now is      855.4 secs

     total energy              =   -3711.75086205 Ry
     Harris-Foulkes estimate   =   -3711.75181245 Ry
     estimated scf accuracy    <       0.01544168 Ry

     iteration # 16     ecut=    60.00 Ry     beta= 0.50
     Davidson diagonalization with overlap
     ethr =  3.39E-06,  avg # of iterations =  3.4

     negative rho (up, down):  1.216E-01 0.000E+00

     total cpu time spent up to now is      906.8 secs

     total energy              =   -3711.74883748 Ry
     Harris-Foulkes estimate   =   -3711.75101915 Ry
     estimated scf accuracy    <       0.01407306 Ry

     iteration # 17     ecut=    60.00 Ry     beta= 0.50
     Davidson diagonalization with overlap
     ethr =  3.09E-06,  avg # of iterations =  9.6

     negative rho (up, down):  1.149E-01 0.000E+00

     total cpu time spent up to now is      983.0 secs

     total energy              =   -3711.74788684 Ry
     Harris-Foulkes estimate   =   -3711.74898952 Ry
     estimated scf accuracy    <       0.00579424 Ry

     iteration # 18     ecut=    60.00 Ry     beta= 0.50
     Davidson diagonalization with overlap
     c_bands:  1 eigenvalues not converged
     ethr =  1.27E-06,  avg # of iterations = 10.0

     negative rho (up, down):  1.088E-01 0.000E+00

     total cpu time spent up to now is     1059.5 secs

     total energy              =   -3711.74744820 Ry
     Harris-Foulkes estimate   =   -3711.74796664 Ry
     estimated scf accuracy    <       0.00407388 Ry

     iteration # 19     ecut=    60.00 Ry     beta= 0.50
     Davidson diagonalization with overlap
     c_bands:  1 eigenvalues not converged
     c_bands:  1 eigenvalues not converged
     ethr =  8.93E-07,  avg # of iterations =  9.5

     negative rho (up, down):  9.342E-02 0.000E+00

     total cpu time spent up to now is     1132.9 secs

     total energy              =   -3711.74724296 Ry
     Harris-Foulkes estimate   =   -3711.74751272 Ry
     estimated scf accuracy    <       0.00146122 Ry

     iteration # 20     ecut=    60.00 Ry     beta= 0.50
     Davidson diagonalization with overlap
     c_bands:  1 eigenvalues not converged
     c_bands:  1 eigenvalues not converged
     c_bands:  1 eigenvalues not converged
     ethr =  3.20E-07,  avg # of iterations = 12.0

     negative rho (up, down):  9.271E-02 0.000E+00

     total cpu time spent up to now is     1215.9 secs

     total energy              =   -3711.74733601 Ry
     Harris-Foulkes estimate   =   -3711.74727919 Ry
     estimated scf accuracy    <       0.00061829 Ry

     iteration # 21     ecut=    60.00 Ry     beta= 0.50
     Davidson diagonalization with overlap
     c_bands:  1 eigenvalues not converged
     c_bands:  1 eigenvalues not converged
     ethr =  1.36E-07,  avg # of iterations =  6.0

     negative rho (up, down):  9.139E-02 0.000E+00

     total cpu time spent up to now is     1275.6 secs

     total energy              =   -3711.74735770 Ry
     Harris-Foulkes estimate   =   -3711.74736130 Ry
     estimated scf accuracy    <       0.00040516 Ry

     iteration # 22     ecut=    60.00 Ry     beta= 0.50
     Davidson diagonalization with overlap
     c_bands:  1 eigenvalues not converged
     c_bands:  1 eigenvalues not converged
     c_bands:  1 eigenvalues not converged
     ethr =  8.89E-08,  avg # of iterations =  8.3

     negative rho (up, down):  9.214E-02 0.000E+00

     total cpu time spent up to now is     1343.4 secs

     total energy              =   -3711.74735901 Ry
     Harris-Foulkes estimate   =   -3711.74736585 Ry
     estimated scf accuracy    <       0.00013686 Ry

     iteration # 23     ecut=    60.00 Ry     beta= 0.50
     Davidson diagonalization with overlap
     ethr =  3.00E-08,  avg # of iterations =  3.4

     negative rho (up, down):  9.170E-02 0.000E+00

     total cpu time spent up to now is     1396.3 secs

     total energy              =   -3711.74737799 Ry
     Harris-Foulkes estimate   =   -3711.74736237 Ry
     estimated scf accuracy    <       0.00005153 Ry

     iteration # 24     ecut=    60.00 Ry     beta= 0.50
     Davidson diagonalization with overlap
     c_bands:  1 eigenvalues not converged
     ethr =  1.13E-08,  avg # of iterations =  3.2

     negative rho (up, down):  9.187E-02 0.000E+00

     total cpu time spent up to now is     1449.9 secs

     total energy              =   -3711.74737822 Ry
     Harris-Foulkes estimate   =   -3711.74737939 Ry
     estimated scf accuracy    <       0.00003068 Ry

     iteration # 25     ecut=    60.00 Ry     beta= 0.50
     Davidson diagonalization with overlap
     ethr =  6.73E-09,  avg # of iterations =  1.9

     negative rho (up, down):  9.177E-02 0.000E+00

     total cpu time spent up to now is     1499.1 secs

     total energy              =   -3711.74737885 Ry
     Harris-Foulkes estimate   =   -3711.74737919 Ry
     estimated scf accuracy    <       0.00001043 Ry

     iteration # 26     ecut=    60.00 Ry     beta= 0.50
     Davidson diagonalization with overlap
     ethr =  2.29E-09,  avg # of iterations =  1.8

     negative rho (up, down):  9.183E-02 0.000E+00

     total cpu time spent up to now is     1546.8 secs

     total energy              =   -3711.74737892 Ry
     Harris-Foulkes estimate   =   -3711.74737924 Ry
     estimated scf accuracy    <       0.00000242 Ry

     iteration # 27     ecut=    60.00 Ry     beta= 0.50
     Davidson diagonalization with overlap
     ethr =  5.31E-10,  avg # of iterations =  3.0

     negative rho (up, down):  9.178E-02 0.000E+00

     total cpu time spent up to now is     1600.1 secs

     total energy              =   -3711.74737915 Ry
     Harris-Foulkes estimate   =   -3711.74737913 Ry
     estimated scf accuracy    <       0.00000158 Ry

     iteration # 28     ecut=    60.00 Ry     beta= 0.50
     Davidson diagonalization with overlap
     ethr =  3.47E-10,  avg # of iterations =  1.0

     negative rho (up, down):  9.189E-02 0.000E+00

     total cpu time spent up to now is     1644.8 secs

     total energy              =   -3711.74737898 Ry
     Harris-Foulkes estimate   =   -3711.74737919 Ry
     estimated scf accuracy    <       0.00000099 Ry

     iteration # 29     ecut=    60.00 Ry     beta= 0.50
     Davidson diagonalization with overlap
     ethr =  2.18E-10,  avg # of iterations =  1.0

     negative rho (up, down):  9.201E-02 0.000E+00

     total cpu time spent up to now is     1689.2 secs

     total energy              =   -3711.74737881 Ry
     Harris-Foulkes estimate   =   -3711.74737901 Ry
     estimated scf accuracy    <       0.00000048 Ry

     iteration # 30     ecut=    60.00 Ry     beta= 0.50
     Davidson diagonalization with overlap
     ethr =  1.05E-10,  avg # of iterations =  1.0

     negative rho (up, down):  9.198E-02 0.000E+00

     total cpu time spent up to now is     1737.3 secs

     total energy              =   -3711.74737886 Ry
     Harris-Foulkes estimate   =   -3711.74737883 Ry
     estimated scf accuracy    <       0.00000022 Ry

     iteration # 31     ecut=    60.00 Ry     beta= 0.50
     Davidson diagonalization with overlap
     ethr =  4.83E-11,  avg # of iterations =  1.1

     negative rho (up, down):  9.198E-02 0.000E+00

     total cpu time spent up to now is     1782.1 secs

     total energy              =   -3711.74737885 Ry
     Harris-Foulkes estimate   =   -3711.74737886 Ry
     estimated scf accuracy    <       0.00000008 Ry

     iteration # 32     ecut=    60.00 Ry     beta= 0.50
     Davidson diagonalization with overlap
     ethr =  1.82E-11,  avg # of iterations =  1.8

     negative rho (up, down):  9.196E-02 0.000E+00

     total cpu time spent up to now is     1828.8 secs

     total energy              =   -3711.74737889 Ry
     Harris-Foulkes estimate   =   -3711.74737885 Ry
     estimated scf accuracy    <       0.00000002 Ry

     iteration # 33     ecut=    60.00 Ry     beta= 0.50
     Davidson diagonalization with overlap
     ethr =  4.08E-12,  avg # of iterations =  3.0

     negative rho (up, down):  9.197E-02 0.000E+00

     total cpu time spent up to now is     1880.0 secs

     End of self-consistent calculation

          k = 0.0000 0.0000 0.0000 ( 68823 PWs)   bands (ev):

   -38.5802 -37.9442 -36.1198 -35.5707 -22.7415 -22.6626 -22.6131 -22.5358
   -22.5131 -22.4454 -22.3666 -22.2913 -18.8091 -18.7941 -18.5434 -18.4196
   -18.3156 -17.9473 -17.3014 -17.2660 -17.1369 -16.9189 -16.7840 -16.6003
   -15.3320 -15.2649 -14.9057 -14.8720 -14.7889 -14.7059 -14.6173 -14.5926
   -14.5656 -14.4750 -14.3983 -14.3976 -14.3802 -14.3784 -14.3394 -14.2252
   -14.0574 -14.0230 -13.9603 -13.9212 -13.9173 -13.9088 -13.9022 -13.9015
   -13.8166 -13.8038 -13.7285 -13.5225 -13.4559 -13.3944  -7.9792  -7.8756
    -7.8666  -7.8602  -7.7910  -7.7738  -7.7376  -7.7228  -7.6528  -7.6463
    -7.6072  -7.5813  -7.5565  -7.5064  -7.4901  -7.4447  -7.4148  -7.3885
    -7.3428  -7.3277  -7.3197  -7.2371  -7.1695  -7.0967  -2.9079  -2.8443
    -2.7643  -2.7274  -2.0985  -2.0765  -2.0120  -2.0006  -1.9820  -1.9716
    -1.9625  -1.9344  -1.8259  -1.8019  -1.7568  -1.7164  -1.6633  -1.6531
    -1.5860  -1.5594  -1.5483  -1.4518  -1.4497  -1.3854  -1.3319  -1.2739
    -1.2510  -1.2217  -1.1351  -1.0589  -1.0423  -1.0262  -0.9871  -0.8480
    -0.8480  -0.8474  -0.8469  -0.8455  -0.7949  -0.7890  -0.7704  -0.7412
    -0.7117  -0.6914  -0.6198  -0.6177  -0.6072  -0.6045  -0.5154  -0.4387
    -0.4216  -0.2753  -0.2601  -0.2488  -0.2041  -0.1805  -0.1679  -0.1466
    -0.0980  -0.0798  -0.0612  -0.0565  -0.0435  -0.0211   0.0849   0.0904
     0.0991   0.1184   0.1240   0.1291   0.1319   0.1661   0.1838   0.2173
     0.2376   0.2519   0.2544   0.2824   0.3277   0.3450   0.3476   0.3830
     0.3869   0.4450   0.4452   0.4600   0.4798   0.4832   0.4862   0.4911
     0.5042   0.5650   0.6232   0.6587   0.6789   0.6798   0.6905   0.7299
     0.7855   0.8505   0.9046   0.9056   0.9460   1.0679   1.1174   1.1290
     1.1525   1.1754   1.1998   1.2438   1.2493   1.2633   1.3237   1.3427
     1.3521   1.3581   1.3669   1.3928   1.4013   1.4779   1.4988   1.5168
     1.5395   1.5564   1.5694   1.6160   1.6188   1.6702   1.7040   1.7269
     1.7621   1.7938   1.8430   1.8569   1.8662   1.9181   1.9578   1.9733
     1.9744   1.9816   1.9818   2.0079   2.0669   2.1905   2.2604   2.2761
     2.3736   2.3796   2.3856   2.4181   2.4535   2.4903   2.5723   2.5761
     2.6797   2.7117   2.7135   2.8467   2.9891   3.0233   5.3020   5.3575
     5.6404   5.9509   6.2913   6.6783   6.7704   6.8211   7.1261   7.4036
     7.4167   7.4521   7.4964   7.4983   7.6404   7.7778   7.8419   8.0995
     8.1807   8.1837   8.2816   8.2820   8.4070   8.6317   8.6378   8.7099
     8.7417   8.9294   9.0459   9.1395   9.1842   9.2018   9.2096   9.3253
     9.3631   9.4228

          k = 0.0000 0.2618 0.0000 ( 68837 PWs)   bands (ev):

   -38.5778 -37.9415 -36.1183 -35.5690 -22.7169 -22.6379 -22.5940 -22.5168
   -22.4894 -22.4219 -22.3478 -22.2725 -18.7890 -18.7887 -18.6107 -18.3809
   -18.3083 -18.0582 -17.2873 -17.2626 -17.1743 -16.8894 -16.7796 -16.6663
   -15.2261 -15.1809 -14.8491 -14.8149 -14.7226 -14.6822 -14.5767 -14.5487
   -14.5269 -14.4728 -14.3812 -14.3681 -14.3546 -14.3124 -14.3030 -14.1889
   -14.0689 -14.0193 -13.9837 -13.9684 -13.9124 -13.9094 -13.8989 -13.8953
   -13.8413 -13.7820 -13.7611 -13.5273 -13.5068 -13.4588  -7.9726  -7.8852
    -7.8779  -7.8544  -7.7882  -7.7473  -7.7384  -7.6953  -7.6883  -7.6805
    -7.6514  -7.6218  -7.6214  -7.6206  -7.5968  -7.5517  -7.4904  -7.4489
    -7.4298  -7.4162  -7.3852  -7.3603  -7.3163  -7.3085  -3.0066  -2.9471
    -2.8105  -2.7893  -2.2229  -2.2143  -2.1107  -2.1105  -2.1017  -2.0814
    -1.9873  -1.9734  -1.9480  -1.9186  -1.9077  -1.8701  -1.7991  -1.7925
    -1.7039  -1.6732  -1.6329  -1.6193  -1.5462  -1.5274  -1.4900  -1.4158
    -1.3756  -1.3732  -1.2929  -1.2921  -1.2670  -1.2619  -1.2603  -1.2089
    -1.1814  -1.1603  -1.1143  -0.9546  -0.8713  -0.8354  -0.7048  -0.6787
    -0.6631  -0.6566  -0.6267  -0.6023  -0.5564  -0.4948  -0.4580  -0.4578
    -0.4329  -0.3693  -0.2720  -0.2583  -0.2549  -0.2185  -0.2059  -0.1939
    -0.1898  -0.1426  -0.1031  -0.0924  -0.0728  -0.0228  -0.0214  -0.0165
     0.0313   0.1120   0.1222   0.1348   0.1367   0.2057   0.2204   0.2307
     0.2802   0.2851   0.3179   0.3223   0.3224   0.3374   0.4096   0.4107
     0.4228   0.4547   0.4625   0.4994   0.5120   0.5161   0.5208   0.5356
     0.5600   0.5649   0.5678   0.5978   0.6472   0.7907   0.7915   0.8125
     0.8769   0.9094   0.9458   0.9723   1.0210   1.1034   1.1085   1.1485
     1.2148   1.2469   1.2573   1.2770   1.2945   1.3325   1.3425   1.3459
     1.3728   1.3832   1.4000   1.4543   1.4606   1.4803   1.5233   1.5310
     1.5617   1.6276   1.6337   1.6573   1.6749   1.7020   1.7427   1.8010
     1.8170   1.8187   1.8368   1.8719   1.8739   1.9322   1.9400   1.9569
     1.9705   1.9842   2.0102   2.0318   2.0415   2.1533   2.2168   2.2445
     2.2463   2.3173   2.4666   2.6572   2.9352   2.9569   2.9961   3.0132
     3.0824   3.1020   3.1420   3.1982   3.2815   3.3861   5.6944   5.7386
     5.9091   6.1692   6.4477   6.7943   7.0837   7.1106   7.2404   7.2691
     7.2741   7.4568   7.5752   7.7225   7.8023   7.8248   7.8980   8.0282
     8.3025   8.3596   8.4348   8.4650   8.5738   8.8171   8.8375   8.8393
     8.9757   8.9916   9.1641   9.1697   9.2927   9.2947   9.3614   9.4004
     9.4308   9.4916

          k = 0.0000 0.5236 0.0000 ( 68773 PWs)   bands (ev):

   -38.5722 -37.9350 -36.1146 -35.5649 -22.6564 -22.5770 -22.5472 -22.4701
   -22.4312 -22.3641 -22.3017 -22.2263 -18.8196 -18.7756 -18.6813 -18.2983
   -18.2908 -18.2814 -17.3023 -17.2544 -17.2096 -16.8187 -16.8067 -16.7691
   -14.9866 -14.9708 -14.6997 -14.6647 -14.6503 -14.5491 -14.5385 -14.4733
   -14.4260 -14.4242 -14.4028 -14.3619 -14.2944 -14.2167 -14.1457 -14.0996
   -14.0873 -14.0793 -14.0356 -14.0151 -13.9262 -13.9076 -13.8840 -13.8479
   -13.8450 -13.8321 -13.6953 -13.6264 -13.6043 -13.5599  -8.1603  -8.0874
    -8.0009  -7.9511  -7.9361  -7.9358  -7.8654  -7.8483  -7.8197  -7.7873
    -7.7679  -7.7670  -7.7595  -7.7271  -7.6901  -7.6432  -7.6304  -7.6170
    -7.5603  -7.5587  -7.5198  -7.4392  -7.3399  -7.2718  -3.3965  -3.3272
    -3.0423  -3.0330  -2.7012  -2.6506  -2.5436  -2.5105  -2.4053  -2.3297
    -2.3246  -2.2571  -2.2246  -2.1718  -2.1469  -2.1328  -2.1045  -2.0901
    -1.9628  -1.9574  -1.9529  -1.9465  -1.9353  -1.9307  -1.8397  -1.8251
    -1.6733  -1.6516  -1.5526  -1.5393  -1.5115  -1.4608  -1.4228  -1.3510
    -1.3026  -1.2099  -1.0934  -1.0346  -0.8994  -0.8311  -0.8305  -0.7803
    -0.7632  -0.7130  -0.7070  -0.7052  -0.6909  -0.6174  -0.5343  -0.5247
    -0.5058  -0.4957  -0.4725  -0.4634  -0.4335  -0.4155  -0.4025  -0.3979
    -0.3853  -0.3833  -0.3817  -0.3475  -0.3288  -0.3252  -0.2749  -0.2524
    -0.2148  -0.2128  -0.1411  -0.1328   0.0319   0.1174   0.1905   0.2835
     0.3335   0.3392   0.3469   0.3535   0.3728   0.3898   0.4132   0.4450
     0.4587   0.5266   0.5462   0.6314   0.6872   0.7457   0.7669   0.8098
     0.8268   0.8814   0.9166   0.9646   0.9817   0.9963   1.1355   1.1658
     1.1733   1.1855   1.2102   1.2366   1.3039   1.3210   1.3397   1.3699
     1.3839   1.3947   1.4013   1.4124   1.4233   1.4304   1.4363   1.4667
     1.5395   1.5440   1.5557   1.5632   1.5768   1.6040   1.6143   1.6447
     1.6692   1.7167   1.7241   1.7547   1.7578   1.8681   1.8707   1.9013
     1.9102   1.9315   1.9475   1.9516   1.9761   1.9992   2.0440   2.0755
     2.0789   2.0908   2.1113   2.1648   2.1848   2.1955   2.2064   2.2095
     2.3182   2.3709   2.4467   2.7546   3.2073   3.2155   3.2467   3.2624
     3.8446   3.8572   3.9591   3.9943   4.0589   4.0929   6.1337   6.6110
     6.6388   6.6645   6.7140   6.7594   6.7907   7.0507   7.1021   7.2438
     7.9282   7.9439   8.0826   8.2602   8.3174   8.3680   8.4786   8.5569
     8.5846   8.6565   8.7795   8.8298   8.8528   8.8773   9.0274   9.0717
     9.1255   9.2020   9.2700   9.2907   9.4698   9.5272   9.5396   9.5478
     9.6179   9.6769

          k = 0.0000 0.7854 0.0000 ( 68780 PWs)   bands (ev):

   -38.5665 -37.9284 -36.1109 -35.5608 -22.5940 -22.5142 -22.4993 -22.4224
   -22.3715 -22.3047 -22.2545 -22.1790 -18.9583 -18.7626 -18.6279 -18.5074
   -18.2734 -18.1752 -17.3828 -17.2463 -17.1721 -16.9410 -16.7588 -16.7330
   -14.7743 -14.7361 -14.6840 -14.6370 -14.5186 -14.4864 -14.4519 -14.4318
   -14.3951 -14.3729 -14.2793 -14.2507 -14.2434 -14.2030 -14.1523 -14.1408
   -14.0338 -14.0107 -14.0092 -14.0005 -13.9659 -13.9147 -13.8333 -13.8305
   -13.8018 -13.7996 -13.7823 -13.6934 -13.6554 -13.6013  -8.5554  -8.4871
    -8.2974  -8.2959  -8.2310  -8.2225  -8.0683  -7.9396  -7.8783  -7.8743
    -7.8699  -7.8294  -7.8287  -7.7653  -7.7579  -7.7390  -7.6286  -7.5998
    -7.5330  -7.5093  -7.5068  -7.4384  -7.2306  -7.1638  -3.8812  -3.7952
    -3.4528  -3.4375  -3.1091  -3.0500  -2.9864  -2.9107  -2.8704  -2.8375
    -2.7215  -2.7156  -2.6559  -2.6546  -2.4747  -2.3962  -2.3578  -2.2972
    -2.2100  -2.1701  -2.0695  -2.0599  -2.0026  -1.9865  -1.9646  -1.9425
    -1.7878  -1.7561  -1.7155  -1.6213  -1.5296  -1.5190  -1.5059  -1.3644
    -1.3297  -1.2393  -1.1228  -1.0544  -1.0130  -0.9971  -0.9566  -0.9064
    -0.8786  -0.8682  -0.8313  -0.8215  -0.8117  -0.7664  -0.7587  -0.7464
    -0.7192  -0.7086  -0.6817  -0.6693  -0.6477  -0.6349  -0.6243  -0.6026
    -0.6018  -0.6000  -0.5773  -0.5445  -0.5313  -0.4636  -0.4614  -0.4093
    -0.3750  -0.3640  -0.0743  -0.0707  -0.0123   0.0487   0.1362   0.1583
     0.2081   0.2374   0.3504   0.3736   0.4011   0.4099   0.4327   0.4946
     0.5495   0.5644   0.6743   0.7587   0.8658   0.9626   0.9679   1.0336
     1.0625   1.1190   1.1417   1.1663   1.1996   1.2048   1.2059   1.2409
     1.3014   1.3711   1.3875   1.4033   1.4434   1.4746   1.4908   1.5100
     1.5171   1.5471   1.5801   1.6097   1.6336   1.6451   1.6643   1.7133
     1.7339   1.7739   1.7936   1.8053   1.8129   1.8205   1.8741   1.8768
     1.8896   1.8918   1.8955   1.9181   1.9259   1.9414   1.9545   1.9711
     2.0172   2.0502   2.0753   2.1229   2.1684   2.1709   2.1833   2.1885
     2.2146   2.2553   2.3614   2.3861   2.3874   2.4147   2.4472   2.4883
     2.5311   2.6105   2.6121   2.6643   3.0526   3.0636   3.1581   3.1723
     4.1454   4.1901   4.5894   4.6068   4.6750   4.7008   5.8942   6.2281
     6.2479   6.3750   6.8948   7.3936   7.5441   7.5845   7.6308   7.9745
     8.1433   8.3570   8.5207   8.6018   8.7139   8.7662   8.7704   8.8563
     8.8883   8.9493   8.9652   9.0848   9.1831   9.2356   9.2934   9.3719
     9.3870   9.4296   9.4409   9.5069   9.5548   9.5848   9.6459   9.7563
     9.7590   9.7824

          k = 0.0000-1.0472 0.0000 ( 68822 PWs)   bands (ev):

   -38.5641 -37.9257 -36.1094 -35.5591 -22.5676 -22.4876 -22.4790 -22.4023
   -22.3462 -22.2796 -22.2346 -22.1591 -19.0174 -18.7572 -18.6000 -18.5880
   -18.2662 -18.1279 -17.4181 -17.2429 -17.1527 -16.9914 -16.7545 -16.6973
   -14.7815 -14.7382 -14.5761 -14.5564 -14.5337 -14.4925 -14.4133 -14.3967
   -14.3569 -14.3448 -14.2577 -14.2388 -14.1513 -14.1263 -14.1165 -14.0881
   -14.0834 -14.0719 -14.0273 -13.9761 -13.9725 -13.8716 -13.8408 -13.8026
   -13.8001 -13.7840 -13.7822 -13.7514 -13.7202 -13.5622  -8.7087  -8.6414
    -8.4499  -8.4147  -8.3754  -8.3496  -8.1924  -7.9670  -7.9455  -7.8892
    -7.8641  -7.8563  -7.8349  -7.7899  -7.7533  -7.7408  -7.6405  -7.6126
    -7.5548  -7.5054  -7.4566  -7.3854  -7.1826  -7.1159  -4.0836  -3.9913
    -3.6439  -3.6242  -3.2690  -3.2321  -3.1563  -3.0801  -3.0627  -2.9886
    -2.9530  -2.9470  -2.8861  -2.8854  -2.5034  -2.4250  -2.3770  -2.3365
    -2.3188  -2.2889  -2.0919  -2.0821  -1.9899  -1.9764  -1.9742  -1.9427
    -1.8703  -1.8511  -1.7871  -1.7296  -1.6541  -1.4331  -1.3835  -1.3626
    -1.1982  -1.1797  -1.1549  -1.1482  -1.0976  -1.0705  -1.0600  -1.0492
    -0.9172  -0.9100  -0.9051  -0.9024  -0.8948  -0.8862  -0.8611  -0.8019
    -0.7967  -0.7815  -0.7638  -0.7499  -0.7450  -0.7237  -0.7158  -0.6949
    -0.6918  -0.6557  -0.6510  -0.6373  -0.6079  -0.5527  -0.5521  -0.3518
    -0.3299  -0.3012  -0.0574  -0.0378  -0.0291   0.0372   0.0552   0.0789
     0.1047   0.1681   0.3574   0.3812   0.4179   0.4206   0.4275   0.4994
     0.5784   0.5966   0.7356   0.7706   0.9278   0.9283   1.0384   1.0667
     1.0670   1.1278   1.1730   1.2243   1.2602   1.3228   1.3499   1.3683
     1.3841   1.3925   1.4231   1.5172   1.5320   1.5424   1.5527   1.5546
     1.5633   1.5845   1.6064   1.6098   1.6174   1.7152   1.7519   1.7821
     1.8059   1.8257   1.8387   1.8761   1.9026   1.9272   1.9365   1.9657
     1.9757   1.9858   2.0201   2.0496   2.0696   2.0817   2.0870   2.1000
     2.1024   2.1380   2.1713   2.2345   2.2772   2.3228   2.3305   2.3558
     2.3595   2.3766   2.3776   2.3866   2.5710   2.5750   2.5895   2.5971
     2.6157   2.6880   2.7739   2.7752   2.8174   2.8339   2.9876   3.0029
     4.1772   4.2405   4.7823   4.8150   4.8841   4.9238   5.8015   5.9885
     6.0040   6.2746   6.7843   7.8913   7.9403   7.9677   8.0089   8.0684
     8.1777   8.4159   8.4661   8.5431   8.6885   8.7279   8.9456   8.9552
     9.0843   9.1117   9.1508   9.1741   9.2274   9.2826   9.2871   9.3057
     9.3908   9.4452   9.4609   9.5473   9.5477   9.5746   9.6170   9.8549
     9.8822  10.0380

          k = 0.1250 0.0000 0.0000 ( 68851 PWs)   bands (ev):

   -38.5802 -37.9442 -36.1198 -35.5707 -22.7370 -22.6580 -22.6179 -22.5407
   -22.5095 -22.4422 -22.3704 -22.2948 -18.8089 -18.7925 -18.5434 -18.4188
   -18.3124 -17.9473 -17.3024 -17.2707 -17.1369 -16.9219 -16.7960 -16.6003
   -15.3046 -15.2456 -14.8907 -14.8593 -14.7808 -14.7041 -14.6264 -14.5967
   -14.5623 -14.4876 -14.4500 -14.4450 -14.3917 -14.3857 -14.2981 -14.1942
   -14.0459 -14.0173 -13.9556 -13.9231 -13.9177 -13.9113 -13.9030 -13.9029
   -13.8105 -13.8025 -13.7362 -13.5233 -13.4710 -13.3981  -7.9815  -7.8781
    -7.8693  -7.8635  -7.7792  -7.7772  -7.7389  -7.7074  -7.6583  -7.6445
    -7.6216  -7.5729  -7.5631  -7.4961  -7.4878  -7.4292  -7.4241  -7.3808
    -7.3523  -7.3309  -7.3122  -7.2378  -7.1780  -7.1051  -2.8731  -2.8121
    -2.7302  -2.6943  -2.0945  -2.0706  -2.0305  -2.0136  -1.9914  -1.9776
    -1.9589  -1.9395  -1.8582  -1.8205  -1.7544  -1.7299  -1.6613  -1.6506
    -1.5935  -1.5896  -1.5745  -1.5039  -1.4296  -1.3674  -1.3288  -1.2932
    -1.2748  -1.2497  -1.1201  -1.0464  -1.0132  -0.9707  -0.9382  -0.8474
    -0.8451  -0.8449  -0.8439  -0.8373  -0.8234  -0.7676  -0.7664  -0.7461
    -0.7217  -0.6513  -0.6140  -0.5997  -0.5845  -0.5836  -0.4903  -0.4443
    -0.4334  -0.3068  -0.2547  -0.2381  -0.2281  -0.2083  -0.1574  -0.1429
    -0.1101  -0.1010  -0.0798  -0.0641  -0.0600  -0.0587   0.0097   0.0214
     0.1074   0.1184   0.1217   0.1250   0.1318   0.1662   0.1711   0.2067
     0.2276   0.2739   0.2980   0.3054   0.3444   0.3494   0.3738   0.3861
     0.3878   0.4384   0.4599   0.4720   0.4731   0.4874   0.4964   0.5008
     0.5414   0.5806   0.6258   0.6536   0.6856   0.6879   0.6899   0.7172
     0.7859   0.8698   0.8805   0.8989   0.9311   1.0531   1.0656   1.1134
     1.1161   1.1742   1.1825   1.2323   1.2455   1.2472   1.3049   1.3155
     1.3349   1.3528   1.3668   1.3824   1.4104   1.4289   1.4539   1.5365
     1.5419   1.5731   1.5947   1.6237   1.6646   1.6866   1.7165   1.7414
     1.7514   1.8277   1.8512   1.8546   1.9099   1.9329   1.9455   1.9707
     1.9738   2.0114   2.0207   2.0218   2.0404   2.1775   2.2495   2.2642
     2.3593   2.3637   2.3871   2.4263   2.4451   2.4703   2.5737   2.5895
     2.6846   2.7215   2.7229   2.8437   2.9857   3.0163   5.3593   5.4067
     5.6872   5.9963   6.3166   6.7046   6.8246   6.8679   7.0398   7.0544
     7.1758   7.3636   7.6262   7.7800   7.7978   7.8715   7.8786   8.0551
     8.1732   8.2611   8.2831   8.3195   8.4414   8.6311   8.6974   8.7535
     8.7922   8.9262   8.9984   9.0519   9.1514   9.1776   9.2042   9.3327
     9.3666   9.4136

          k = 0.1250 0.2618 0.0000 ( 68827 PWs)   bands (ev):

   -38.5778 -37.9415 -36.1183 -35.5690 -22.7126 -22.6335 -22.5986 -22.5214
   -22.4861 -22.4188 -22.3514 -22.2758 -18.7890 -18.7870 -18.6107 -18.3802
   -18.3051 -18.0582 -17.2882 -17.2670 -17.1743 -16.8922 -16.7911 -16.6662
   -15.1995 -15.1622 -14.8361 -14.8045 -14.7161 -14.6802 -14.5845 -14.5519
   -14.5245 -14.4792 -14.4034 -14.3867 -14.3736 -14.3692 -14.2746 -14.1530
   -14.0536 -14.0146 -13.9792 -13.9706 -13.9117 -13.9100 -13.9005 -13.8964
   -13.8448 -13.7730 -13.7683 -13.5313 -13.5177 -13.4585  -7.9745  -7.8905
    -7.8796  -7.8577  -7.8033  -7.7960  -7.7372  -7.7332  -7.7304  -7.6612
    -7.6585  -7.6328  -7.6169  -7.5755  -7.5613  -7.5184  -7.5067  -7.4967
    -7.4573  -7.4179  -7.3605  -7.3296  -7.2829  -7.2591  -2.9706  -2.9129
    -2.7748  -2.7538  -2.2302  -2.2216  -2.1161  -2.1110  -2.1008  -2.0733
    -1.9956  -1.9738  -1.9530  -1.9176  -1.9123  -1.8767  -1.8261  -1.8079
    -1.7074  -1.6732  -1.6532  -1.6465  -1.6089  -1.5258  -1.5106  -1.4493
    -1.3598  -1.3470  -1.2903  -1.2878  -1.2631  -1.2623  -1.2355  -1.1893
    -1.1705  -1.1340  -1.0913  -0.9492  -0.8718  -0.8419  -0.7135  -0.6837
    -0.6663  -0.6519  -0.6149  -0.6043  -0.5399  -0.5297  -0.5027  -0.4513
    -0.4410  -0.3580  -0.3024  -0.2834  -0.2434  -0.2353  -0.2273  -0.2021
    -0.1954  -0.1707  -0.1510  -0.1170  -0.0499  -0.0188  -0.0059   0.0063
     0.0372   0.1137   0.1175   0.1312   0.1365   0.1959   0.1981   0.2076
     0.2811   0.2885   0.3034   0.3092   0.3385   0.3689   0.4197   0.4234
     0.4240   0.4424   0.4533   0.4985   0.5135   0.5155   0.5206   0.5497
     0.5569   0.5664   0.5802   0.6186   0.6646   0.7703   0.7715   0.8087
     0.8897   0.9109   0.9640   0.9902   1.0354   1.0830   1.1123   1.1754
     1.1822   1.2350   1.2531   1.2829   1.3083   1.3180   1.3424   1.3547
     1.3669   1.3873   1.3975   1.4209   1.4422   1.4612   1.5110   1.5349
     1.5396   1.5563   1.6158   1.6644   1.6897   1.7103   1.7611   1.7868
     1.7935   1.8330   1.8499   1.8690   1.8895   1.9159   1.9315   1.9427
     1.9647   1.9871   1.9949   2.0232   2.0519   2.1507   2.2587   2.3152
     2.3540   2.4105   2.4722   2.6698   2.9320   2.9568   2.9987   3.0146
     3.0785   3.0997   3.1477   3.1970   3.2756   3.3776   5.7376   5.7758
     5.9451   6.1965   6.4740   6.8089   7.0737   7.0843   7.1382   7.1646
     7.2652   7.5018   7.5876   7.7527   7.8280   7.9480   7.9890   8.0649
     8.2752   8.3769   8.4398   8.5026   8.5988   8.8152   8.8295   8.8798
     8.9894   9.0246   9.1353   9.1428   9.2344   9.2874   9.3019   9.3592
     9.4071   9.4457

          k = 0.1250 0.5236 0.0000 ( 68776 PWs)   bands (ev):

   -38.5722 -37.9350 -36.1146 -35.5649 -22.6526 -22.5731 -22.5511 -22.4741
   -22.4283 -22.3614 -22.3048 -22.2292 -18.8196 -18.7741 -18.6811 -18.2983
   -18.2877 -18.2808 -17.3024 -17.2586 -17.2102 -16.8204 -16.8076 -16.7792
   -14.9622 -14.9538 -14.6925 -14.6613 -14.6467 -14.5493 -14.5363 -14.4748
   -14.4285 -14.4226 -14.4026 -14.3619 -14.3038 -14.2365 -14.1963 -14.1189
   -14.0769 -14.0384 -14.0220 -14.0168 -13.9246 -13.9073 -13.8824 -13.8493
   -13.8473 -13.8350 -13.6933 -13.6281 -13.6070 -13.5599  -8.1941  -8.1233
    -7.9649  -7.9555  -7.9236  -7.8871  -7.8770  -7.8716  -7.8277  -7.8182
    -7.7969  -7.7836  -7.7498  -7.7369  -7.6925  -7.6357  -7.6006  -7.5785
    -7.5627  -7.5523  -7.5085  -7.5060  -7.3002  -7.2353  -3.3609  -3.2921
    -3.0061  -2.9962  -2.7106  -2.6596  -2.5455  -2.5130  -2.4038  -2.3286
    -2.3225  -2.2524  -2.2223  -2.1692  -2.1478  -2.1324  -2.1043  -2.0899
    -1.9636  -1.9576  -1.9519  -1.9452  -1.9406  -1.9304  -1.8064  -1.7941
    -1.7191  -1.6908  -1.5392  -1.5291  -1.5197  -1.5009  -1.4283  -1.4083
    -1.2955  -1.2124  -1.1003  -1.0436  -0.9127  -0.8492  -0.8302  -0.7988
    -0.7657  -0.7432  -0.6958  -0.6904  -0.6669  -0.6226  -0.5841  -0.5622
    -0.5258  -0.5100  -0.5016  -0.4854  -0.4664  -0.4515  -0.4330  -0.4135
    -0.3821  -0.3795  -0.3753  -0.3585  -0.3359  -0.3122  -0.2779  -0.2487
    -0.2146  -0.2002  -0.1348  -0.1292   0.0445   0.1489   0.2225   0.2762
     0.2906   0.3110   0.3296   0.3682   0.3784   0.3930   0.4287   0.4382
     0.4725   0.5060   0.5707   0.6632   0.6831   0.7374   0.8025   0.8225
     0.8481   0.8719   0.9092   0.9780   0.9950   1.0046   1.1308   1.1508
     1.1594   1.1819   1.2231   1.2347   1.2566   1.2938   1.3065   1.3299
     1.3445   1.3774   1.4065   1.4348   1.4631   1.4716   1.4831   1.4981
     1.5061   1.5282   1.5634   1.5879   1.5959   1.6071   1.6253   1.6437
     1.6621   1.7066   1.7311   1.7419   1.7692   1.8190   1.8482   1.8612
     1.8946   1.9144   1.9490   1.9554   1.9615   1.9759   2.0080   2.0524
     2.0586   2.0661   2.1513   2.1974   2.2003   2.2348   2.2907   2.3435
     2.3931   2.4567   2.5709   2.7920   3.2086   3.2170   3.2479   3.2636
     3.8454   3.8540   3.9274   3.9654   4.0324   4.0653   6.1617   6.6290
     6.6543   6.6756   6.7109   6.7673   6.8218   7.0579   7.1204   7.2667
     7.9682   7.9909   8.0678   8.2659   8.2826   8.3898   8.4697   8.5453
     8.5604   8.6514   8.7067   8.8564   8.8615   8.8987   9.0267   9.0728
     9.1406   9.1864   9.2739   9.2999   9.4382   9.4932   9.5238   9.5513
     9.5934   9.6822

          k = 0.1250 0.7854 0.0000 ( 68770 PWs)   bands (ev):

   -38.5665 -37.9284 -36.1109 -35.5608 -22.5908 -22.5109 -22.5026 -22.4258
   -22.3690 -22.3025 -22.2571 -22.1814 -18.9583 -18.7611 -18.6277 -18.5074
   -18.2704 -18.1747 -17.3828 -17.2502 -17.1727 -16.9410 -16.7682 -16.7352
   -14.7588 -14.7228 -14.6757 -14.6198 -14.5193 -14.4917 -14.4431 -14.4272
   -14.4017 -14.3723 -14.2782 -14.2534 -14.2436 -14.2031 -14.1631 -14.1489
   -14.0485 -14.0376 -14.0053 -13.9949 -13.9681 -13.9069 -13.8322 -13.8293
   -13.8026 -13.8003 -13.7781 -13.6904 -13.6602 -13.6056  -8.5457  -8.4776
    -8.2854  -8.2538  -8.2153  -8.1884  -8.0215  -7.9388  -7.8770  -7.8756
    -7.8711  -7.8425  -7.8343  -7.8001  -7.7652  -7.7386  -7.6500  -7.6209
    -7.5619  -7.5243  -7.5215  -7.4538  -7.2473  -7.1791  -3.8444  -3.7583
    -3.4193  -3.4029  -3.1233  -3.0586  -2.9912  -2.9172  -2.8727  -2.8452
    -2.7191  -2.7133  -2.6584  -2.6569  -2.4609  -2.3820  -2.3467  -2.2853
    -2.1797  -2.1441  -2.0710  -2.0606  -2.0015  -1.9846  -1.9697  -1.9411
    -1.7713  -1.7398  -1.7026  -1.6247  -1.5799  -1.5367  -1.4782  -1.4161
    -1.3547  -1.3191  -1.1146  -1.0814  -1.0313  -1.0125  -0.9500  -0.9284
    -0.9215  -0.8972  -0.8593  -0.8485  -0.8306  -0.8123  -0.7925  -0.7435
    -0.7182  -0.7098  -0.6840  -0.6785  -0.6688  -0.6538  -0.6275  -0.6111
    -0.5929  -0.5918  -0.5772  -0.5579  -0.5276  -0.4687  -0.4654  -0.3860
    -0.3652  -0.3339  -0.0849  -0.0796   0.0159   0.0880   0.1416   0.2226
     0.2657   0.2950   0.3219   0.3245   0.3856   0.4358   0.4571   0.4730
     0.5293   0.5472   0.7194   0.8119   0.8421   0.9361   0.9650   1.0103
     1.0578   1.1215   1.1463   1.1609   1.1935   1.2307   1.2369   1.2628
     1.2847   1.3632   1.3871   1.3989   1.4198   1.4557   1.4704   1.4855
     1.5172   1.5451   1.5801   1.5880   1.6440   1.6699   1.6726   1.7012
     1.7233   1.7476   1.7751   1.7878   1.7942   1.8218   1.8737   1.8838
     1.8932   1.9077   1.9219   1.9451   1.9489   1.9661   1.9720   1.9891
     2.0143   2.0291   2.0616   2.1328   2.1531   2.1735   2.2059   2.2464
     2.2862   2.3157   2.3519   2.3952   2.3995   2.4017   2.4795   2.5488
     2.5743   2.6024   2.6042   2.7085   3.0549   3.0657   3.1630   3.1778
     4.1435   4.1979   4.5285   4.5436   4.6175   4.6404   5.9338   6.2832
     6.2955   6.4087   6.9238   7.3649   7.5104   7.5492   7.6052   7.9628
     8.0831   8.3311   8.4893   8.5407   8.7312   8.7543   8.8161   8.8494
     8.9129   8.9709   9.0008   9.0981   9.2065   9.2496   9.3025   9.3632
     9.4283   9.4498   9.4630   9.5035   9.5587   9.6240   9.6652   9.7327
     9.7861   9.8064

          k = 0.1250-1.0472 0.0000 ( 68866 PWs)   bands (ev):

   -38.5641 -37.9257 -36.1094 -35.5591 -22.5647 -22.4845 -22.4821 -22.4054
   -22.3440 -22.2776 -22.2370 -22.1612 -19.0173 -18.7557 -18.5998 -18.5880
   -18.2632 -18.1274 -17.4181 -17.2467 -17.1533 -16.9914 -16.7636 -16.6993
   -14.7702 -14.7270 -14.5524 -14.5510 -14.5203 -14.4917 -14.4005 -14.3906
   -14.3768 -14.3644 -14.2572 -14.2347 -14.1548 -14.1352 -14.1197 -14.0841
   -14.0831 -14.0656 -14.0379 -13.9934 -13.9750 -13.8697 -13.8503 -13.8021
   -13.7996 -13.7850 -13.7831 -13.7535 -13.7149 -13.5686  -8.6784  -8.6111
    -8.4208  -8.3842  -8.3460  -8.3189  -8.1609  -7.9475  -7.9416  -7.8913
    -7.8808  -7.8669  -7.8314  -7.8250  -7.7560  -7.7402  -7.6723  -7.6136
    -7.5875  -7.5103  -7.5003  -7.4295  -7.2229  -7.1530  -4.0457  -3.9533
    -3.6107  -3.5898  -3.2837  -3.2367  -3.1667  -3.0822  -3.0721  -2.9982
    -2.9516  -2.9453  -2.8888  -2.8879  -2.4866  -2.4077  -2.3627  -2.3084
    -2.3035  -2.2659  -2.0942  -2.0836  -1.9909  -1.9823  -1.9740  -1.9413
    -1.8545  -1.8208  -1.7770  -1.7011  -1.6345  -1.4475  -1.3762  -1.3737
    -1.2900  -1.2644  -1.2253  -1.2037  -1.1460  -1.1015  -1.0802  -1.0158
    -1.0024  -0.9606  -0.9449  -0.9244  -0.8906  -0.8884  -0.8431  -0.8291
    -0.7986  -0.7767  -0.7656  -0.7620  -0.7426  -0.7279  -0.6905  -0.6874
    -0.6821  -0.6575  -0.6411  -0.6324  -0.6048  -0.5589  -0.5566  -0.3472
    -0.3096  -0.2777  -0.0520  -0.0485  -0.0160   0.0693   0.0963   0.1690
     0.1887   0.2121   0.3227   0.3284   0.4125   0.4405   0.4420   0.4717
     0.5633   0.5807   0.7856   0.8261   0.8965   0.9680   1.0201   1.0298
     1.0662   1.0949   1.1722   1.2059   1.2712   1.3182   1.3561   1.3654
     1.3896   1.3897   1.4322   1.4901   1.5210   1.5247   1.5391   1.5491
     1.5606   1.5765   1.5834   1.5984   1.6466   1.7214   1.7394   1.7828
     1.7856   1.8211   1.8567   1.9056   1.9333   1.9388   1.9649   1.9843
     1.9943   1.9988   2.0113   2.0463   2.0809   2.0831   2.0972   2.1200
     2.1658   2.1712   2.2051   2.2306   2.3132   2.3292   2.3436   2.3471
     2.3535   2.3812   2.4078   2.4715   2.5430   2.5482   2.5867   2.5962
     2.6000   2.6827   2.7666   2.7681   2.8223   2.8380   2.9974   3.0137
     4.1698   4.2614   4.7074   4.7368   4.8107   4.8456   5.8413   6.0566
     6.0698   6.3036   6.8149   7.7673   7.8047   7.8751   7.9575   8.0230
     8.1884   8.3693   8.4178   8.6170   8.7032   8.7831   8.9892   9.0678
     9.0860   9.0943   9.2157   9.2302   9.2806   9.2995   9.3040   9.3295
     9.4326   9.4644   9.4950   9.5244   9.5585   9.6335   9.6565   9.8482
     9.9089  10.0174

          k = 0.2500 0.0000 0.0000 ( 68809 PWs)   bands (ev):

   -38.5802 -37.9442 -36.1198 -35.5707 -22.7244 -22.6449 -22.6313 -22.5545
   -22.5001 -22.4336 -22.3805 -22.3040 -18.8082 -18.7886 -18.5434 -18.4171
   -18.3045 -17.9473 -17.3047 -17.2819 -17.1369 -16.9290 -16.8244 -16.6003
   -15.2307 -15.1923 -14.8536 -14.8268 -14.7637 -14.7003 -14.6676 -14.6110
   -14.5585 -14.5498 -14.5006 -14.4932 -14.4209 -14.4037 -14.2600 -14.1514
   -14.0253 -14.0029 -13.9381 -13.9275 -13.9187 -13.9175 -13.9049 -13.9038
   -13.8198 -13.7695 -13.7579 -13.5259 -13.5132 -13.4069  -7.9863  -7.8841
    -7.8729  -7.8700  -7.7876  -7.7442  -7.7426  -7.6846  -7.6733  -7.6410
    -7.6209  -7.5821  -7.5487  -7.5134  -7.4564  -7.4504  -7.3932  -7.3791
    -7.3592  -7.3400  -7.2911  -7.2404  -7.2018  -7.1284  -2.7724  -2.7200
    -2.6324  -2.5999  -2.1120  -2.0753  -2.0651  -2.0578  -2.0427  -1.9661
    -1.9568  -1.9499  -1.9316  -1.8645  -1.8056  -1.7478  -1.7134  -1.6448
    -1.6253  -1.6116  -1.6091  -1.5728  -1.3856  -1.3637  -1.3269  -1.3191
    -1.2984  -1.2779  -1.0776  -0.9951  -0.9463  -0.8639  -0.8638  -0.8454
    -0.8423  -0.8410  -0.8387  -0.8360  -0.8005  -0.7969  -0.7596  -0.6963
    -0.6836  -0.6304  -0.6156  -0.5405  -0.5384  -0.5223  -0.5010  -0.4677
    -0.4339  -0.3487  -0.3115  -0.2562  -0.2221  -0.1991  -0.1804  -0.1606
    -0.1577  -0.1389  -0.1362  -0.1236  -0.1166  -0.1050  -0.0998  -0.0406
     0.0953   0.1091   0.1130   0.1154   0.1309   0.1416   0.1553   0.1923
     0.2575   0.2918   0.3416   0.3489   0.3518   0.3733   0.3750   0.3932
     0.4028   0.4507   0.4539   0.4648   0.4853   0.5050   0.5324   0.5818
     0.5839   0.6145   0.6276   0.6446   0.6713   0.6933   0.7077   0.7137
     0.7843   0.8185   0.8781   0.8789   0.9324   1.0106   1.0231   1.0753
     1.1037   1.1552   1.1707   1.2024   1.2147   1.2328   1.2360   1.2511
     1.3171   1.3333   1.3674   1.4102   1.4125   1.4280   1.4515   1.5251
     1.5259   1.5842   1.5999   1.6370   1.6779   1.6955   1.6978   1.7226
     1.7297   1.8225   1.8424   1.8539   1.9071   1.9416   1.9435   1.9851
     1.9966   2.0356   2.0693   2.1124   2.1430   2.1936   2.2213   2.2658
     2.3217   2.3342   2.3713   2.4164   2.4397   2.4461   2.5781   2.6233
     2.6928   2.7459   2.7534   2.8331   2.9700   2.9912   5.5158   5.5441
     5.8232   6.1179   6.3922   6.6537   6.6660   6.7499   6.9873   7.0189
     7.1596   7.3226   7.5679   7.7585   7.7853   8.0753   8.1176   8.1349
     8.2193   8.2860   8.3496   8.4114   8.5344   8.5684   8.7210   8.8155
     8.8375   8.9182   8.9675   9.0247   9.1324   9.1616   9.2314   9.3059
     9.3556   9.4732

          k = 0.2500 0.2618 0.0000 ( 68820 PWs)   bands (ev):

   -38.5778 -37.9415 -36.1183 -35.5691 -22.7006 -22.6210 -22.6113 -22.5346
   -22.4772 -22.4107 -22.3610 -22.2845 -18.7883 -18.7831 -18.6106 -18.3785
   -18.2974 -18.0582 -17.2905 -17.2776 -17.1745 -16.8991 -16.8182 -16.6660
   -15.1274 -15.1104 -14.8039 -14.7778 -14.7047 -14.6760 -14.6174 -14.5632
   -14.5196 -14.5003 -14.4605 -14.4533 -14.4102 -14.3857 -14.2501 -14.1106
   -14.0298 -14.0039 -13.9756 -13.9584 -13.9112 -13.9087 -13.9051 -13.8994
   -13.8513 -13.7889 -13.7467 -13.5512 -13.5387 -13.4576  -7.9809  -7.9103
    -7.8818  -7.8697  -7.8568  -7.8233  -7.7803  -7.7761  -7.7365  -7.6976
    -7.6917  -7.6485  -7.5619  -7.5589  -7.5446  -7.5162  -7.4929  -7.4881
    -7.4584  -7.4477  -7.2995  -7.2701  -7.2240  -7.1982  -2.8665  -2.8151
    -2.6729  -2.6529  -2.2642  -2.2501  -2.1416  -2.1329  -2.0798  -2.0521
    -2.0197  -1.9767  -1.9751  -1.9228  -1.9153  -1.8924  -1.8867  -1.8528
    -1.7506  -1.7116  -1.7033  -1.6899  -1.6709  -1.6475  -1.5129  -1.4528
    -1.3257  -1.2941  -1.2817  -1.2794  -1.2664  -1.2652  -1.1548  -1.1465
    -1.1277  -1.0553  -1.0233  -0.9287  -0.8848  -0.8449  -0.7356  -0.7095
    -0.6828  -0.6653  -0.6357  -0.6165  -0.5667  -0.5644  -0.4986  -0.4623
    -0.4402  -0.4280  -0.4116  -0.3424  -0.3212  -0.2935  -0.2279  -0.2127
    -0.1957  -0.1670  -0.1639  -0.1350  -0.0437  -0.0040   0.0089   0.0291
     0.0507   0.1027   0.1159   0.1308   0.1325   0.1458   0.1622   0.1767
     0.2758   0.2830   0.2871   0.2981   0.3116   0.3633   0.4432   0.4562
     0.4569   0.4597   0.4757   0.5120   0.5208   0.5230   0.5272   0.5593
     0.5708   0.5881   0.6009   0.6654   0.6928   0.7260   0.7338   0.8073
     0.8926   0.9252   1.0065   1.0226   1.0377   1.0764   1.1067   1.1698
     1.1944   1.2603   1.2688   1.2811   1.2953   1.3013   1.3388   1.3419
     1.3563   1.3672   1.3891   1.3935   1.4047   1.4304   1.4706   1.4981
     1.5304   1.5683   1.5817   1.6476   1.6607   1.6843   1.7742   1.7833
     1.7981   1.8027   1.8155   1.8465   1.8677   1.8816   1.8988   1.9239
     1.9593   1.9653   1.9954   2.0088   2.1005   2.2171   2.4012   2.4491
     2.4843   2.5436   2.6122   2.7215   2.9192   2.9532   3.0065   3.0192
     3.0640   3.0893   3.1633   3.1888   3.2507   3.3487   5.8602   5.8830
     6.0498   6.2638   6.5581   6.7901   6.8023   6.8442   7.1418   7.2968
     7.3200   7.6021   7.6306   7.6530   7.9216   8.0256   8.2083   8.2117
     8.2738   8.4068   8.4989   8.5440   8.6630   8.7419   8.8321   8.9146
     8.9577   9.0004   9.0495   9.1311   9.1641   9.1847   9.2608   9.3327
     9.4099   9.4422

          k = 0.2500 0.5236 0.0000 ( 68740 PWs)   bands (ev):

   -38.5722 -37.9350 -36.1146 -35.5649 -22.6421 -22.5622 -22.5621 -22.4856
   -22.4206 -22.3545 -22.3130 -22.2365 -18.8195 -18.7703 -18.6806 -18.2982
   -18.2802 -18.2793 -17.3027 -17.2687 -17.2117 -16.8253 -16.8098 -16.8025
   -14.9069 -14.8961 -14.6768 -14.6540 -14.6373 -14.5600 -14.5310 -14.4797
   -14.4333 -14.4160 -14.4025 -14.3621 -14.3344 -14.2907 -14.2529 -14.1291
   -14.0717 -14.0293 -14.0102 -13.9870 -13.9136 -13.9072 -13.8778 -13.8541
   -13.8534 -13.8412 -13.6869 -13.6338 -13.6135 -13.5598  -8.2296  -8.1599
    -7.9830  -7.9765  -7.9391  -7.9172  -7.9052  -7.8765  -7.8232  -7.8102
    -7.7957  -7.7843  -7.7335  -7.7236  -7.6952  -7.6667  -7.6186  -7.5787
    -7.5359  -7.5311  -7.4744  -7.4617  -7.2623  -7.1969  -3.2604  -3.1934
    -2.9067  -2.8945  -2.7441  -2.6920  -2.5539  -2.5233  -2.3999  -2.3329
    -2.3063  -2.2363  -2.2125  -2.1589  -2.1518  -2.1316  -2.1024  -2.0874
    -1.9708  -1.9640  -1.9597  -1.9486  -1.9403  -1.9289  -1.8302  -1.7849
    -1.7128  -1.7065  -1.6927  -1.6014  -1.4871  -1.4662  -1.4395  -1.3960
    -1.2768  -1.2225  -1.1327  -1.0804  -0.9482  -0.9003  -0.8613  -0.8474
    -0.7936  -0.7780  -0.7598  -0.7452  -0.6906  -0.6737  -0.6544  -0.6411
    -0.6199  -0.5918  -0.5276  -0.5039  -0.4695  -0.4545  -0.4298  -0.4214
    -0.3742  -0.3650  -0.3547  -0.3448  -0.3312  -0.2936  -0.2716  -0.2623
    -0.2119  -0.1696  -0.1250  -0.1224   0.0608   0.0891   0.1405   0.2389
     0.2708   0.2971   0.3658   0.3703   0.3819   0.4113   0.4438   0.4981
     0.5154   0.5642   0.6288   0.6593   0.7171   0.7541   0.7875   0.8539
     0.8963   0.9076   0.9368   1.0057   1.0156   1.0256   1.0792   1.1251
     1.1385   1.1779   1.2072   1.2138   1.2305   1.2513   1.2527   1.2761
     1.2853   1.3853   1.3943   1.4070   1.4104   1.4984   1.5191   1.5539
     1.5594   1.5856   1.5934   1.6092   1.6189   1.6334   1.6515   1.6613
     1.6780   1.6892   1.7211   1.7308   1.7470   1.7750   1.8025   1.8300
     1.8500   1.8670   1.8979   1.9435   1.9493   1.9642   1.9861   1.9932
     2.0155   2.0548   2.1695   2.1756   2.2237   2.3520   2.3768   2.4923
     2.6671   2.7458   2.8572   2.9452   3.2114   3.2204   3.2542   3.2708
     3.8126   3.8324   3.8526   3.8918   3.9468   3.9804   6.2344   6.6728
     6.6949   6.7095   6.7219   6.7853   6.8761   7.0684   7.1799   7.3226
     7.9504   8.1233   8.1275   8.1682   8.2999   8.4072   8.5004   8.5080
     8.5452   8.5623   8.6652   8.8553   8.9286   8.9592   9.0230   9.0678
     9.1680   9.1831   9.2814   9.3140   9.3665   9.4480   9.4734   9.4966
     9.6010   9.6380

          k = 0.2500 0.7854 0.0000 ( 68816 PWs)   bands (ev):

   -38.5665 -37.9284 -36.1109 -35.5608 -22.5819 -22.5118 -22.5015 -22.4355
   -22.3626 -22.2967 -22.2639 -22.1874 -18.9582 -18.7574 -18.6273 -18.5073
   -18.2630 -18.1734 -17.3828 -17.2596 -17.1742 -16.9410 -16.7906 -16.7404
   -14.7194 -14.6863 -14.6523 -14.5686 -14.5317 -14.5086 -14.4277 -14.4155
   -14.4117 -14.3639 -14.2750 -14.2577 -14.2456 -14.2072 -14.1960 -14.1568
   -14.1162 -14.0711 -13.9906 -13.9855 -13.9728 -13.9037 -13.8288 -13.8257
   -13.8051 -13.8025 -13.7668 -13.6831 -13.6719 -13.6170  -8.5058  -8.4378
    -8.2434  -8.1771  -8.1446  -8.0781  -8.0029  -7.9344  -7.9233  -7.9091
    -7.8781  -7.8631  -7.8123  -7.7833  -7.7719  -7.7541  -7.7206  -7.6755
    -7.6128  -7.5803  -7.5310  -7.5108  -7.3052  -7.2287  -3.7420  -3.6558
    -3.3290  -3.3088  -3.1694  -3.0950  -3.0023  -2.9376  -2.8786  -2.8685
    -2.7119  -2.7068  -2.6655  -2.6635  -2.4166  -2.3372  -2.3098  -2.2457
    -2.0954  -2.0772  -2.0694  -2.0615  -1.9971  -1.9866  -1.9762  -1.9364
    -1.7487  -1.7304  -1.7163  -1.6593  -1.6261  -1.5842  -1.5416  -1.4898
    -1.4060  -1.3336  -1.2337  -1.1980  -1.1187  -1.0792  -1.0607  -1.0452
    -0.9976  -0.9473  -0.9342  -0.9293  -0.8458  -0.8265  -0.7875  -0.7509
    -0.7426  -0.6948  -0.6726  -0.6375  -0.6277  -0.6190  -0.6080  -0.6056
    -0.5803  -0.5695  -0.5675  -0.5499  -0.5121  -0.4766  -0.4654  -0.3920
    -0.3396  -0.3164  -0.1186  -0.1123  -0.0127   0.0745   0.1215   0.2174
     0.3216   0.3528   0.3989   0.4178   0.4259   0.4855   0.4957   0.5100
     0.5223   0.5559   0.7831   0.8401   0.8657   0.8962   0.9484   1.0529
     1.0830   1.0971   1.1255   1.1501   1.2157   1.2194   1.2805   1.3023
     1.3140   1.3396   1.3578   1.3836   1.3920   1.4221   1.4577   1.4619
     1.5113   1.5271   1.5626   1.5747   1.6367   1.6506   1.6676   1.6909
     1.7073   1.7368   1.7407   1.7748   1.7958   1.8212   1.8490   1.8851
     1.8925   1.8979   1.9284   1.9354   1.9443   1.9734   1.9870   1.9956
     2.0233   2.0363   2.0566   2.1159   2.1307   2.1560   2.1686   2.2111
     2.2716   2.3256   2.4205   2.4247   2.4770   2.5784   2.5809   2.6245
     2.6558   2.7139   2.8407   2.8983   3.0618   3.0719   3.1968   3.2155
     4.1381   4.2118   4.3450   4.3620   4.4475   4.4620   6.0446   6.4106
     6.4406   6.5215   7.0015   7.2709   7.3942   7.4308   7.5161   7.9078
     7.9965   8.2880   8.3658   8.5323   8.7224   8.7371   8.8287   8.9244
     8.9452   8.9891   9.0720   9.1569   9.2337   9.2837   9.3489   9.3603
     9.4535   9.5168   9.5560   9.5605   9.6017   9.6460   9.6913   9.7113
     9.8329   9.8555

          k = 0.2500-1.0472 0.0000 ( 68812 PWs)   bands (ev):

   -38.5641 -37.9257 -36.1094 -35.5591 -22.5565 -22.4905 -22.4759 -22.4144
   -22.3381 -22.2724 -22.2432 -22.1666 -19.0173 -18.7520 -18.5995 -18.5879
   -18.2559 -18.1263 -17.4181 -17.2558 -17.1547 -16.9915 -16.7852 -16.7041
   -14.7377 -14.6948 -14.5384 -14.5008 -14.4883 -14.4835 -14.4128 -14.4112
   -14.3755 -14.3659 -14.2634 -14.2290 -14.1667 -14.1605 -14.1269 -14.0855
   -14.0697 -14.0666 -14.0473 -14.0419 -13.9833 -13.8882 -13.8498 -13.8006
   -13.7981 -13.7875 -13.7855 -13.7614 -13.6996 -13.5868  -8.5916  -8.5245
    -8.3380  -8.2954  -8.2621  -8.2295  -8.0702  -7.9895  -7.9312  -7.9234
    -7.9001  -7.8760  -7.8510  -7.8217  -7.7648  -7.7616  -7.7383  -7.6792
    -7.6207  -7.6160  -7.5504  -7.5214  -7.3367  -7.2488  -3.9408  -3.8478
    -3.5213  -3.4963  -3.3326  -3.2617  -3.1906  -3.1001  -3.0878  -3.0285
    -2.9456  -2.9399  -2.8965  -2.8952  -2.4334  -2.3542  -2.3159  -2.2536
    -2.2266  -2.1976  -2.1014  -2.0873  -1.9991  -1.9907  -1.9696  -1.9364
    -1.8144  -1.7774  -1.7333  -1.6409  -1.5791  -1.5418  -1.5098  -1.5031
    -1.4228  -1.3779  -1.3379  -1.3191  -1.2910  -1.2429  -1.1587  -1.1160
    -1.0910  -1.0103  -0.9818  -0.9700  -0.9117  -0.8583  -0.8390  -0.8068
    -0.7766  -0.7658  -0.7325  -0.7078  -0.6954  -0.6849  -0.6824  -0.6683
    -0.6573  -0.6347  -0.6329  -0.6156  -0.5686  -0.5613  -0.5552  -0.3598
    -0.3095  -0.2806  -0.0949  -0.0891  -0.0433   0.0491   0.1309   0.2113
     0.3337   0.3711   0.3765   0.3835   0.4193   0.4768   0.4794   0.5197
     0.5395   0.5575   0.8228   0.9212   0.9293   0.9540   0.9702   1.0776
     1.1458   1.1599   1.1786   1.1850   1.2081   1.3208   1.3665   1.3701
     1.3882   1.3932   1.4047   1.4065   1.4297   1.4484   1.5372   1.5527
     1.5604   1.5680   1.5800   1.5937   1.6922   1.7156   1.7355   1.7426
     1.7653   1.7998   1.8347   1.8445   1.9068   1.9308   1.9348   1.9860
     1.9987   2.0035   2.0039   2.0219   2.0569   2.0672   2.0842   2.0942
     2.1722   2.2128   2.2646   2.3116   2.3247   2.3304   2.3380   2.3568
     2.4627   2.4645   2.4744   2.5660   2.6074   2.6155   2.6181   2.6731
     2.7231   2.7461   2.7479   2.7585   2.8384   2.8512   3.0678   3.0918
     4.1637   4.2949   4.4881   4.5141   4.5996   4.6220   5.9551   6.2461
     6.2505   6.3936   6.8982   7.4846   7.5353   7.6264   7.7224   8.0574
     8.0960   8.2155   8.4170   8.6962   8.8854   8.9255   9.0464   9.0853
     9.1003   9.1409   9.3161   9.3275   9.3437   9.4110   9.4434   9.4580
     9.4858   9.5242   9.5568   9.6184   9.6944   9.6958   9.7846   9.8314
     9.8963   9.9691

          k = 0.3750 0.0000 0.0000 ( 68824 PWs)   bands (ev):

   -38.5802 -37.9441 -36.1198 -35.5708 -22.7062 -22.6502 -22.6255 -22.5747
   -22.4888 -22.4235 -22.3927 -22.3145 -18.8075 -18.7847 -18.5434 -18.4153
   -18.2965 -17.9473 -17.3068 -17.2933 -17.1369 -16.9361 -16.8521 -16.6003
   -15.1358 -15.1208 -14.8302 -14.8115 -14.7618 -14.6994 -14.6931 -14.6390
   -14.6223 -14.5633 -14.5136 -14.5029 -14.4613 -14.4246 -14.2392 -14.1254
   -14.0150 -13.9883 -13.9308 -13.9245 -13.9234 -13.9194 -13.9076 -13.8840
   -13.8285 -13.7898 -13.7173 -13.5756 -13.5276 -13.4155  -7.9904  -7.8891
    -7.8755  -7.8749  -7.7940  -7.7504  -7.7040  -7.6996  -7.6575  -7.6341
    -7.6108  -7.5860  -7.5395  -7.5126  -7.4879  -7.4239  -7.4178  -7.3724
    -7.3429  -7.3274  -7.2612  -7.2455  -7.2354  -7.1607  -2.6174  -2.5837
    -2.4855  -2.4607  -2.2429  -2.1995  -2.1513  -2.0847  -2.0379  -2.0104
    -1.9543  -1.9530  -1.9401  -1.9238  -1.8702  -1.8423  -1.7394  -1.6502
    -1.6308  -1.6306  -1.6225  -1.5735  -1.4160  -1.3388  -1.3380  -1.3058
    -1.2859  -1.2838  -1.0134  -0.9207  -0.8888  -0.8478  -0.8425  -0.8402
    -0.8388  -0.8367  -0.8206  -0.7978  -0.7761  -0.7469  -0.6968  -0.6620
    -0.6494  -0.6290  -0.6017  -0.5772  -0.5754  -0.4666  -0.4537  -0.4298
    -0.4218  -0.3600  -0.3388  -0.3150  -0.2991  -0.2629  -0.2525  -0.2409
    -0.2205  -0.2035  -0.1776  -0.1609  -0.1185  -0.0892  -0.0839  -0.0354
     0.0634   0.0640   0.0982   0.1004   0.1050   0.1068   0.1485   0.1746
     0.2980   0.3278   0.3379   0.3550   0.3584   0.3692   0.3722   0.3741
     0.4249   0.4648   0.4774   0.4955   0.5228   0.5403   0.5581   0.5757
     0.6033   0.6398   0.6497   0.6658   0.6799   0.6854   0.7110   0.7717
     0.7736   0.8345   0.8406   0.8868   0.9418   0.9880   0.9979   1.0070
     1.0181   1.0821   1.1662   1.1715   1.2104   1.2258   1.2531   1.2701
     1.3205   1.3541   1.3617   1.4226   1.4540   1.4738   1.4785   1.4840
     1.4975   1.5355   1.6000   1.6161   1.6259   1.6541   1.6650   1.6759
     1.7106   1.7259   1.8243   1.8374   1.8723   1.9699   2.0197   2.0245
     2.0649   2.0699   2.0952   2.1206   2.1291   2.1879   2.2703   2.2952
     2.3106   2.3375   2.3468   2.3832   2.4557   2.4925   2.5780   2.6702
     2.6928   2.7823   2.7992   2.8176   2.9327   2.9435   5.7387   5.7485
     6.0245   6.2452   6.3077   6.3203   6.5214   6.7704   6.8962   7.2341
     7.2711   7.3354   7.5500   7.7906   7.8853   7.9493   7.9538   8.1845
     8.2496   8.2888   8.3133   8.4995   8.5968   8.6101   8.7264   8.7643
     8.8486   9.0297   9.1153   9.1459   9.1734   9.1995   9.2338   9.3014
     9.3543   9.3850

          k = 0.3750 0.2618 0.0000 ( 68830 PWs)   bands (ev):

   -38.5778 -37.9415 -36.1183 -35.5691 -22.6834 -22.6292 -22.6025 -22.5537
   -22.4665 -22.4012 -22.3725 -22.2944 -18.7877 -18.7793 -18.6106 -18.3768
   -18.2894 -18.0582 -17.2928 -17.2882 -17.1746 -16.9058 -16.8446 -16.6659
   -15.0405 -15.0330 -14.7809 -14.7623 -14.7170 -14.6741 -14.6351 -14.5851
   -14.5632 -14.5365 -14.4739 -14.4713 -14.4401 -14.4012 -14.2368 -14.0873
   -14.0212 -13.9955 -13.9808 -13.9260 -13.9120 -13.9101 -13.9049 -13.8957
   -13.8546 -13.8192 -13.7063 -13.5976 -13.5478 -13.4568  -7.9909  -7.9356
    -7.8885  -7.8835  -7.8823  -7.8541  -7.7995  -7.7977  -7.7578  -7.7160
    -7.7087  -7.6628  -7.5984  -7.5782  -7.5075  -7.5035  -7.4880  -7.4758
    -7.4361  -7.4072  -7.2552  -7.2264  -7.1820  -7.1543  -2.7079  -2.6690
    -2.5231  -2.5050  -2.3568  -2.3288  -2.2121  -2.1889  -2.0632  -2.0416
    -2.0312  -2.0133  -1.9770  -1.9413  -1.9308  -1.9083  -1.9051  -1.9025
    -1.8613  -1.8229  -1.7429  -1.7150  -1.7087  -1.6713  -1.5070  -1.4459
    -1.2951  -1.2835  -1.2739  -1.2713  -1.2699  -1.2340  -1.0964  -1.0467
    -1.0388  -0.9651  -0.9202  -0.9107  -0.8565  -0.8274  -0.7907  -0.7594
    -0.7572  -0.7080  -0.6854  -0.6502  -0.5977  -0.5955  -0.5475  -0.5049
    -0.5005  -0.4731  -0.4549  -0.4261  -0.3926  -0.3209  -0.2679  -0.2193
    -0.2013  -0.1350  -0.1311  -0.1189  -0.0405  -0.0241   0.0078   0.0184
     0.0560   0.0813   0.0935   0.1107   0.1205   0.1483   0.1524   0.1860
     0.2588   0.2697   0.2737   0.2880   0.3267   0.3484   0.4496   0.4783
     0.4871   0.5015   0.5025   0.5131   0.5287   0.5358   0.5473   0.5606
     0.6079   0.6262   0.6315   0.6593   0.6743   0.7094   0.7713   0.8059
     0.8560   0.9819   1.0250   1.0523   1.0616   1.0831   1.1240   1.1512
     1.1852   1.1912   1.2088   1.2468   1.2566   1.3306   1.3417   1.3648
     1.3741   1.3880   1.3933   1.4026   1.4187   1.4543   1.4650   1.4671
     1.4918   1.6066   1.6243   1.6355   1.6400   1.6472   1.6502   1.7179
     1.7547   1.7580   1.7853   1.7995   1.8247   1.8785   1.9043   1.9202
     1.9223   1.9626   2.0008   2.0164   2.1732   2.2707   2.4654   2.5129
     2.6296   2.7020   2.8087   2.8523   2.8912   2.9341   3.0198   3.0281
     3.0402   3.0680   3.1508   3.1940   3.1974   3.2973   6.0435   6.0490
     6.2038   6.3275   6.5124   6.5257   6.7031   6.8655   6.9554   7.4118
     7.5526   7.5632   7.6312   7.8568   8.0663   8.0948   8.1824   8.1884
     8.2732   8.4265   8.4995   8.6262   8.6587   8.7198   8.7916   8.8338
     8.8979   8.9564   9.0223   9.1125   9.1914   9.2655   9.2941   9.3385
     9.3654   9.4084

          k = 0.3750 0.5236 0.0000 ( 68769 PWs)   bands (ev):

   -38.5722 -37.9350 -36.1146 -35.5650 -22.6273 -22.5775 -22.5460 -22.5023
   -22.4116 -22.3464 -22.3228 -22.2448 -18.8194 -18.7665 -18.6802 -18.2981
   -18.2779 -18.2725 -17.3029 -17.2788 -17.2132 -16.8310 -16.8276 -16.8088
   -14.8423 -14.8097 -14.6695 -14.6522 -14.6273 -14.5970 -14.5240 -14.4777
   -14.4434 -14.4034 -14.4019 -14.3791 -14.3628 -14.3622 -14.2552 -14.1365
   -14.0730 -14.0523 -13.9969 -13.9535 -13.9099 -13.8983 -13.8735 -13.8623
   -13.8585 -13.8467 -13.6759 -13.6443 -13.6199 -13.5595  -8.2277  -8.1580
    -8.0902  -8.0205  -7.9745  -7.9384  -7.9103  -7.8712  -7.8539  -7.8203
    -7.7924  -7.7750  -7.7312  -7.7054  -7.6848  -7.6512  -7.6169  -7.5789
    -7.5340  -7.4650  -7.4375  -7.3748  -7.2670  -7.1968  -3.1155  -3.0522
    -2.8239  -2.7774  -2.7633  -2.7431  -2.5798  -2.5524  -2.3960  -2.3387
    -2.2740  -2.2047  -2.1900  -2.1686  -2.1313  -2.1281  -2.0954  -2.0747
    -2.0331  -2.0068  -1.9750  -1.9501  -1.9416  -1.9294  -1.9229  -1.8841
    -1.8324  -1.7867  -1.5584  -1.5482  -1.4466  -1.3936  -1.3594  -1.3322
    -1.2695  -1.2416  -1.1912  -1.1427  -1.0849  -1.0476  -0.9978  -0.9501
    -0.8774  -0.8636  -0.8396  -0.8003  -0.7339  -0.6833  -0.6716  -0.6478
    -0.5795  -0.5737  -0.5344  -0.5128  -0.4780  -0.4754  -0.4291  -0.4110
    -0.3732  -0.3452  -0.3399  -0.3282  -0.3085  -0.2976  -0.2927  -0.2384
    -0.2044  -0.1504  -0.1254  -0.1141  -0.0574  -0.0014   0.1285   0.2298
     0.2443   0.3152   0.3208   0.3572   0.4487   0.4630   0.5045   0.5538
     0.5993   0.6118   0.6703   0.6762   0.7328   0.7554   0.7664   0.8829
     0.9265   0.9665   1.0007   1.0053   1.0394   1.0525   1.0648   1.1154
     1.1325   1.1550   1.1787   1.1929   1.2074   1.2124   1.2205   1.2294
     1.2558   1.3154   1.3476   1.4349   1.4434   1.4857   1.5184   1.5321
     1.5652   1.5870   1.6093   1.6328   1.6620   1.6636   1.6709   1.6833
     1.6936   1.7131   1.7186   1.7267   1.7472   1.7744   1.7802   1.8086
     1.8207   1.8388   1.8543   1.8685   1.8808   1.9490   1.9635   2.0218
     2.0418   2.0532   2.1328   2.1392   2.2825   2.3983   2.4161   2.5725
     3.0181   3.0821   3.1442   3.1778   3.2152   3.2242   3.3084   3.3255
     3.6438   3.6711   3.7851   3.7949   3.8581   3.8943   6.3169   6.7078
     6.7375   6.7434   6.7787   6.7987   6.9020   7.0773   7.2696   7.3712
     7.8414   8.0538   8.2265   8.3035   8.3322   8.3847   8.4427   8.4898
     8.5384   8.5976   8.7636   8.8680   8.9187   9.0466   9.0663   9.1105
     9.1368   9.2321   9.2710   9.2936   9.3216   9.3513   9.4094   9.4804
     9.5170   9.5752

          k = 0.3750 0.7854 0.0000 ( 68808 PWs)   bands (ev):

   -38.5665 -37.9284 -36.1109 -35.5608 -22.5697 -22.5244 -22.4879 -22.4495
   -22.3552 -22.2902 -22.2719 -22.1941 -18.9582 -18.7536 -18.6269 -18.5072
   -18.2555 -18.1721 -17.3828 -17.2690 -17.1757 -16.9409 -16.8127 -16.7455
   -14.6698 -14.6367 -14.6194 -14.5654 -14.5399 -14.4937 -14.4525 -14.3947
   -14.3905 -14.3444 -14.2740 -14.2608 -14.2503 -14.2432 -14.2077 -14.1834
   -14.1631 -14.1160 -13.9805 -13.9762 -13.9667 -13.9157 -13.8236 -13.8206
   -13.8095 -13.8063 -13.7513 -13.6924 -13.6670 -13.6323  -8.4244  -8.3563
    -8.1652  -8.1520  -8.0992  -8.0842  -7.9994  -7.9304  -7.9140  -7.8931
    -7.8845  -7.8576  -7.8229  -7.8007  -7.7829  -7.7739  -7.7039  -7.6888
    -7.6850  -7.6166  -7.6030  -7.5226  -7.4081  -7.3098  -3.6010  -3.5143
    -3.2522  -3.2117  -3.1872  -3.1691  -3.0282  -2.9752  -2.9003  -2.8853
    -2.7013  -2.6969  -2.6761  -2.6735  -2.3372  -2.2616  -2.2384  -2.1693
    -2.1176  -2.0828  -2.0330  -1.9852  -1.9538  -1.9513  -1.9433  -1.9244
    -1.8896  -1.8432  -1.7674  -1.7177  -1.6333  -1.6157  -1.5488  -1.4817
    -1.4623  -1.4358  -1.3581  -1.3147  -1.3015  -1.2231  -1.1612  -1.1104
    -1.0307  -0.9751  -0.9621  -0.9416  -0.8421  -0.7843  -0.7669  -0.7442
    -0.7182  -0.6994  -0.6804  -0.6252  -0.6156  -0.5853  -0.5793  -0.5638
    -0.5449  -0.5418  -0.5307  -0.5256  -0.4962  -0.4874  -0.4319  -0.4118
    -0.3470  -0.3366  -0.1688  -0.1635  -0.1328  -0.0695   0.1706   0.2699
     0.3054   0.3690   0.4255   0.4704   0.5067   0.5256   0.5829   0.6320
     0.6434   0.7031   0.7279   0.7661   0.8775   0.9516   1.0035   1.0995
     1.1083   1.1311   1.1381   1.1507   1.1613   1.1836   1.2169   1.2519
     1.2870   1.2999   1.3702   1.4055   1.4128   1.4738   1.4904   1.5031
     1.5363   1.5483   1.5517   1.5735   1.5895   1.5949   1.6224   1.6393
     1.6898   1.7031   1.7538   1.7606   1.7992   1.8130   1.8411   1.8626
     1.8686   1.8909   1.9037   1.9262   1.9415   1.9672   1.9750   2.0006
     2.0224   2.0369   2.0509   2.0662   2.0986   2.1209   2.1558   2.1689
     2.1872   2.3280   2.4400   2.4577   2.4612   2.5435   2.5464   2.6469
     3.0006   3.0253   3.0676   3.0788   3.1845   3.1975   3.4105   3.4300
     4.0149   4.0406   4.1521   4.1732   4.2005   4.2349   6.1901   6.5371
     6.6726   6.7235   7.0557   7.1469   7.2126   7.2401   7.3676   7.7987
     7.9593   8.2702   8.3110   8.5210   8.7178   8.7748   8.8416   8.8979
     8.9531   9.0225   9.0755   9.1859   9.2277   9.3055   9.4209   9.4756
     9.5169   9.5615   9.5914   9.6314   9.7093   9.7379   9.7879   9.8285
     9.8433   9.9118

          k = 0.3750-1.0472 0.0000 ( 68774 PWs)   bands (ev):

   -38.5641 -37.9257 -36.1094 -35.5591 -22.5454 -22.5019 -22.4634 -22.4272
   -22.3314 -22.2664 -22.2504 -22.1727 -19.0172 -18.7483 -18.5992 -18.5878
   -18.2485 -18.1251 -17.4182 -17.2649 -17.1561 -16.9915 -16.8067 -16.7090
   -14.6888 -14.6466 -14.5439 -14.5347 -14.4618 -14.4368 -14.4233 -14.4027
   -14.3620 -14.3230 -14.2755 -14.2279 -14.1923 -14.1839 -14.1387 -14.1137
   -14.1013 -14.0795 -14.0514 -14.0209 -13.9963 -13.9261 -13.8317 -13.7980
   -13.7957 -13.7909 -13.7888 -13.7767 -13.6755 -13.6135  -8.4602  -8.3929
    -8.2154  -8.1573  -8.1372  -8.1321  -8.0902  -8.0665  -7.9340  -7.9159
    -7.8914  -7.8907  -7.8641  -7.8119  -7.8081  -7.7918  -7.7868  -7.7831
    -7.7397  -7.7150  -7.6158  -7.5345  -7.4859  -7.3701  -3.7984  -3.7039
    -3.4173  -3.4053  -3.3745  -3.3326  -3.2164  -3.1456  -3.0944  -3.0739
    -2.9350  -2.9306  -2.9080  -2.9061  -2.3420  -2.2684  -2.2304  -2.1612
    -2.1174  -2.1051  -2.0934  -2.0872  -2.0286  -1.9796  -1.9436  -1.9195
    -1.8094  -1.7650  -1.7594  -1.7556  -1.7351  -1.6673  -1.6073  -1.5975
    -1.5616  -1.5514  -1.4962  -1.4033  -1.3275  -1.2965  -1.2050  -1.1411
    -1.0857  -1.0230  -1.0089  -1.0028  -0.9365  -0.8884  -0.7988  -0.7821
    -0.7564  -0.7542  -0.7088  -0.6781  -0.6689  -0.6559  -0.6285  -0.6219
    -0.6126  -0.5973  -0.5899  -0.5807  -0.5694  -0.5445  -0.4735  -0.3842
    -0.3537  -0.3385  -0.1662  -0.1646  -0.1560  -0.0989   0.1865   0.2960
     0.3243   0.3937   0.4641   0.5081   0.5315   0.5480   0.5839   0.5962
     0.6038   0.7279   0.7387   0.8009   0.9810   1.0195   1.1018   1.1451
     1.1877   1.2141   1.2142   1.2422   1.2512   1.2683   1.2901   1.2967
     1.3155   1.3792   1.4010   1.4033   1.4318   1.4514   1.5410   1.5470
     1.5558   1.5683   1.5861   1.5907   1.6014   1.6163   1.6665   1.7135
     1.7384   1.7856   1.8163   1.8342   1.8542   1.8974   1.9172   1.9217
     1.9794   2.0016   2.0146   2.0178   2.0439   2.0519   2.0715   2.1042
[...]
    -0.7627  -0.7525  -0.7196  -0.6947  -0.6865  -0.6774  -0.6307  -0.5708
    -0.4898  -0.4635  -0.4291  -0.4140  -0.3691  -0.3613  -0.3166  -0.2374
    -0.1992  -0.1204  -0.1080  -0.0799  -0.0670  -0.0596  -0.0116   0.0403
     0.0529   0.0572   0.0943   0.1133   0.1289   0.1335   0.1560   0.2014
     0.2554   0.2636   0.2730   0.2822   0.3356   0.3473   0.4516   0.4889
     0.4920   0.5058   0.5113   0.5158   0.5513   0.5596   0.5672   0.5698
     0.5859   0.5908   0.6455   0.6568   0.7058   0.7094   0.7972   0.7986
     0.8568   1.0123   1.0364   1.0563   1.0794   1.0854   1.1002   1.1429
     1.1614   1.1776   1.1883   1.2056   1.2183   1.3314   1.3463   1.3915
     1.3940   1.4004   1.4205   1.4247   1.4345   1.4570   1.4722   1.5197
     1.5306   1.5588   1.5807   1.6080   1.6181   1.6242   1.6811   1.6909
     1.7005   1.7105   1.7492   1.7902   1.8346   1.8444   1.9020   1.9120
     1.9334   1.9644   2.0072   2.0285   2.2138   2.2723   2.4750   2.5266
     2.7283   2.7971   2.8436   2.8913   2.9095   2.9656   3.0143   3.0374
     3.0505   3.0546   3.1044   3.1387   3.2329   3.2460   6.2519   6.2534
     6.2705   6.2819   6.3160   6.3438   6.8093   6.8249   6.8942   7.2711
     7.6355   7.8277   7.8387   7.8887   7.9224   8.0569   8.1200   8.2518
     8.2532   8.3469   8.3924   8.6160   8.7270   8.7599   8.7812   8.8660
     8.9247   9.0107   9.0441   9.0498   9.1492   9.1661   9.2343   9.3299
     9.3411   9.3808

          k =-0.5000 0.5236 0.0000 ( 68746 PWs)   bands (ev):

   -38.5722 -37.9350 -36.1146 -35.5650 -22.6172 -22.5878 -22.5326 -22.5158
   -22.4072 -22.3424 -22.3277 -22.2487 -18.8194 -18.7649 -18.6800 -18.2980
   -18.2773 -18.2692 -17.3030 -17.2831 -17.2138 -16.8379 -16.8326 -16.8092
   -14.8009 -14.7543 -14.6802 -14.6663 -14.6230 -14.6164 -14.5186 -14.4756
   -14.4525 -14.4187 -14.4028 -14.3910 -14.3717 -14.3652 -14.2546 -14.1387
   -14.0742 -14.0647 -13.9923 -13.9369 -13.9149 -13.8909 -13.8735 -13.8660
   -13.8601 -13.8490 -13.6651 -13.6552 -13.6224 -13.5593  -8.1938  -8.1647
    -8.1228  -8.0964  -7.9397  -7.9376  -7.9146  -7.8705  -7.8651  -7.8628
    -7.8196  -7.7741  -7.7491  -7.6984  -7.6613  -7.5950  -7.5838  -7.5810
    -7.5270  -7.5149  -7.3736  -7.3117  -7.3031  -7.2143  -2.9909  -2.9348
    -2.9146  -2.8503  -2.6725  -2.6300  -2.6290  -2.6174  -2.3945  -2.3414
    -2.2375  -2.1972  -2.1724  -2.1647  -2.1288  -2.1135  -2.0874  -2.0613
    -2.0603  -2.0415  -2.0335  -2.0163  -1.9374  -1.9208  -1.9158  -1.9060
    -1.8884  -1.8668  -1.4414  -1.3888  -1.3696  -1.3589  -1.3515  -1.3297
    -1.2800  -1.2678  -1.2498  -1.1738  -1.1671  -1.1391  -1.0972  -1.0812
    -0.9012  -0.8687  -0.8675  -0.8231  -0.7053  -0.6811  -0.6751  -0.6315
    -0.5743  -0.5652  -0.5367  -0.5112  -0.4967  -0.4832  -0.4396  -0.4015
    -0.3754  -0.3272  -0.3212  -0.3202  -0.3108  -0.3095  -0.2573  -0.2454
    -0.1824  -0.1634  -0.1467  -0.1119  -0.1014  -0.0766   0.1693   0.2132
     0.2411   0.2891   0.3381   0.3415   0.4871   0.4991   0.5487   0.5675
     0.6009   0.6258   0.6906   0.6975   0.7407   0.7464   0.7530   0.8995
     0.9612   0.9783   0.9863   0.9980   1.0656   1.0816   1.0980   1.1110
     1.1191   1.1288   1.1849   1.1945   1.2020   1.2035   1.2079   1.2165
     1.2264   1.2947   1.3046   1.4270   1.4597   1.5091   1.5160   1.5288
     1.5666   1.5779   1.6142   1.6272   1.6555   1.6599   1.6814   1.6917
     1.6953   1.7110   1.7125   1.7236   1.7423   1.7657   1.7778   1.7930
     1.8015   1.8065   1.8906   1.8973   1.9088   1.9127   1.9311   2.0049
     2.0834   2.0902   2.0905   2.0992   2.3075   2.4082   2.4298   2.5963
     3.1820   3.2016   3.2123   3.2235   3.3619   3.3883   3.4146   3.4457
     3.5052   3.5231   3.5988   3.6037   3.8610   3.8824   6.3553   6.7198
     6.7456   6.7704   6.7980   6.8330   6.8863   7.0838   7.3356   7.3707
     7.7873   8.0159   8.1836   8.3285   8.4245   8.4287   8.4475   8.4764
     8.5647   8.5923   8.8204   8.9366   8.9424   9.0298   9.0495   9.1003
     9.1618   9.2341   9.2463   9.2946   9.3106   9.3679   9.3850   9.4547
     9.5237   9.5343

          k =-0.5000 0.7854 0.0000 ( 68798 PWs)   bands (ev):

   -38.5665 -37.9284 -36.1109 -35.5608 -22.5618 -22.5324 -22.4772 -22.4603
   -22.3517 -22.2869 -22.2758 -22.1971 -18.9582 -18.7521 -18.6268 -18.5072
   -18.2524 -18.1716 -17.3828 -17.2728 -17.1764 -16.9409 -16.8219 -16.7477
   -14.6280 -14.6031 -14.6027 -14.5854 -14.5804 -14.4711 -14.4463 -14.3797
   -14.3752 -14.3331 -14.2974 -14.2670 -14.2610 -14.2449 -14.2342 -14.1708
   -14.1695 -14.1517 -13.9803 -13.9763 -13.9415 -13.9371 -13.8193 -13.8170
   -13.8135 -13.8095 -13.7412 -13.7029 -13.6560 -13.6445  -8.3204  -8.2819
    -8.2496  -8.2171  -8.0862  -8.0122  -7.9962  -7.9391  -7.9174  -7.9028
    -7.8360  -7.8239  -7.8233  -7.8101  -7.8018  -7.7547  -7.7483  -7.7357
    -7.6760  -7.6541  -7.5533  -7.5150  -7.4880  -7.3742  -3.5034  -3.4155
    -3.3243  -3.2445  -3.1247  -3.0958  -3.0761  -3.0230  -2.9143  -2.8886
    -2.6891  -2.6882  -2.6853  -2.6851  -2.2576  -2.1980  -2.1772  -2.1381
    -2.1374  -2.1042  -2.0514  -2.0468  -1.9588  -1.9313  -1.9072  -1.8875
    -1.8650  -1.8584  -1.8130  -1.7777  -1.6768  -1.6555  -1.5579  -1.5315
    -1.5069  -1.4856  -1.3971  -1.3252  -1.3224  -1.2284  -1.2207  -1.1685
    -1.0112  -0.9874  -0.9862  -0.9457  -0.8280  -0.8081  -0.7405  -0.7135
    -0.7104  -0.7028  -0.6576  -0.6251  -0.6110  -0.6058  -0.5725  -0.5657
    -0.5265  -0.5217  -0.5181  -0.5128  -0.4828  -0.4784  -0.4332  -0.3824
    -0.3578  -0.3172  -0.2097  -0.1980  -0.1891  -0.1605   0.2310   0.2484
     0.3473   0.3554   0.4253   0.4269   0.5781   0.6068   0.6238   0.6698
     0.6759   0.7216   0.7592   0.8089   0.8590   0.9123   0.9964   1.0916
     1.1280   1.1409   1.1612   1.1677   1.1785   1.1931   1.2066   1.2266
     1.2378   1.2579   1.4148   1.4256   1.4416   1.4505   1.4853   1.4895
     1.5161   1.5265   1.5438   1.5673   1.6042   1.6100   1.6428   1.6813
     1.6871   1.7201   1.7358   1.7476   1.7487   1.8015   1.8208   1.8545
     1.8677   1.8806   1.8970   1.9177   1.9345   1.9457   1.9746   1.9981
     2.0147   2.0342   2.0505   2.0648   2.0931   2.0986   2.1229   2.1304
     2.2080   2.3339   2.4058   2.4960   2.4985   2.5062   2.5100   2.6486
     3.0485   3.0610   3.0734   3.0845   3.6053   3.6324   3.6464   3.6549
     3.7847   3.7981   3.8121   3.8319   4.1830   4.2310   6.2692   6.6127
     6.9057   6.9170   6.9638   6.9974   7.0366   7.2142   7.2774   7.7303
     7.9551   8.2785   8.2855   8.5235   8.7285   8.8305   8.8654   8.9057
     8.9191   8.9304   9.0768   9.1821   9.1901   9.4158   9.4401   9.4592
     9.5505   9.6686   9.6931   9.6994   9.7224   9.7940   9.8122   9.8716
     9.9049   9.9795

          k =-0.5000-1.0472 0.0000 ( 68772 PWs)   bands (ev):

   -38.5641 -37.9257 -36.1094 -35.5591 -22.5385 -22.5090 -22.4538 -22.4369
   -22.3283 -22.2635 -22.2540 -22.1754 -19.0172 -18.7467 -18.5991 -18.5877
   -18.2454 -18.1246 -17.4182 -17.2687 -17.1567 -16.9915 -16.8155 -16.7109
   -14.6484 -14.6067 -14.5863 -14.5574 -14.4768 -14.4224 -14.4082 -14.3616
   -14.3484 -14.3037 -14.2820 -14.2285 -14.2068 -14.1942 -14.1544 -14.1531
   -14.1121 -14.0807 -14.0388 -14.0121 -13.9943 -13.9523 -13.8175 -13.7950
   -13.7942 -13.7928 -13.7921 -13.7897 -13.6502 -13.6397  -8.3238  -8.2732
    -8.2525  -8.2117  -8.1089  -8.0243  -7.9999  -7.9987  -7.9753  -7.9280
    -7.9257  -7.9085  -7.8963  -7.8938  -7.8559  -7.7952  -7.7913  -7.7880
    -7.7798  -7.7494  -7.6272  -7.5873  -7.5009  -7.4559  -3.7049  -3.6080
    -3.4858  -3.4018  -3.3258  -3.2904  -3.2533  -3.1896  -3.1000  -3.0964
    -2.9219  -2.9213  -2.9190  -2.9182  -2.2636  -2.2080  -2.1532  -2.1411
    -2.1104  -2.0790  -2.0178  -2.0173  -2.0084  -1.9856  -1.9305  -1.9155
    -1.8627  -1.8370  -1.8273  -1.8223  -1.8129  -1.7785  -1.7051  -1.6770
    -1.6672  -1.6254  -1.4022  -1.3472  -1.3420  -1.2600  -1.2524  -1.1918
    -1.0591  -1.0365  -1.0351  -1.0069  -0.9279  -0.9164  -0.7934  -0.7917
    -0.7663  -0.7003  -0.6780  -0.6644  -0.6574  -0.6423  -0.6255  -0.6025
    -0.5995  -0.5953  -0.5832  -0.5800  -0.5385  -0.5020  -0.4152  -0.4065
    -0.3693  -0.3310  -0.2254  -0.2209  -0.2163  -0.1894   0.2516   0.2589
     0.3868   0.3944   0.4577   0.4610   0.6030   0.6380   0.6388   0.6862
     0.6926   0.7071   0.7539   0.8712   0.8859   1.0304   1.0636   1.1738
     1.1983   1.2103   1.2168   1.2448   1.2736   1.3100   1.3106   1.3407
     1.3487   1.3585   1.4177   1.4405   1.4499   1.4741   1.4832   1.5043
     1.5169   1.5615   1.5624   1.5879   1.5890   1.5945   1.6270   1.6601
     1.6824   1.7244   1.7621   1.8496   1.8867   1.9089   1.9109   1.9412
     1.9769   2.0003   2.0061   2.0257   2.0286   2.0676   2.0747   2.0781
     2.1617   2.1731   2.2042   2.2461   2.2587   2.2812   2.3276   2.3286
     2.3318   2.3434   2.3719   2.6627   2.6754   2.6772   2.6843   2.6872
     2.8462   2.8596   2.8603   2.8738   3.6174   3.6472   3.6966   3.7082
     3.7820   3.8065   3.8858   3.9085   4.2313   4.3358   6.1988   6.5394
     6.8593   6.8608   6.9122   6.9353   6.9880   7.1396   7.3362   7.7541
     8.1104   8.2520   8.4038   8.7501   8.9886   9.0256   9.0527   9.2164
     9.2579   9.2951   9.3163   9.4107   9.5310   9.5360   9.5758   9.5978
     9.6936   9.7629   9.8169   9.8244   9.8728   9.8892   9.9165   9.9545
     9.9655   9.9677

     the Fermi energy is     2.8554 ev

!    total energy              =   -3711.74737886 Ry
     Harris-Foulkes estimate   =   -3711.74737889 Ry
     estimated scf accuracy    <          8.8E-09 Ry

     The total energy is the sum of the following terms:

     one-electron contribution =  -64480.72807533 Ry
     hartree contribution      =   32548.61096265 Ry
     xc contribution           =   -1264.04063303 Ry
     ewald contribution        =   29484.42351394 Ry
     smearing contrib. (-TS)   =      -0.01314708 Ry

     convergence has been achieved in  33 iterations

     negative rho (up, down):  9.197E-02 0.000E+00

     Forces acting on atoms (cartesian axes, Ry/au):

     atom    1 type  4   force =    -0.00000551    0.00000000   -0.00010183
     atom    2 type  4   force =     0.00000551    0.00000000   -0.00010183
     atom    3 type  3   force =    -0.00002078    0.00000000   -0.00016566
     atom    4 type  3   force =     0.00002078    0.00000000   -0.00016566
     atom    5 type  4   force =    -0.00000057    0.00000000   -0.00005979
     atom    6 type  4   force =     0.00000057    0.00000000   -0.00005979
     atom    7 type  1   force =     0.00000000    0.00000000   -0.00006413
     atom    8 type  1   force =     0.00000000    0.00000000   -0.00006171
     atom    9 type  3   force =     0.00001198    0.00000000   -0.00003672
     atom   10 type  3   force =    -0.00001198    0.00000000   -0.00003672
     atom   11 type  4   force =     0.00000000    0.00000000   -0.00001186
     atom   12 type  4   force =    -0.00001318    0.00000000   -0.00005780
     atom   13 type  4   force =     0.00001318    0.00000000   -0.00005780
     atom   14 type  4   force =     0.00000000    0.00000000   -0.00004192
     atom   15 type  2   force =     0.00000000    0.00000000   -0.00007606
     atom   16 type  5   force =     0.00000000    0.00000000   -0.00008698
     atom   17 type  4   force =     0.00002326    0.00000000    0.00003133
     atom   18 type  4   force =    -0.00002326    0.00000000    0.00003133
     atom   19 type  4   force =     0.00000000    0.00000000    0.00002695
     atom   20 type  4   force =     0.00000000    0.00000000    0.00010776
     atom   21 type  3   force =    -0.00003776    0.00000000   -0.00006168
     atom   22 type  3   force =     0.00003776    0.00000000   -0.00006168
     atom   23 type  1   force =     0.00000000    0.00000000   -0.00019486
     atom   24 type  1   force =     0.00000000    0.00000000   -0.00025680
     atom   25 type  4   force =    -0.00001499    0.00000000    0.00060399
     atom   26 type  4   force =     0.00001499    0.00000000    0.00060399
     atom   27 type  4   force =     0.00020499    0.00000000    0.00078782
     atom   28 type  4   force =    -0.00020499    0.00000000    0.00078782
     atom   29 type  3   force =     0.00004960    0.00000000   -0.00117521
     atom   30 type  3   force =    -0.00004960    0.00000000   -0.00117521
     atom   31 type  4   force =     0.00018441    0.00000000    0.00124612
     atom   32 type  4   force =    -0.00018441    0.00000000    0.00124612
     atom   33 type  1   force =     0.00000000    0.00000000   -0.00455907
     atom   34 type  1   force =     0.00000000    0.00000000   -0.00317732
     atom   35 type  3   force =    -0.00160346    0.00000000    0.00129117
     atom   36 type  3   force =     0.00160346    0.00000000    0.00129117
     atom   37 type  4   force =     0.00000000    0.00000000    0.01135531
     atom   38 type  4   force =     0.00000000    0.00000000    0.02161977
     atom   39 type  4   force =     0.00469960    0.00000000    0.01839402
     atom   40 type  4   force =    -0.00469960    0.00000000    0.01839402
     atom   41 type  5   force =     0.00000000    0.00000000    0.03516569
     atom   42 type  2   force =     0.00000000    0.00000000    0.02316629
     atom   43 type  4   force =     0.00000000    0.00000000   -0.03096640
     atom   44 type  4   force =    -0.00269829    0.00000000   -0.02342169
     atom   45 type  4   force =     0.00269829    0.00000000   -0.02342169
     atom   46 type  4   force =     0.00000000    0.00000000   -0.01387602
     atom   47 type  3   force =    -0.00048972    0.00000000   -0.00561115
     atom   48 type  3   force =     0.00048972    0.00000000   -0.00561115
     atom   49 type  1   force =     0.00000000    0.00000000   -0.00978575
     atom   50 type  1   force =     0.00000000    0.00000000   -0.01267828
     atom   51 type  4   force =     0.00027217    0.00000000    0.00059243
     atom   52 type  4   force =    -0.00027217    0.00000000    0.00059243
     atom   53 type  3   force =    -0.00008627    0.00000000   -0.00082024
     atom   54 type  3   force =     0.00008627    0.00000000   -0.00082024
     atom   55 type  4   force =    -0.00001614    0.00000000    0.00076258
     atom   56 type  4   force =     0.00001614    0.00000000    0.00076258

     Total force =     0.075661     Total SCF correction =     0.000417


     Computing stress (Cartesian axis) and pressure


     negative rho (up, down):  9.197E-02 0.000E+00
          total   stress  (Ry/bohr**3)                   (kbar)     P=       -4.67
  -0.00001030   0.00000000   0.00000000           -1.51        0.00        0.00
   0.00000000  -0.00001095   0.00000000            0.00       -1.61        0.00
   0.00000000   0.00000000  -0.00007399            0.00        0.00      -10.88

 
     init_run     :     25.58s CPU     26.51s WALL (       1 calls)
     electrons    :   1752.01s CPU   1852.04s WALL (       1 calls)
     forces       :     10.60s CPU     11.27s WALL (       1 calls)
     stress       :    111.63s CPU    113.73s WALL (       1 calls)

     Called by init_run:
     wfcinit      :     21.10s CPU     21.43s WALL (       1 calls)
     potinit      :      0.95s CPU      0.97s WALL (       1 calls)
     hinit0       :      1.71s CPU      1.74s WALL (       1 calls)

     Called by electrons:
     c_bands      :   1473.65s CPU   1531.75s WALL (      33 calls)
     sum_band     :    210.50s CPU    234.05s WALL (      33 calls)
     v_of_rho     :      4.55s CPU      4.61s WALL (      34 calls)
     newd         :     31.24s CPU     49.48s WALL (      34 calls)
     mix_rho      :     32.53s CPU     32.83s WALL (      33 calls)

     Called by c_bands:
     init_us_2    :     10.33s CPU     10.41s WALL (    1725 calls)
     cegterg      :   1405.74s CPU   1444.90s WALL (     825 calls)

     Called by sum_band:
     sum_band:bec :      1.08s CPU      1.09s WALL (     825 calls)
     addusdens    :     31.63s CPU     53.05s WALL (      33 calls)

     Called by *egterg:
     h_psi        :    657.52s CPU    671.29s WALL (    4293 calls)
     s_psi        :     99.79s CPU    100.40s WALL (    4293 calls)
     g_psi        :      1.61s CPU      1.63s WALL (    3443 calls)
     cdiaghg      :    352.82s CPU    354.30s WALL (    4268 calls)

     Called by h_psi:
     h_psi:calbec :    104.29s CPU    104.77s WALL (    4293 calls)
     vloc_psi     :    449.80s CPU    456.28s WALL (    4293 calls)
     add_vuspsi   :    100.30s CPU    100.84s WALL (    4293 calls)

     General routines
     calbec       :    159.32s CPU    160.01s WALL (    5243 calls)
     fft          :      4.70s CPU      4.73s WALL (     465 calls)
     ffts         :     17.22s CPU     17.41s WALL (   17869 calls)
     fftw         :    515.09s CPU    522.32s WALL ( 1184410 calls)
     interpolate  :      0.36s CPU      0.36s WALL (      34 calls)
 
     Parallel routines
     fft_scatt_xy :     56.54s CPU     57.32s WALL ( 1202744 calls)
     fft_scatt_yz :    346.63s CPU    351.58s WALL ( 1202744 calls)
 
     PWSCF        :  31m41.09s CPU  33m25.25s WALL

 
   This run was terminated on:   0:28:44  28May2021            

=------------------------------------------------------------------------------=
   JOB DONE.
=------------------------------------------------------------------------------=
[1622176124.833718] [holy7c18106:249818:0]          mpool.c:43   UCX  WARN  object 0x2c76400 was not returned to mpool ucp_requests
[1622176124.841655] [holy7c18109:11469:0]          mpool.c:43   UCX  WARN  object 0x2d2bb00 was not returned to mpool ucp_requests
[1622176124.841374] [holy7c18109:11470:0]          mpool.c:43   UCX  WARN  object 0x4756b40 was not returned to mpool ucp_requests
[1622176124.842049] [holy7c18103:123313:0]          mpool.c:43   UCX  WARN  object 0x2976a00 was not returned to mpool ucp_requests
[1622176124.844345] [holy7c12108:182921:0]          mpool.c:43   UCX  WARN  object 0x2938bc0 was not returned to mpool ucp_requests
[1622176124.844370] [holy7c18108:160083:0]          mpool.c:43   UCX  WARN  object 0x3847480 was not returned to mpool ucp_requests
[1622176124.844393] [holy7c18108:160083:0]          mpool.c:43   UCX  WARN  object 0x3847b80 was not returned to mpool ucp_requests
[1622176124.841376] [holy7c12111:62863:0]          mpool.c:43   UCX  WARN  object 0x46f04c0 was not returned to mpool ucp_requests
[1622176124.841402] [holy7c12111:62863:0]          mpool.c:43   UCX  WARN  object 0x46f0bc0 was not returned to mpool ucp_requests
[1622176124.870785] [holy7c06209:48155:0]          mpool.c:43   UCX  WARN  object 0x292a0c0 was not returned to mpool ucp_requests
[1622176124.870819] [holy7c06209:48155:0]          mpool.c:43   UCX  WARN  object 0x292a440 was not returned to mpool ucp_requests
[1622176124.864357] [holy7c06209:48160:0]          mpool.c:43   UCX  WARN  object 0x443ad00 was not returned to mpool ucp_requests
[1622176124.864384] [holy7c06209:48160:0]          mpool.c:43   UCX  WARN  object 0x443b400 was not returned to mpool ucp_requests
[1622176124.862639] [holy7c06209:48161:0]          mpool.c:43   UCX  WARN  object 0x35463c0 was not returned to mpool ucp_requests
[1622176124.868885] [holy7c06209:48165:0]          mpool.c:43   UCX  WARN  object 0x2f5fac0 was not returned to mpool ucp_requests
[1622176124.866141] [holy7c06209:48162:0]          mpool.c:43   UCX  WARN  object 0x418ef00 was not returned to mpool ucp_requests
[1622176124.866169] [holy7c06209:48162:0]          mpool.c:43   UCX  WARN  object 0x418f280 was not returned to mpool ucp_requests
[1622176124.870803] [holy7c06209:48157:0]          mpool.c:43   UCX  WARN  object 0x4567cc0 was not returned to mpool ucp_requests
[1622176124.870830] [holy7c06209:48157:0]          mpool.c:43   UCX  WARN  object 0x4568040 was not returned to mpool ucp_requests
[1622176124.893435] [holy7c06209:48156:0]          mpool.c:43   UCX  WARN  object 0x342c1c0 was not returned to mpool ucp_requests
