
     Program PWSCF v.6.5 starts on 28May2021 at 10: 5: 1 

     This program is part of the open-source Quantum ESPRESSO suite
     for quantum simulation of materials; please cite
         "P. Giannozzi et al., J. Phys.:Condens. Matter 21 395502 (2009);
         "P. Giannozzi et al., J. Phys.:Condens. Matter 29 465901 (2017);
          URL http://www.quantum-espresso.org", 
     in publications or presentations arising from this work. More details at
     http://www.quantum-espresso.org/quote

     Parallel version (MPI), running on    32 processors

     MPI processes distributed on     4 nodes
     R & G space division:  proc/nbgrp/npool/nimage =      32
     Reading input from YCBCO50_212_Y_cleave_2.0_sep.pwi
Warning: card &IONS ignored
Warning: card     ION_DYNAMICS = 'BFGS' ignored
Warning: card / ignored
Warning: card &CELL ignored
Warning: card     CELL_DYNAMICS = 'BFGS' ignored
Warning: card     PRESS_CONV_THR = 5 ignored
Warning: card / ignored

     Current dimensions of program PWSCF are:
     Max number of different atomic species (ntypx) = 10
     Max number of k-points (npk) =  40000
     Max angular momentum in pseudopotentials (lmaxx) =  3

     Subspace diagonalization in iterative solution of the eigenvalue problem:
     one sub-group per band group will be used
     scalapack distributed-memory algorithm (size of sub-group:  5*  5 procs)

     Message from routine setup:
     using ibrav=0 with symmetry is DISCOURAGED, use correct ibrav instead
 
     Parallelization info
     --------------------
     sticks:   dense  smooth     PW     G-vecs:    dense   smooth      PW
     Min         188      62     17                92900    17870    2665
     Max         189      63     18                92930    17915    2706
     Sum        6019    2003    565              2973325   572559   86089
 


     bravais-lattice index     =            0
     lattice parameter (alat)  =      14.8133  a.u.
     unit-cell volume          =    9113.2300 (a.u.)^3
     number of atoms/cell      =           56
     number of atomic types    =            5
     number of electrons       =       456.00
     number of Kohn-Sham states=          274
     kinetic-energy cutoff     =      60.0000  Ry
     charge density cutoff     =     720.0000  Ry
     convergence threshold     =      1.0E-08
     mixing beta               =       0.5000
     number of iterations used =           10  local-TF  mixing
     Exchange-correlation= SLA PW PBE PBE
                           (   1   4   3   4   0   0   0)

     celldm(1)=  14.813271  celldm(2)=   0.000000  celldm(3)=   0.000000
     celldm(4)=   0.000000  celldm(5)=   0.000000  celldm(6)=   0.000000

     crystal axes: (cart. coord. in units of alat)
               a(1) = (   1.000000   0.000000   0.000000 )  
               a(2) = (   0.000000   0.477453   0.000000 )  
               a(3) = (   0.000000   0.000000   5.872041 )  

     reciprocal axes: (cart. coord. in units 2 pi/alat)
               b(1) = (  1.000000  0.000000  0.000000 )  
               b(2) = (  0.000000  2.094448  0.000000 )  
               b(3) = (  0.000000  0.000000  0.170299 )  


     PseudoPot. # 1 for Ba read from file:
     ./pseudo/Ba.pbe-nsp-van.UPF
     MD5 check sum: 2b9c31dd849566dd297d80989662b7a0
     Pseudo is Ultrasoft + core correction, Zval = 10.0
     Generated by new atomic code, or converted to UPF format
     Using radial grid of  907 points,  6 beta functions with: 
                l(1) =   0
                l(2) =   0
                l(3) =   1
                l(4) =   1
                l(5) =   2
                l(6) =   2
     Q(r) pseudized with  6 coefficients,  rinner =    1.200   1.200   1.200
                                                       1.200   1.200

     PseudoPot. # 2 for Ca read from file:
     ./pseudo/Ca.pbe-nsp-van.UPF
     MD5 check sum: 6471098428ff4fa451746d08035ff179
     Pseudo is Ultrasoft + core correction, Zval = 10.0
     Generated by new atomic code, or converted to UPF format
     Using radial grid of  845 points,  6 beta functions with: 
                l(1) =   0
                l(2) =   0
                l(3) =   1
                l(4) =   1
                l(5) =   2
                l(6) =   2
     Q(r) pseudized with  6 coefficients,  rinner =    1.200   1.200   1.200
                                                       1.200   1.200

     PseudoPot. # 3 for Cu read from file:
     ./pseudo/Cu.pbe-n-van_ak.UPF
     MD5 check sum: 34e3282627ffb533726feb647e090d62
     Pseudo is Ultrasoft + core correction, Zval = 11.0
     Generated by new atomic code, or converted to UPF format
     Using radial grid of  867 points,  6 beta functions with: 
                l(1) =   0
                l(2) =   0
                l(3) =   1
                l(4) =   1
                l(5) =   2
                l(6) =   2
     Q(r) pseudized with  8 coefficients,  rinner =    1.400   1.400   1.400
                                                       1.400   1.400

     PseudoPot. # 4 for O  read from file:
     ./pseudo/O.pbe-van_ak.UPF
     MD5 check sum: 783ce7fe4c79b6a4916957118fed0856
     Pseudo is Ultrasoft, Zval =  6.0
     Generated by new atomic code, or converted to UPF format
     Using radial grid of  737 points,  4 beta functions with: 
                l(1) =   0
                l(2) =   0
                l(3) =   1
                l(4) =   1
     Q(r) pseudized with  8 coefficients,  rinner =    0.800   0.800   0.800


     PseudoPot. # 5 for Y  read from file:
     ./pseudo/Y.pbe-nsp-van.UPF
     MD5 check sum: 4412fed3ab108fed87a1b7d6a69a4a38
     Pseudo is Ultrasoft + core correction, Zval = 11.0
     Generated by new atomic code, or converted to UPF format
     Using radial grid of  885 points,  6 beta functions with: 
                l(1) =   0
                l(2) =   0
                l(3) =   1
                l(4) =   1
                l(5) =   2
                l(6) =   2
     Q(r) pseudized with  6 coefficients,  rinner =    1.200   1.200   1.200
                                                       1.200   1.200

     atomic species   valence    mass     pseudopotential
        Ba            10.00   137.32700     Ba( 1.00)
        Ca            10.00    40.07800     Ca( 1.00)
        Cu            11.00    63.54600     Cu( 1.00)
        O              6.00    15.99900     O ( 1.00)
        Y             11.00    88.90584     Y ( 1.00)

      4 Sym. Ops. (no inversion) found ( 2 have fractional translation)



   Cartesian axes

     site n.     atom                  positions (alat units)
         1           O   tau(   1) = (  -0.0008343   0.2387265  -0.0222443  )
         2           O   tau(   2) = (   0.5008340   0.2387265  -0.0222443  )
         3           Cu  tau(   3) = (   0.5017257   0.0000000   0.0109608  )
         4           Cu  tau(   4) = (  -0.0017260   0.0000000   0.0109608  )
         5           O   tau(   5) = (  -0.0028933   0.0000000   0.2506504  )
         6           O   tau(   6) = (   0.5028929   0.0000000   0.2506504  )
         7           Ba  tau(   7) = (   0.7499995   0.2387265   0.2749435  )
         8           Ba  tau(   8) = (   0.2499998   0.2387265   0.2755214  )
         9           Cu  tau(   9) = (   0.4980963   0.0000000   0.5208446  )
        10           Cu  tau(  10) = (   0.0019033   0.0000000   0.5208446  )
        11           O   tau(  11) = (   0.2499998   0.0000000   0.5341884  )
        12           O   tau(  12) = (   0.5083351   0.2387265   0.5569851  )
        13           O   tau(  13) = (  -0.0083354   0.2387265   0.5569851  )
        14           O   tau(  14) = (   0.7499995   0.0000000   0.5573831  )
        15           Ca  tau(  15) = (   0.2499998   0.2387265   0.7436937  )
        16           Y   tau(  16) = (   0.7499995   0.2387265   0.7469544  )
        17           O   tau(  17) = (  -0.0063798   0.2387265   0.9248530  )
        18           O   tau(  18) = (   0.5063794   0.2387265   0.9248530  )
        19           O   tau(  19) = (   0.7499995   0.0000000   0.9338544  )
        20           O   tau(  20) = (   0.2499998   0.0000000   0.9461329  )
        21           Cu  tau(  21) = (   0.0015717   0.0000000   0.9686860  )
        22           Cu  tau(  22) = (   0.4984280   0.0000000   0.9686860  )
        23           Ba  tau(  23) = (   0.2499998   0.2387265   1.2085224  )
        24           Ba  tau(  24) = (   0.7499995   0.2387265   1.2233294  )
        25           O   tau(  25) = (   0.0063772   0.0000000   1.2547537  )
        26           O   tau(  26) = (   0.4936224   0.0000000   1.2547537  )
        27           O   tau(  27) = (   0.5384045   0.2387265   1.4952521  )
        28           O   tau(  28) = (  -0.0384049   0.2387265   1.4952521  )
        29           Cu  tau(  29) = (   0.5006120   0.0000000   1.4952546  )
        30           Cu  tau(  30) = (  -0.0006123   0.0000000   1.4952546  )
        31           O   tau(  31) = (   0.4936212   0.0000000   1.7357531  )
        32           O   tau(  32) = (   0.0063785   0.0000000   1.7357531  )
        33           Ba  tau(  33) = (   0.7499995   0.2387265   1.7671824  )
        34           Ba  tau(  34) = (   0.2499998   0.2387265   1.7819920  )
        35           Cu  tau(  35) = (   0.4984280   0.0000000   2.0218232  )
        36           Cu  tau(  36) = (   0.0015717   0.0000000   2.0218232  )
        37           O   tau(  37) = (   0.2499998   0.0000000   2.0443814  )
        38           O   tau(  38) = (   0.7499995   0.0000000   2.0566511  )
        39           O   tau(  39) = (   0.5063781   0.2387265   2.0656562  )
        40           O   tau(  40) = (  -0.0063785   0.2387265   2.0656562  )
        41           Y   tau(  41) = (   0.7499995   0.2387265   2.2435498  )
        42           Ca  tau(  42) = (   0.2499998   0.2387265   2.2468194  )
        43           O   tau(  43) = (   0.7499995   0.0000000   2.6882568  )
        44           O   tau(  44) = (  -0.0083354   0.2387265   2.6886587  )
        45           O   tau(  45) = (   0.5083351   0.2387265   2.6886587  )
        46           O   tau(  46) = (   0.2499998   0.0000000   2.7114567  )
        47           Cu  tau(  47) = (   0.0019059   0.0000000   2.7247903  )
        48           Cu  tau(  48) = (   0.4980938   0.0000000   2.7247903  )
        49           Ba  tau(  49) = (   0.2499998   0.2387265   2.9701300  )
        50           Ba  tau(  50) = (   0.7499995   0.2387265   2.9706722  )
        51           O   tau(  51) = (  -0.0028895   0.0000000   2.9949793  )
        52           O   tau(  52) = (   0.5028891   0.0000000   2.9949793  )
        53           Cu  tau(  53) = (   0.5017844   0.0000000   3.2346638  )
        54           Cu  tau(  54) = (  -0.0017847   0.0000000   3.2346638  )
        55           O   tau(  55) = (   0.5008990   0.2387265   3.2678703  )
        56           O   tau(  56) = (  -0.0008994   0.2387265   3.2678703  )

     number of k points=    25  Gaussian smearing, width (Ry)=  0.0100
                       cart. coord. in units 2pi/alat
        k(    1) = (   0.0000000   0.0000000   0.0000000), wk =   0.0312500
        k(    2) = (   0.0000000   0.2618060   0.0000000), wk =   0.0625000
        k(    3) = (   0.0000000   0.5236121   0.0000000), wk =   0.0625000
        k(    4) = (   0.0000000   0.7854181   0.0000000), wk =   0.0625000
        k(    5) = (   0.0000000  -1.0472241   0.0000000), wk =   0.0312500
        k(    6) = (   0.1250000   0.0000000   0.0000000), wk =   0.0625000
        k(    7) = (   0.1250000   0.2618060   0.0000000), wk =   0.1250000
        k(    8) = (   0.1250000   0.5236121   0.0000000), wk =   0.1250000
        k(    9) = (   0.1250000   0.7854181   0.0000000), wk =   0.1250000
        k(   10) = (   0.1250000  -1.0472241   0.0000000), wk =   0.0625000
        k(   11) = (   0.2500000   0.0000000   0.0000000), wk =   0.0625000
        k(   12) = (   0.2500000   0.2618060   0.0000000), wk =   0.1250000
        k(   13) = (   0.2500000   0.5236121   0.0000000), wk =   0.1250000
        k(   14) = (   0.2500000   0.7854181   0.0000000), wk =   0.1250000
        k(   15) = (   0.2500000  -1.0472241   0.0000000), wk =   0.0625000
        k(   16) = (   0.3750000   0.0000000   0.0000000), wk =   0.0625000
        k(   17) = (   0.3750000   0.2618060   0.0000000), wk =   0.1250000
        k(   18) = (   0.3750000   0.5236121   0.0000000), wk =   0.1250000
        k(   19) = (   0.3750000   0.7854181   0.0000000), wk =   0.1250000
        k(   20) = (   0.3750000  -1.0472241   0.0000000), wk =   0.0625000
        k(   21) = (  -0.5000000   0.0000000   0.0000000), wk =   0.0312500
        k(   22) = (  -0.5000000   0.2618060   0.0000000), wk =   0.0625000
        k(   23) = (  -0.5000000   0.5236121   0.0000000), wk =   0.0625000
        k(   24) = (  -0.5000000   0.7854181   0.0000000), wk =   0.0625000
        k(   25) = (  -0.5000000  -1.0472241   0.0000000), wk =   0.0312500

     Dense  grid:  2973325 G-vectors     FFT dimensions: ( 128,  64, 750)

     Smooth grid:   572559 G-vectors     FFT dimensions: (  80,  36, 432)

     Estimated max dynamical RAM per process >     860.93 MB

     Estimated total dynamical RAM >      26.90 GB

     Initial potential from superposition of free atoms

     starting charge  455.69457, renormalised to  456.00000

     negative rho (up, down):  9.361E-02 0.000E+00
     Starting wfcs are  396 randomized atomic wfcs

     total cpu time spent up to now is       27.0 secs

     Self-consistent Calculation

     iteration #  1     ecut=    60.00 Ry     beta= 0.50
     Davidson diagonalization with overlap
     ethr =  1.00E-02,  avg # of iterations =  2.0

     negative rho (up, down):  8.586E-02 0.000E+00

     total cpu time spent up to now is       74.9 secs

     total energy              =   -3708.32442317 Ry
     Harris-Foulkes estimate   =   -3716.32984350 Ry
     estimated scf accuracy    <      30.94087947 Ry

     iteration #  2     ecut=    60.00 Ry     beta= 0.50
     Davidson diagonalization with overlap
     ethr =  6.79E-03,  avg # of iterations =  2.0

     negative rho (up, down):  8.522E-02 0.000E+00

     total cpu time spent up to now is      122.1 secs

     total energy              =   -3711.02345747 Ry
     Harris-Foulkes estimate   =   -3712.18457823 Ry
     estimated scf accuracy    <      13.67404868 Ry

     iteration #  3     ecut=    60.00 Ry     beta= 0.50
     Davidson diagonalization with overlap
     ethr =  3.00E-03,  avg # of iterations =  1.0

     negative rho (up, down):  8.531E-02 0.000E+00

     total cpu time spent up to now is      165.2 secs

     total energy              =   -3711.33633007 Ry
     Harris-Foulkes estimate   =   -3711.77331505 Ry
     estimated scf accuracy    <      10.89137683 Ry

     iteration #  4     ecut=    60.00 Ry     beta= 0.50
     Davidson diagonalization with overlap
     ethr =  2.39E-03,  avg # of iterations =  1.0

     negative rho (up, down):  8.596E-02 0.000E+00

     total cpu time spent up to now is      208.1 secs

     total energy              =   -3711.26004001 Ry
     Harris-Foulkes estimate   =   -3711.57021313 Ry
     estimated scf accuracy    <       3.74351427 Ry

     iteration #  5     ecut=    60.00 Ry     beta= 0.50
     Davidson diagonalization with overlap
     ethr =  8.21E-04,  avg # of iterations =  3.2

     negative rho (up, down):  8.695E-02 0.000E+00

     total cpu time spent up to now is      256.9 secs

     total energy              =   -3711.25295089 Ry
     Harris-Foulkes estimate   =   -3711.40463375 Ry
     estimated scf accuracy    <       3.05601950 Ry

     iteration #  6     ecut=    60.00 Ry     beta= 0.50
     Davidson diagonalization with overlap
     ethr =  6.70E-04,  avg # of iterations =  4.6

     negative rho (up, down):  8.851E-02 0.000E+00

     total cpu time spent up to now is      310.7 secs

     total energy              =   -3711.20845583 Ry
     Harris-Foulkes estimate   =   -3711.31484766 Ry
     estimated scf accuracy    <       2.24352274 Ry

     iteration #  7     ecut=    60.00 Ry     beta= 0.50
     Davidson diagonalization with overlap
     ethr =  4.92E-04,  avg # of iterations =  6.4

     negative rho (up, down):  8.934E-02 0.000E+00

     total cpu time spent up to now is      372.4 secs

     total energy              =   -3711.20702493 Ry
     Harris-Foulkes estimate   =   -3711.26702562 Ry
     estimated scf accuracy    <       1.14621137 Ry

     iteration #  8     ecut=    60.00 Ry     beta= 0.50
     Davidson diagonalization with overlap
     ethr =  2.51E-04,  avg # of iterations =  3.8

     negative rho (up, down):  8.975E-02 0.000E+00

     total cpu time spent up to now is      423.7 secs

     total energy              =   -3711.22318586 Ry
     Harris-Foulkes estimate   =   -3711.24693886 Ry
     estimated scf accuracy    <       0.42621722 Ry

     iteration #  9     ecut=    60.00 Ry     beta= 0.50
     Davidson diagonalization with overlap
     ethr =  9.35E-05,  avg # of iterations =  5.5

     negative rho (up, down):  8.953E-02 0.000E+00

     total cpu time spent up to now is      479.9 secs

     total energy              =   -3711.21825982 Ry
     Harris-Foulkes estimate   =   -3711.23149818 Ry
     estimated scf accuracy    <       0.11833011 Ry

     iteration # 10     ecut=    60.00 Ry     beta= 0.50
     Davidson diagonalization with overlap
     c_bands:  1 eigenvalues not converged
     c_bands:  3 eigenvalues not converged
     c_bands:  1 eigenvalues not converged
     ethr =  2.59E-05,  avg # of iterations =  9.2

     negative rho (up, down):  8.940E-02 0.000E+00

     total cpu time spent up to now is      546.7 secs

     total energy              =   -3711.21517619 Ry
     Harris-Foulkes estimate   =   -3711.22332725 Ry
     estimated scf accuracy    <       0.17037956 Ry

     iteration # 11     ecut=    60.00 Ry     beta= 0.50
     Davidson diagonalization with overlap
     ethr =  2.59E-05,  avg # of iterations =  6.4

     negative rho (up, down):  8.908E-02 0.000E+00

     total cpu time spent up to now is      604.6 secs

     total energy              =   -3711.21616835 Ry
     Harris-Foulkes estimate   =   -3711.21856571 Ry
     estimated scf accuracy    <       0.09694155 Ry

     iteration # 12     ecut=    60.00 Ry     beta= 0.50
     Davidson diagonalization with overlap
     ethr =  2.13E-05,  avg # of iterations =  1.0

     negative rho (up, down):  8.874E-02 0.000E+00

     total cpu time spent up to now is      647.3 secs

     total energy              =   -3711.21521672 Ry
     Harris-Foulkes estimate   =   -3711.21744314 Ry
     estimated scf accuracy    <       0.08584058 Ry

     iteration # 13     ecut=    60.00 Ry     beta= 0.50
     Davidson diagonalization with overlap
     ethr =  1.88E-05,  avg # of iterations =  1.0

     negative rho (up, down):  8.862E-02 0.000E+00

     total cpu time spent up to now is      690.2 secs

     total energy              =   -3711.21432441 Ry
     Harris-Foulkes estimate   =   -3711.21576845 Ry
     estimated scf accuracy    <       0.06931232 Ry

     iteration # 14     ecut=    60.00 Ry     beta= 0.50
     Davidson diagonalization with overlap
     ethr =  1.52E-05,  avg # of iterations =  3.7

     negative rho (up, down):  8.837E-02 0.000E+00

     total cpu time spent up to now is      740.5 secs

     total energy              =   -3711.21258868 Ry
     Harris-Foulkes estimate   =   -3711.21476053 Ry
     estimated scf accuracy    <       0.06459149 Ry

     iteration # 15     ecut=    60.00 Ry     beta= 0.50
     Davidson diagonalization with overlap
     ethr =  1.42E-05,  avg # of iterations =  2.2

     negative rho (up, down):  9.075E-02 0.000E+00

     total cpu time spent up to now is      786.5 secs

     total energy              =   -3711.21109342 Ry
     Harris-Foulkes estimate   =   -3711.21367719 Ry
     estimated scf accuracy    <       0.06483663 Ry

     iteration # 16     ecut=    60.00 Ry     beta= 0.50
     Davidson diagonalization with overlap
     ethr =  1.42E-05,  avg # of iterations =  4.1

     negative rho (up, down):  9.644E-02 0.000E+00

     total cpu time spent up to now is      837.8 secs

     total energy              =   -3711.20946114 Ry
     Harris-Foulkes estimate   =   -3711.21139339 Ry
     estimated scf accuracy    <       0.03027788 Ry

     iteration # 17     ecut=    60.00 Ry     beta= 0.50
     Davidson diagonalization with overlap
     c_bands:  2 eigenvalues not converged
     c_bands:  1 eigenvalues not converged
     c_bands:  1 eigenvalues not converged
     ethr =  6.64E-06,  avg # of iterations = 12.4

     negative rho (up, down):  9.913E-02 0.000E+00

     total cpu time spent up to now is      915.6 secs

     total energy              =   -3711.20817155 Ry
     Harris-Foulkes estimate   =   -3711.20969956 Ry
     estimated scf accuracy    <       0.01527041 Ry

     iteration # 18     ecut=    60.00 Ry     beta= 0.50
     Davidson diagonalization with overlap
     c_bands:  1 eigenvalues not converged
     c_bands:  1 eigenvalues not converged
     c_bands:  3 eigenvalues not converged
     c_bands:  1 eigenvalues not converged
     ethr =  3.35E-06,  avg # of iterations = 11.5

     negative rho (up, down):  9.683E-02 0.000E+00

     total cpu time spent up to now is      989.8 secs

     total energy              =   -3711.20801404 Ry
     Harris-Foulkes estimate   =   -3711.20845130 Ry
     estimated scf accuracy    <       0.01013755 Ry

     iteration # 19     ecut=    60.00 Ry     beta= 0.50
     Davidson diagonalization with overlap
     c_bands:  1 eigenvalues not converged
     c_bands:  3 eigenvalues not converged
     ethr =  2.22E-06,  avg # of iterations =  7.9

     negative rho (up, down):  9.715E-02 0.000E+00

     total cpu time spent up to now is     1051.7 secs

     total energy              =   -3711.20779314 Ry
     Harris-Foulkes estimate   =   -3711.20809695 Ry
     estimated scf accuracy    <       0.00484998 Ry

     iteration # 20     ecut=    60.00 Ry     beta= 0.50
     Davidson diagonalization with overlap
     ethr =  1.06E-06,  avg # of iterations =  8.9

     negative rho (up, down):  9.349E-02 0.000E+00

     total cpu time spent up to now is     1118.6 secs

     total energy              =   -3711.20764558 Ry
     Harris-Foulkes estimate   =   -3711.20785449 Ry
     estimated scf accuracy    <       0.00166434 Ry

     iteration # 21     ecut=    60.00 Ry     beta= 0.50
     Davidson diagonalization with overlap
     ethr =  3.65E-07,  avg # of iterations =  2.6

     negative rho (up, down):  9.069E-02 0.000E+00

     total cpu time spent up to now is     1166.6 secs

     total energy              =   -3711.20767837 Ry
     Harris-Foulkes estimate   =   -3711.20772560 Ry
     estimated scf accuracy    <       0.00219765 Ry

     iteration # 22     ecut=    60.00 Ry     beta= 0.50
     Davidson diagonalization with overlap
     c_bands:  1 eigenvalues not converged
     c_bands:  1 eigenvalues not converged
     c_bands:  1 eigenvalues not converged
     ethr =  3.65E-07,  avg # of iterations =  6.4

     negative rho (up, down):  9.225E-02 0.000E+00

     total cpu time spent up to now is     1224.4 secs

     total energy              =   -3711.20771104 Ry
     Harris-Foulkes estimate   =   -3711.20772200 Ry
     estimated scf accuracy    <       0.00070036 Ry

     iteration # 23     ecut=    60.00 Ry     beta= 0.50
     Davidson diagonalization with overlap
     c_bands:  1 eigenvalues not converged
     ethr =  1.54E-07,  avg # of iterations =  4.6

     negative rho (up, down):  9.157E-02 0.000E+00

     total cpu time spent up to now is     1278.5 secs

     total energy              =   -3711.20770323 Ry
     Harris-Foulkes estimate   =   -3711.20772508 Ry
     estimated scf accuracy    <       0.00028550 Ry

     iteration # 24     ecut=    60.00 Ry     beta= 0.50
     Davidson diagonalization with overlap
     ethr =  6.26E-08,  avg # of iterations =  1.8

     negative rho (up, down):  9.281E-02 0.000E+00

     total cpu time spent up to now is     1325.2 secs

     total energy              =   -3711.20771555 Ry
     Harris-Foulkes estimate   =   -3711.20771168 Ry
     estimated scf accuracy    <       0.00017200 Ry

     iteration # 25     ecut=    60.00 Ry     beta= 0.50
     Davidson diagonalization with overlap
     ethr =  3.77E-08,  avg # of iterations =  3.0

     negative rho (up, down):  9.227E-02 0.000E+00

     total cpu time spent up to now is     1373.9 secs

     total energy              =   -3711.20771083 Ry
     Harris-Foulkes estimate   =   -3711.20772161 Ry
     estimated scf accuracy    <       0.00007271 Ry

     iteration # 26     ecut=    60.00 Ry     beta= 0.50
     Davidson diagonalization with overlap
     ethr =  1.59E-08,  avg # of iterations =  1.4

     negative rho (up, down):  9.189E-02 0.000E+00

     total cpu time spent up to now is     1418.0 secs

     total energy              =   -3711.20770737 Ry
     Harris-Foulkes estimate   =   -3711.20771213 Ry
     estimated scf accuracy    <       0.00003359 Ry

     iteration # 27     ecut=    60.00 Ry     beta= 0.50
     Davidson diagonalization with overlap
     ethr =  7.37E-09,  avg # of iterations =  2.0

     negative rho (up, down):  9.152E-02 0.000E+00

     total cpu time spent up to now is     1464.1 secs

     total energy              =   -3711.20770622 Ry
     Harris-Foulkes estimate   =   -3711.20770818 Ry
     estimated scf accuracy    <       0.00000700 Ry

     iteration # 28     ecut=    60.00 Ry     beta= 0.50
     Davidson diagonalization with overlap
     ethr =  1.54E-09,  avg # of iterations =  3.3

     negative rho (up, down):  9.134E-02 0.000E+00

     total cpu time spent up to now is     1515.0 secs

     total energy              =   -3711.20770630 Ry
     Harris-Foulkes estimate   =   -3711.20770661 Ry
     estimated scf accuracy    <       0.00000377 Ry

     iteration # 29     ecut=    60.00 Ry     beta= 0.50
     Davidson diagonalization with overlap
     ethr =  8.27E-10,  avg # of iterations =  1.5

     negative rho (up, down):  9.133E-02 0.000E+00

     total cpu time spent up to now is     1559.2 secs

     total energy              =   -3711.20770618 Ry
     Harris-Foulkes estimate   =   -3711.20770644 Ry
     estimated scf accuracy    <       0.00000323 Ry

     iteration # 30     ecut=    60.00 Ry     beta= 0.50
     Davidson diagonalization with overlap
     ethr =  7.09E-10,  avg # of iterations =  1.1

     negative rho (up, down):  9.126E-02 0.000E+00

     total cpu time spent up to now is     1602.5 secs

     total energy              =   -3711.20770632 Ry
     Harris-Foulkes estimate   =   -3711.20770631 Ry
     estimated scf accuracy    <       0.00000109 Ry

     iteration # 31     ecut=    60.00 Ry     beta= 0.50
     Davidson diagonalization with overlap
     ethr =  2.39E-10,  avg # of iterations =  2.0

     negative rho (up, down):  9.112E-02 0.000E+00

     total cpu time spent up to now is     1648.1 secs

     total energy              =   -3711.20770644 Ry
     Harris-Foulkes estimate   =   -3711.20770634 Ry
     estimated scf accuracy    <       0.00000070 Ry

     iteration # 32     ecut=    60.00 Ry     beta= 0.50
     Davidson diagonalization with overlap
     ethr =  1.54E-10,  avg # of iterations =  1.8

     negative rho (up, down):  9.109E-02 0.000E+00

     total cpu time spent up to now is     1693.4 secs

     total energy              =   -3711.20770650 Ry
     Harris-Foulkes estimate   =   -3711.20770647 Ry
     estimated scf accuracy    <       0.00000027 Ry

     iteration # 33     ecut=    60.00 Ry     beta= 0.50
     Davidson diagonalization with overlap
     ethr =  5.81E-11,  avg # of iterations =  2.1

     negative rho (up, down):  9.108E-02 0.000E+00

     total cpu time spent up to now is     1739.5 secs

     total energy              =   -3711.20770652 Ry
     Harris-Foulkes estimate   =   -3711.20770652 Ry
     estimated scf accuracy    <       0.00000004 Ry

     iteration # 34     ecut=    60.00 Ry     beta= 0.50
     Davidson diagonalization with overlap
     ethr =  9.15E-12,  avg # of iterations =  3.5

     negative rho (up, down):  9.109E-02 0.000E+00

     total cpu time spent up to now is     1793.9 secs

     total energy              =   -3711.20770651 Ry
     Harris-Foulkes estimate   =   -3711.20770653 Ry
     estimated scf accuracy    <       0.00000001 Ry

     iteration # 35     ecut=    60.00 Ry     beta= 0.50
     Davidson diagonalization with overlap
     ethr =  2.79E-12,  avg # of iterations =  1.8

     negative rho (up, down):  9.109E-02 0.000E+00

     total cpu time spent up to now is     1839.7 secs

     total energy              =   -3711.20770651 Ry
     Harris-Foulkes estimate   =   -3711.20770651 Ry
     estimated scf accuracy    <       0.00000001 Ry

     iteration # 36     ecut=    60.00 Ry     beta= 0.50
     Davidson diagonalization with overlap
     ethr =  2.79E-12,  avg # of iterations =  1.0

     negative rho (up, down):  9.109E-02 0.000E+00

     total cpu time spent up to now is     1881.6 secs

     End of self-consistent calculation

          k = 0.0000 0.0000 0.0000 ( 71619 PWs)   bands (ev):

   -41.3758 -38.8617 -38.0700 -35.6973 -23.0707 -22.9353 -22.8573 -22.7290
   -22.6299 -22.6256 -22.4981 -22.4764 -21.4285 -21.4080 -21.2857 -19.9181
   -19.9085 -19.8340 -18.5451 -18.4410 -18.0732 -17.0452 -16.9100 -16.7270
   -16.2388 -15.7320 -15.5273 -15.4555 -15.0337 -14.9937 -14.9652 -14.9063
   -14.8342 -14.7618 -14.7027 -14.6005 -14.5237 -14.4949 -14.4728 -14.3620
   -14.2520 -14.1446 -14.1144 -14.0350 -14.0297 -14.0223 -13.9967 -13.9930
   -13.9324 -13.7816 -13.7787 -13.7693 -13.6208 -13.4284  -8.4045  -8.3127
    -8.0953  -8.0458  -7.9870  -7.9403  -7.9067  -7.8931  -7.8624  -7.8036
    -7.7686  -7.7652  -7.7307  -7.7024  -7.7006  -7.6722  -7.6224  -7.5556
    -7.5306  -7.5051  -7.4701  -7.4370  -7.3135  -7.2820  -3.5714  -3.0258
    -2.9423  -2.8590  -2.7636  -2.6412  -2.5553  -2.3531  -2.2314  -2.2143
    -2.1912  -2.1338  -2.1264  -2.0928  -2.0842  -1.9979  -1.9280  -1.8804
    -1.8431  -1.7186  -1.7070  -1.6743  -1.6331  -1.5735  -1.5613  -1.4992
    -1.4951  -1.3723  -1.3036  -1.2521  -1.2356  -1.2105  -1.1470  -1.0769
    -1.0345  -1.0081  -1.0051  -0.9785  -0.9616  -0.9601  -0.9457  -0.9438
    -0.9201  -0.9145  -0.8277  -0.8101  -0.7347  -0.6921  -0.6841  -0.6576
    -0.6417  -0.5815  -0.5050  -0.3669  -0.3654  -0.3599  -0.2953  -0.2620
    -0.2548  -0.2303  -0.2040  -0.1762  -0.1752  -0.1718  -0.1181  -0.0713
    -0.0698  -0.0427  -0.0220  -0.0182  -0.0174   0.0100   0.0170   0.0297
     0.0401   0.0656   0.1365   0.1365   0.2200   0.2326   0.2331   0.2409
     0.2587   0.2723   0.2798   0.3123   0.3242   0.3522   0.3705   0.3736
     0.4061   0.4110   0.4823   0.5022   0.5128   0.5187   0.5438   0.5438
     0.5663   0.5838   0.6407   0.6999   0.7205   0.7652   0.8378   0.9342
     0.9968   1.0049   1.0193   1.0527   1.0748   1.0799   1.1610   1.1862
     1.2136   1.2190   1.2280   1.2290   1.2486   1.2709   1.2890   1.3525
     1.3569   1.4147   1.4233   1.4385   1.5601   1.5776   1.6001   1.6372
     1.6479   1.7089   1.7281   1.7299   1.7735   1.7931   1.8027   1.8437
     1.8443   1.9363   2.0107   2.0299   2.0546   2.0638   2.0752   2.1095
     2.1617   2.2321   2.2706   2.2800   2.3407   2.3552   2.4083   2.4720
     2.4976   2.5429   2.5952   2.6442   2.8341   2.8849   2.9445   3.9091
     4.4048   4.6770   5.2372   5.2448   5.3539   5.4224   5.6379   5.9401
     6.0693   6.4722   6.5618   6.6509   6.6972   6.8625   6.8884   6.8989
     7.2746   7.2992   7.3773   7.3838   7.3907   7.4117   7.4752   7.5916
     7.7471   7.8573   8.0792   8.1342   8.1569   8.3164   8.3701   8.5131
     8.5258   8.6542

          k = 0.0000 0.2618 0.0000 ( 71587 PWs)   bands (ev):

   -41.3737 -38.8603 -38.0673 -35.6956 -23.0472 -22.9165 -22.8327 -22.7099
   -22.6064 -22.6007 -22.4790 -22.4575 -21.4311 -21.4043 -21.3186 -19.9159
   -19.9093 -19.8518 -18.5064 -18.4337 -18.1841 -17.0158 -16.9057 -16.7930
   -16.1891 -15.6951 -15.5198 -15.3494 -14.9807 -14.9736 -14.9293 -14.8507
   -14.7893 -14.7153 -14.6641 -14.5986 -14.4862 -14.4651 -14.4368 -14.3242
   -14.2110 -14.1404 -14.0933 -14.0807 -14.0258 -14.0130 -14.0032 -13.9734
   -13.9705 -13.8359 -13.7773 -13.7722 -13.6804 -13.4593  -8.4137  -8.3028
    -8.0886  -8.0239  -8.0000  -7.9815  -7.9641  -7.9480  -7.9032  -7.8631
    -7.8115  -7.8041  -7.7918  -7.7623  -7.7377  -7.7177  -7.6612  -7.6091
    -7.5991  -7.5938  -7.5476  -7.5265  -7.5183  -7.4948  -3.7054  -3.1261
    -3.1142  -2.9207  -2.7746  -2.6769  -2.5729  -2.4696  -2.3330  -2.2795
    -2.2263  -2.1883  -2.1729  -2.1314  -2.1309  -2.1299  -2.1014  -2.0238
    -1.9440  -1.9260  -1.8973  -1.8552  -1.7452  -1.6731  -1.6710  -1.6538
    -1.5358  -1.4984  -1.4806  -1.4071  -1.3898  -1.3896  -1.3749  -1.3680
    -1.3573  -1.3294  -1.2935  -1.0850  -1.0716  -1.0168  -0.9827  -0.9292
    -0.9089  -0.9024  -0.8204  -0.7580  -0.7475  -0.7269  -0.7038  -0.6271
    -0.5947  -0.5512  -0.5351  -0.5216  -0.4379  -0.3871  -0.3503  -0.3399
    -0.3268  -0.3123  -0.2880  -0.2604  -0.2269  -0.2193  -0.2005  -0.1836
    -0.1386  -0.0920  -0.0900  -0.0134   0.0064   0.0219   0.0354   0.0878
     0.1122   0.1694   0.1713   0.1885   0.1955   0.2009   0.2195   0.2558
     0.2673   0.2894   0.2960   0.3140   0.3413   0.3459   0.3637   0.4010
     0.4105   0.4431   0.4450   0.4746   0.4794   0.4885   0.6141   0.6246
     0.6770   0.6899   0.6963   0.7952   0.8546   0.8815   0.9431   0.9960
     1.0035   1.0152   1.0710   1.0885   1.1558   1.1605   1.1939   1.2185
     1.2702   1.2904   1.2946   1.3327   1.3328   1.3497   1.3937   1.4122
     1.4380   1.4510   1.4652   1.5115   1.5323   1.5607   1.5685   1.5935
     1.6486   1.6604   1.7268   1.7433   1.7540   1.7760   1.7929   1.8479
     1.9089   1.9197   1.9377   1.9901   1.9938   2.0456   2.0725   2.1908
     2.2653   2.3468   2.4003   2.4108   2.6566   2.8190   2.8212   2.8798
     2.9076   2.9276   2.9737   3.0177   3.0412   3.1990   3.2194   3.9280
     4.4361   4.8122   5.1606   5.5022   5.6200   5.6952   5.7846   6.0328
     6.2757   6.4083   6.4423   6.6491   6.9663   7.0016   7.1241   7.1482
     7.1829   7.2260   7.3852   7.4830   7.5861   7.6017   7.7249   7.7778
     7.8320   7.8882   8.1034   8.2559   8.3240   8.4664   8.5176   8.7135
     8.7485   8.8340

          k = 0.0000 0.5236 0.0000 ( 71479 PWs)   bands (ev):

   -41.3687 -38.8570 -38.0608 -35.6915 -22.9893 -22.8704 -22.7722 -22.6630
   -22.5484 -22.5391 -22.4323 -22.4114 -21.4843 -21.3953 -21.3480 -19.9409
   -19.9105 -19.8644 -18.4243 -18.4163 -18.4067 -16.9457 -16.9328 -16.8952
   -16.0582 -15.6036 -15.5116 -15.1091 -15.0324 -14.8195 -14.7465 -14.7045
   -14.6707 -14.6598 -14.6541 -14.5704 -14.4836 -14.4085 -14.2644 -14.2311
   -14.2104 -14.1341 -14.1121 -14.0627 -14.0016 -13.9998 -13.9816 -13.9765
   -13.9626 -13.9296 -13.8090 -13.7953 -13.7698 -13.5483  -8.4964  -8.3563
    -8.2766  -8.2762  -8.2746  -8.1166  -8.0682  -8.0557  -8.0519  -8.0298
    -7.9811  -7.9185  -7.9170  -7.8754  -7.8686  -7.8194  -7.7565  -7.7462
    -7.7282  -7.6969  -7.6588  -7.6313  -7.5369  -7.4606  -4.1402  -3.5184
    -3.4288  -3.1656  -2.8819  -2.8494  -2.8209  -2.7342  -2.6403  -2.5803
    -2.5757  -2.5362  -2.4452  -2.4043  -2.2961  -2.2618  -2.2302  -2.2206
    -2.1865  -2.1830  -2.1829  -2.1701  -2.1255  -2.0776  -2.0674  -2.0410
    -2.0249  -1.9593  -1.8087  -1.7737  -1.6733  -1.6258  -1.6095  -1.5831
    -1.3970  -1.3736  -1.3033  -1.2642  -1.2147  -1.1327  -1.0910  -0.9698
    -0.9586  -0.9553  -0.9395  -0.8490  -0.8470  -0.8268  -0.7958  -0.7900
    -0.7569  -0.7185  -0.6781  -0.6442  -0.6219  -0.6069  -0.5705  -0.5563
    -0.5501  -0.5159  -0.5027  -0.5004  -0.4741  -0.4235  -0.4123  -0.3810
    -0.3295  -0.3197  -0.2630  -0.2579  -0.1845  -0.1786   0.0555   0.0693
     0.0703   0.1202   0.1349   0.2154   0.2215   0.2533   0.2980   0.3060
     0.3162   0.3346   0.3418   0.3785   0.4253   0.4730   0.5740   0.6072
     0.6438   0.7126   0.8016   0.8480   0.8549   0.9110   0.9116   0.9453
     1.0190   1.0562   1.0565   1.0799   1.0889   1.1143   1.1221   1.1707
     1.1970   1.2351   1.2668   1.2722   1.2923   1.3036   1.3156   1.3349
     1.3517   1.3586   1.3659   1.3917   1.4144   1.4584   1.4591   1.5046
     1.5185   1.5444   1.5689   1.5954   1.6553   1.6762   1.7010   1.7583
     1.7633   1.8077   1.8312   1.8430   1.8591   1.8600   1.8932   1.9400
     1.9536   1.9982   2.0402   2.0595   2.0913   2.1116   2.1161   2.1860
     2.3363   2.3695   2.5215   2.5820   3.0922   3.1308   3.1558   3.2133
     3.2615   3.4695   3.5598   3.6048   3.8392   3.8567   3.9648   4.1645
     4.5555   5.0412   5.0981   5.4903   5.8926   6.0707   6.2814   6.5241
     6.5774   6.5851   6.6441   6.7495   6.7574   6.9744   7.0983   7.1159
     7.3450   7.8225   7.8469   7.9191   8.0053   8.1232   8.1690   8.3150
     8.4410   8.5096   8.5217   8.6548   8.6625   8.7331   8.8400   8.8611
     9.0233   9.0748

          k = 0.0000 0.7854 0.0000 ( 71458 PWs)   bands (ev):

   -41.3637 -38.8538 -38.0543 -35.6874 -22.9297 -22.8232 -22.7098 -22.6151
   -22.4888 -22.4756 -22.3845 -22.3640 -21.5752 -21.3863 -21.3359 -19.9936
   -19.9051 -19.8547 -18.6332 -18.3988 -18.3008 -17.0677 -16.8848 -16.8594
   -15.8965 -15.5315 -15.5085 -15.1032 -14.8929 -14.7611 -14.7225 -14.6375
   -14.5588 -14.5336 -14.5053 -14.5015 -14.4724 -14.3310 -14.2116 -14.1637
   -14.1504 -14.1381 -14.1352 -14.0441 -14.0227 -13.9731 -13.9493 -13.9177
   -13.9167 -13.8983 -13.8888 -13.8274 -13.7826 -13.6797  -8.8538  -8.6712
    -8.5585  -8.4561  -8.4304  -8.4117  -8.4052  -8.2473  -8.2106  -8.1456
    -8.1106  -8.0556  -7.9867  -7.9445  -7.9161  -7.7739  -7.7538  -7.7398
    -7.7225  -7.7004  -7.6783  -7.6250  -7.4132  -7.3500  -4.6059  -4.0029
    -3.6999  -3.5691  -3.2467  -3.2368  -3.2091  -3.0920  -2.9732  -2.9600
    -2.9046  -2.8902  -2.8364  -2.7706  -2.7588  -2.7446  -2.5908  -2.4237
    -2.3699  -2.3594  -2.3270  -2.2393  -2.1908  -2.1848  -2.1750  -2.1486
    -2.1173  -2.0627  -1.8677  -1.8232  -1.7818  -1.7066  -1.6485  -1.6395
    -1.5965  -1.5774  -1.5157  -1.4578  -1.4468  -1.2031  -1.1776  -1.1742
    -1.0898  -1.0105  -1.0015  -0.9871  -0.9828  -0.9519  -0.9350  -0.9195
    -0.9185  -0.8772  -0.8520  -0.8233  -0.8186  -0.7775  -0.7592  -0.7571
    -0.7422  -0.7182  -0.7003  -0.6850  -0.6746  -0.6117  -0.6082  -0.5784
    -0.5614  -0.5333  -0.4155  -0.1910  -0.1743  -0.1534  -0.1279   0.0295
     0.0791   0.1709   0.2015   0.2402   0.2984   0.3151   0.3202   0.3215
     0.3980   0.4745   0.5102   0.5481   0.5697   0.6286   0.7904   0.7929
     0.8705   0.8750   0.9737   1.0068   1.0213   1.0436   1.0851   1.0890
     1.1135   1.1543   1.2073   1.2087   1.2398   1.2767   1.3015   1.3299
     1.3488   1.3505   1.3842   1.3954   1.4330   1.4659   1.4735   1.5493
     1.5815   1.5832   1.5874   1.6143   1.6242   1.6461   1.6815   1.6908
     1.7550   1.7578   1.7752   1.7830   1.8319   1.8436   1.8578   1.8840
     1.9151   1.9371   1.9441   1.9878   1.9888   2.0508   2.0680   2.0898
     2.1566   2.2148   2.2483   2.2719   2.2784   2.3026   2.3299   2.4003
     2.4477   2.4958   2.5225   2.8763   2.9397   3.0039   3.0433   3.1397
     3.5356   3.5632   3.9434   4.0828   4.1614   4.4880   4.5522   4.7256
     4.8248   5.0061   5.3156   5.3936   5.6195   5.7799   6.1127   6.2160
     6.5622   6.7647   6.9256   7.1622   7.2851   7.4536   7.5335   7.5414
     7.8401   8.0249   8.1240   8.3081   8.4306   8.4778   8.5988   8.7294
     8.7696   8.8038   8.8146   8.8657   8.9651   9.0593   9.0608   9.1512
     9.2155   9.2725

          k = 0.0000-1.0472 0.0000 ( 71594 PWs)   bands (ev):

   -41.3616 -38.8524 -38.0516 -35.6856 -22.9045 -22.8033 -22.6834 -22.5949
   -22.4636 -22.4487 -22.3644 -22.3441 -21.6148 -21.3826 -21.3279 -20.0165
   -19.9028 -19.8492 -18.7137 -18.3916 -18.2535 -17.1181 -16.8806 -16.8236
   -15.8037 -15.5650 -15.4680 -15.1380 -14.8996 -14.7672 -14.6984 -14.6197
   -14.5346 -14.4716 -14.4505 -14.3883 -14.3551 -14.3136 -14.2796 -14.1857
   -14.1553 -14.1017 -14.0558 -14.0274 -13.9982 -13.9797 -13.9230 -13.9175
   -13.8990 -13.8853 -13.8826 -13.8679 -13.8139 -13.7286  -9.0070  -8.8245
    -8.6752  -8.6096  -8.5623  -8.5304  -8.4381  -8.3286  -8.2287  -8.2101
    -8.1819  -8.0612  -7.9805  -7.9720  -7.9263  -7.7628  -7.7503  -7.7489
    -7.7286  -7.7095  -7.6662  -7.5724  -7.3594  -7.3016  -4.7933  -4.2051
    -3.8101  -3.7555  -3.4405  -3.4341  -3.3746  -3.3015  -3.1160  -3.1043
    -3.0693  -3.0690  -3.0008  -2.9760  -2.9618  -2.8991  -2.6196  -2.4522
    -2.4463  -2.3959  -2.2423  -2.2335  -2.2084  -2.2067  -2.1725  -2.1046
    -2.0923  -2.0522  -1.9664  -1.9270  -1.8940  -1.7901  -1.7545  -1.7432
    -1.6765  -1.6447  -1.5534  -1.4727  -1.3028  -1.2741  -1.2471  -1.1805
    -1.1636  -1.1246  -1.0829  -1.0630  -1.0362  -1.0296  -1.0139  -1.0094
    -0.9724  -0.9278  -0.9263  -0.9023  -0.8859  -0.8557  -0.8233  -0.8101
    -0.8030  -0.7924  -0.7884  -0.7861  -0.7799  -0.6674  -0.6442  -0.6389
    -0.5654  -0.4707  -0.4622  -0.2282  -0.1834  -0.1516  -0.1259  -0.0467
     0.0177   0.1862   0.2229   0.2487   0.2902   0.3056   0.3214   0.3285
     0.4352   0.5630   0.5703   0.6093   0.6314   0.7153   0.8781   0.9013
     0.9144   0.9148   0.9884   0.9955   1.0159   1.0269   1.0775   1.1974
     1.2253   1.2453   1.2692   1.2723   1.3000   1.3199   1.3507   1.3657
     1.3750   1.3780   1.4195   1.4249   1.4371   1.4516   1.5255   1.5747
     1.6435   1.6477   1.6608   1.7311   1.7462   1.7696   1.7745   1.7876
     1.8398   1.8491   1.8560   1.9290   1.9422   1.9821   2.0029   2.0110
     2.0219   2.0396   2.0541   2.1297   2.2009   2.2063   2.2160   2.2447
     2.2525   2.2546   2.2815   2.3306   2.3591   2.4299   2.4316   2.4747
     2.5003   2.6591   2.6833   2.7077   2.7745   2.8742   2.9737   3.0291
     3.5154   3.6373   3.9968   4.2125   4.3074   4.6944   4.7629   4.9569
     4.9935   5.1317   5.1701   5.3993   5.5003   5.6688   5.8733   5.9916
     6.6525   6.6670   7.1863   7.2885   7.5089   7.6846   7.8517   7.9487
     7.9575   7.9794   8.2219   8.2740   8.4015   8.4169   8.6200   8.7986
     8.8566   8.9024   8.9493   8.9571   9.0319   9.1625   9.2238   9.2703
     9.3800   9.4177

          k = 0.1250 0.0000 0.0000 ( 71575 PWs)   bands (ev):

   -41.3758 -38.8617 -38.0700 -35.6973 -23.0671 -22.9392 -22.8528 -22.7337
   -22.6266 -22.6209 -22.5031 -22.4799 -21.4286 -21.4073 -21.2857 -19.9194
   -19.9083 -19.8340 -18.5444 -18.4378 -18.0732 -17.0482 -16.9220 -16.7270
   -16.2301 -15.7587 -15.5072 -15.4280 -15.0203 -14.9865 -14.9631 -14.8923
   -14.8384 -14.7533 -14.6951 -14.6130 -14.5707 -14.5027 -14.4816 -14.3285
   -14.2779 -14.1410 -14.1019 -14.0389 -14.0293 -14.0234 -13.9991 -13.9949
   -13.9372 -13.7954 -13.7652 -13.7598 -13.6277 -13.4349  -8.4065  -8.3181
    -8.0976  -8.0349  -7.9912  -7.9328  -7.8977  -7.8929  -7.8659  -7.8101
    -7.7715  -7.7603  -7.7390  -7.7119  -7.6789  -7.6788  -7.6075  -7.5470
    -7.5399  -7.4976  -7.4754  -7.4389  -7.3232  -7.2904  -3.5505  -2.9910
    -2.9377  -2.8271  -2.7990  -2.6054  -2.5327  -2.3794  -2.2397  -2.2110
    -2.1907  -2.1450  -2.1241  -2.1006  -2.0806  -1.9865  -1.9499  -1.8780
    -1.8576  -1.7163  -1.7145  -1.6700  -1.6598  -1.5556  -1.5532  -1.5002
    -1.4535  -1.4149  -1.3009  -1.2454  -1.2246  -1.1749  -1.1019  -1.0917
    -1.0649  -1.0449  -0.9972  -0.9860  -0.9596  -0.9585  -0.9495  -0.9450
    -0.9417  -0.8953  -0.8343  -0.7747  -0.7146  -0.6750  -0.6679  -0.6668
    -0.6189  -0.5898  -0.5254  -0.4786  -0.3684  -0.3496  -0.3461  -0.2740
    -0.2422  -0.2361  -0.2255  -0.1948  -0.1846  -0.1737  -0.1376  -0.1029
    -0.0935  -0.0421  -0.0186  -0.0114   0.0069   0.0175   0.0300   0.0381
     0.0394   0.0470   0.1324   0.1883   0.2007   0.2153   0.2348   0.2423
     0.2527   0.2569   0.2715   0.2778   0.3281   0.3476   0.3799   0.4091
     0.4216   0.4284   0.4859   0.4973   0.5130   0.5356   0.5385   0.5570
     0.5784   0.6032   0.6365   0.6943   0.7186   0.7466   0.8545   0.9164
     0.9542   0.9824   1.0457   1.0506   1.0509   1.0992   1.1468   1.1672
     1.1900   1.1940   1.2189   1.2490   1.2846   1.2876   1.3015   1.3134
     1.4096   1.4380   1.4423   1.4501   1.5393   1.5510   1.5896   1.6485
     1.6768   1.7247   1.7318   1.7527   1.7747   1.7896   1.8269   1.8412
     1.8606   1.9036   1.9891   2.0086   2.0125   2.0580   2.0621   2.1201
     2.1819   2.2323   2.2619   2.2621   2.3384   2.3666   2.4048   2.4670
     2.4979   2.5882   2.6036   2.6427   2.8621   2.8796   2.9468   3.8344
     4.4781   4.6932   5.2476   5.2874   5.3920   5.4304   5.6817   5.9293
     6.1065   6.4696   6.5439   6.7048   6.7082   6.8119   6.9220   6.9250
     6.9568   6.9802   7.3316   7.3779   7.4294   7.5866   7.7539   7.8028
     7.8277   7.8761   8.0789   8.1488   8.1581   8.3480   8.4074   8.5094
     8.5571   8.6698

          k = 0.1250 0.2618 0.0000 ( 71547 PWs)   bands (ev):

   -41.3737 -38.8603 -38.0673 -35.6956 -23.0437 -22.9202 -22.8285 -22.7144
   -22.6032 -22.5962 -22.4838 -22.4609 -21.4311 -21.4036 -21.3186 -19.9172
   -19.9091 -19.8518 -18.5057 -18.4306 -18.1841 -17.0186 -16.9171 -16.7929
   -16.1809 -15.7211 -15.5006 -15.3227 -14.9814 -14.9602 -14.9217 -14.8391
   -14.7932 -14.7088 -14.6574 -14.6046 -14.4968 -14.4903 -14.4705 -14.2851
   -14.2355 -14.1362 -14.0967 -14.0708 -14.0264 -14.0149 -14.0025 -13.9757
   -13.9740 -13.8461 -13.7724 -13.7584 -13.6842 -13.4648  -8.4152  -8.3061
    -8.0906  -8.0766  -8.0299  -8.0060  -7.9191  -7.9172  -7.9103  -7.8850
    -7.8463  -7.7985  -7.7709  -7.7482  -7.7323  -7.7057  -7.6913  -7.6452
    -7.6262  -7.5958  -7.5354  -7.4789  -7.4732  -7.4508  -3.6813  -3.1259
    -3.0901  -2.8855  -2.7795  -2.6398  -2.6036  -2.4481  -2.3417  -2.2822
    -2.2185  -2.1920  -2.1657  -2.1380  -2.1194  -2.1094  -2.0985  -2.0285
    -1.9410  -1.9381  -1.8984  -1.8521  -1.7736  -1.7378  -1.6681  -1.6471
    -1.5545  -1.4875  -1.4828  -1.4029  -1.3888  -1.3838  -1.3772  -1.3584
    -1.3573  -1.2761  -1.2690  -1.0965  -1.0789  -1.0769  -1.0193  -0.9370
    -0.8983  -0.8825  -0.8311  -0.7682  -0.7469  -0.7255  -0.7010  -0.6846
    -0.6301  -0.6210  -0.5863  -0.5182  -0.4245  -0.3974  -0.3531  -0.3280
    -0.3250  -0.3009  -0.2878  -0.2734  -0.2411  -0.2184  -0.1761  -0.1583
    -0.1305  -0.0834  -0.0764  -0.0189  -0.0014   0.0195   0.0297   0.0816
     0.0880   0.1517   0.1658   0.1720   0.1859   0.2146   0.2179   0.2419
     0.2543   0.3050   0.3089   0.3256   0.3263   0.3368   0.3661   0.3988
     0.4078   0.4419   0.4489   0.4664   0.4852   0.5001   0.6018   0.6566
     0.6661   0.6962   0.7023   0.7972   0.8712   0.9035   0.9461   0.9607
     1.0264   1.0427   1.0799   1.0936   1.1276   1.1511   1.1890   1.2413
     1.2615   1.2745   1.2905   1.3036   1.3076   1.3474   1.4064   1.4088
     1.4207   1.4683   1.4710   1.4977   1.5340   1.5607   1.5981   1.6191
     1.6497   1.7168   1.7232   1.7500   1.7599   1.7823   1.7936   1.8177
     1.8805   1.8986   1.9077   2.0013   2.0061   2.0970   2.1457   2.1595
     2.2003   2.3685   2.4383   2.5142   2.6449   2.8150   2.8341   2.8836
     2.9129   2.9308   2.9717   3.0156   3.0519   3.1957   3.2193   3.8613
     4.5046   4.8209   5.1596   5.5116   5.6578   5.7279   5.8082   6.0232
     6.3096   6.3932   6.4473   6.6568   6.9398   6.9589   7.0209   7.0377
     7.1896   7.2350   7.3884   7.4826   7.5443   7.6553   7.7911   7.9098
     7.9240   8.0140   8.1394   8.2812   8.3317   8.4985   8.5476   8.6937
     8.7812   8.8309

          k = 0.1250 0.5236 0.0000 ( 71480 PWs)   bands (ev):

   -41.3687 -38.8571 -38.0608 -35.6915 -22.9862 -22.8736 -22.7684 -22.6670
   -22.5457 -22.5352 -22.4364 -22.4143 -21.4843 -21.3946 -21.3480 -19.9408
   -19.9116 -19.8643 -18.4243 -18.4132 -18.4061 -16.9474 -16.9337 -16.9053
   -16.0514 -15.6273 -15.4950 -15.0846 -15.0307 -14.8118 -14.7433 -14.7006
   -14.6714 -14.6579 -14.6537 -14.5650 -14.4835 -14.4029 -14.3222 -14.2438
   -14.1680 -14.1353 -14.1311 -14.0614 -14.0014 -13.9980 -13.9795 -13.9760
   -13.9641 -13.9316 -13.8144 -13.7931 -13.7587 -13.5515  -8.5117  -8.3733
    -8.3099  -8.2744  -8.2183  -8.1354  -8.0947  -8.0716  -8.0495  -8.0394
    -7.9876  -7.9436  -7.9006  -7.8515  -7.8494  -7.7753  -7.7574  -7.7549
    -7.7181  -7.6946  -7.6913  -7.6864  -7.4840  -7.4229  -4.1098  -3.4829
    -3.4446  -3.1287  -2.8832  -2.8304  -2.8137  -2.7286  -2.6279  -2.5914
    -2.5747  -2.5432  -2.4401  -2.4063  -2.2935  -2.2628  -2.2215  -2.2195
    -2.1870  -2.1833  -2.1723  -2.1677  -2.1259  -2.0783  -2.0663  -2.0403
    -2.0233  -1.9263  -1.8139  -1.7972  -1.6665  -1.6538  -1.6194  -1.5978
    -1.4084  -1.3995  -1.2783  -1.2491  -1.2262  -1.2019  -1.1493  -1.0385
    -0.9863  -0.9589  -0.9353  -0.8775  -0.8732  -0.8554  -0.8059  -0.7654
    -0.7240  -0.7095  -0.6995  -0.6755  -0.6178  -0.5973  -0.5841  -0.5609
    -0.5319  -0.5186  -0.5169  -0.4937  -0.4655  -0.4314  -0.4130  -0.3773
    -0.3478  -0.3234  -0.2948  -0.2520  -0.1793  -0.1684   0.0359   0.0602
     0.1063   0.1186   0.1661   0.1721   0.2388   0.2415   0.2456   0.2893
     0.3210   0.3419   0.3562   0.3907   0.4480   0.4658   0.5600   0.5996
     0.6873   0.7184   0.7958   0.8356   0.8564   0.8689   0.8740   0.9585
     1.0017   1.0380   1.0982   1.1028   1.1098   1.1263   1.1353   1.1699
     1.1889   1.2177   1.2416   1.2473   1.2674   1.2899   1.3331   1.3393
     1.3637   1.3810   1.4056   1.4164   1.4316   1.4503   1.4833   1.4908
     1.5454   1.5639   1.5851   1.5924   1.6242   1.6513   1.6923   1.7514
     1.7754   1.7923   1.8377   1.8441   1.8656   1.8730   1.9003   1.9196
     2.0103   2.0340   2.0575   2.0819   2.1073   2.1195   2.1658   2.2062
     2.2819   2.5103   2.5801   2.6188   3.0934   3.1318   3.1573   3.2195
     3.2682   3.4451   3.5541   3.6068   3.8072   3.8305   3.9362   4.1242
     4.6004   5.0442   5.1007   5.5052   5.9073   6.0556   6.2749   6.5396
     6.5826   6.5970   6.6518   6.7567   6.7640   6.9933   7.0623   7.1390
     7.3369   7.6253   7.8718   7.9709   8.0482   8.2024   8.2945   8.3737
     8.4293   8.5113   8.5211   8.5889   8.6957   8.7547   8.8554   8.8808
     8.9899   9.0794

          k = 0.1250 0.7854 0.0000 ( 71486 PWs)   bands (ev):

   -41.3637 -38.8538 -38.0543 -35.6874 -22.9271 -22.8260 -22.7066 -22.6184
   -22.4866 -22.4723 -22.3881 -22.3664 -21.5752 -21.3857 -21.3359 -19.9936
   -19.9062 -19.8546 -18.6331 -18.3958 -18.3003 -17.0677 -16.8942 -16.8615
   -15.8922 -15.5406 -15.5035 -15.1029 -14.8770 -14.7444 -14.7154 -14.6376
   -14.5540 -14.5406 -14.5059 -14.5006 -14.4728 -14.3312 -14.2051 -14.1756
   -14.1648 -14.1499 -14.1293 -14.0362 -14.0302 -13.9798 -13.9481 -13.9176
   -13.9170 -13.8958 -13.8918 -13.8308 -13.7803 -13.6794  -8.8415  -8.6615
    -8.5236  -8.4473  -8.4272  -8.3912  -8.3695  -8.2497  -8.1870  -8.1673
    -8.0737  -8.0546  -7.9916  -7.9874  -7.9171  -7.7989  -7.7901  -7.7577
    -7.7316  -7.7155  -7.6806  -7.6400  -7.4285  -7.3668  -4.5699  -3.9661
    -3.7215  -3.5344  -3.2530  -3.2138  -3.2075  -3.0944  -2.9784  -2.9445
    -2.8967  -2.8916  -2.8339  -2.7731  -2.7597  -2.7462  -2.5771  -2.4282
    -2.4101  -2.3434  -2.2980  -2.2329  -2.1934  -2.1860  -2.1502  -2.1482
    -2.1162  -2.0571  -1.8609  -1.8093  -1.7849  -1.7251  -1.6994  -1.6694
    -1.6028  -1.5563  -1.5420  -1.4979  -1.4656  -1.2064  -1.1808  -1.1753
    -1.0791  -1.0420  -1.0091  -0.9963  -0.9897  -0.9890  -0.9735  -0.9419
    -0.9148  -0.8988  -0.8268  -0.8116  -0.7949  -0.7907  -0.7785  -0.7574
    -0.7143  -0.7117  -0.6972  -0.6931  -0.6707  -0.6101  -0.6001  -0.5820
    -0.5729  -0.5270  -0.4998  -0.2000  -0.1620  -0.1611  -0.1193   0.0830
     0.1396   0.1897   0.2039   0.2294   0.2647   0.2787   0.3401   0.3462
     0.3802   0.4652   0.4894   0.5598   0.5921   0.6339   0.7267   0.7735
     0.8912   0.8949   0.9516   0.9924   1.0190   1.0735   1.0842   1.1011
     1.1199   1.1409   1.1901   1.2057   1.2242   1.2652   1.2951   1.3206
     1.3377   1.3737   1.4152   1.4214   1.4300   1.4560   1.4918   1.4953
     1.5246   1.5586   1.6297   1.6465   1.6645   1.6725   1.6828   1.7144
     1.7489   1.7682   1.7804   1.7988   1.8395   1.8606   1.8898   1.8954
     1.9235   1.9408   1.9599   1.9769   2.0090   2.0573   2.0786   2.1376
     2.1460   2.1735   2.2657   2.2808   2.3088   2.3142   2.3330   2.4869
     2.4969   2.5171   2.5368   2.8466   2.9417   3.0085   3.0484   3.1464
     3.5353   3.5712   3.9402   4.0320   4.1452   4.4239   4.4945   4.6700
     4.8338   5.0295   5.3136   5.4093   5.6549   5.7616   6.1680   6.2694
     6.5552   6.7914   6.9084   7.1434   7.2529   7.4205   7.5078   7.5189
     7.8245   7.8528   8.0396   8.3645   8.4581   8.5494   8.6219   8.7502
     8.7959   8.8185   8.8527   8.8974   8.9988   9.0883   9.0900   9.1668
     9.2227   9.2892

          k = 0.1250-1.0472 0.0000 ( 71558 PWs)   bands (ev):

   -41.3616 -38.8524 -38.0516 -35.6857 -22.9021 -22.8058 -22.6805 -22.5979
   -22.4616 -22.4456 -22.3677 -22.3462 -21.6148 -21.3820 -21.3279 -20.0165
   -19.9039 -19.8491 -18.7137 -18.3887 -18.2530 -17.1181 -16.8896 -16.8256
   -15.8016 -15.5612 -15.4710 -15.1408 -14.8884 -14.7566 -14.6746 -14.6180
   -14.5217 -14.4933 -14.4644 -14.3809 -14.3554 -14.3131 -14.2727 -14.1785
   -14.1665 -14.1193 -14.0672 -14.0257 -13.9983 -13.9852 -13.9216 -13.9171
   -13.8999 -13.8827 -13.8802 -13.8692 -13.8172 -13.7323  -8.9774  -8.7942
    -8.6456  -8.5797  -8.5331  -8.4999  -8.4361  -8.2977  -8.2349  -8.2139
    -8.1776  -8.0575  -8.0071  -7.9833  -7.9273  -7.7979  -7.7812  -7.7746
    -7.7472  -7.7032  -7.6690  -7.6162  -7.4037  -7.3412  -4.7554  -4.1671
    -3.8342  -3.7212  -3.4402  -3.4059  -3.3882  -3.3037  -3.1267  -3.1042
    -3.0671  -3.0501  -3.0035  -2.9782  -2.9653  -2.8904  -2.6027  -2.4321
    -2.4263  -2.3760  -2.2661  -2.2303  -2.2093  -2.2059  -2.1730  -2.1324
    -2.1055  -2.0495  -2.0479  -1.9227  -1.8597  -1.7548  -1.7492  -1.7419
    -1.6558  -1.6092  -1.5576  -1.4893  -1.4122  -1.3386  -1.2555  -1.1814
    -1.1682  -1.1197  -1.1127  -1.0792  -1.0476  -1.0442  -1.0249  -1.0092
    -0.9789  -0.9003  -0.8990  -0.8840  -0.8748  -0.8671  -0.8511  -0.8087
    -0.7945  -0.7913  -0.7769  -0.7652  -0.7605  -0.6725  -0.6513  -0.6226
    -0.6203  -0.5705  -0.4367  -0.1983  -0.1675  -0.1609  -0.1379   0.0436
     0.0643   0.2021   0.2161   0.2356   0.2711   0.2885   0.3270   0.3488
     0.4198   0.5570   0.5936   0.6021   0.6578   0.6826   0.7708   0.8677
     0.9406   0.9451   1.0084   1.0250   1.0267   1.0274   1.0689   1.1661
     1.2236   1.2316   1.2370   1.2732   1.2946   1.3028   1.3149   1.3679
     1.3952   1.4064   1.4359   1.4395   1.4445   1.4550   1.5168   1.6114
     1.6413   1.6471   1.6475   1.7243   1.7446   1.7775   1.7857   1.8367
     1.8645   1.8659   1.8976   1.9258   1.9762   1.9924   1.9986   2.0222
     2.0436   2.0497   2.1001   2.1120   2.1962   2.2271   2.2495   2.2497
     2.2736   2.2841   2.2874   2.3040   2.3683   2.4257   2.4396   2.4814
     2.5076   2.6519   2.6768   2.7119   2.7838   2.8850   2.9827   2.9995
     3.5195   3.6423   3.9946   4.1851   4.2637   4.6155   4.6890   4.8802
     5.0022   5.1463   5.1916   5.4010   5.5400   5.6518   5.9414   6.0587
     6.6597   6.6827   7.1332   7.2841   7.4073   7.6908   7.7594   7.8682
     7.9373   7.9820   8.2095   8.2439   8.2631   8.3886   8.6843   8.8398
     8.8814   8.9603   9.0080   9.0587   9.1152   9.1688   9.3076   9.3077
     9.4000   9.4297

          k = 0.2500 0.0000 0.0000 ( 71527 PWs)   bands (ev):

   -41.3758 -38.8617 -38.0700 -35.6973 -23.0572 -22.9497 -22.8402 -22.7471
   -22.6179 -22.6075 -22.5173 -22.4893 -21.4287 -21.4057 -21.2857 -19.9224
   -19.9080 -19.8340 -18.5426 -18.4299 -18.0732 -17.0553 -16.9504 -16.7270
   -16.2068 -15.8148 -15.4695 -15.3542 -14.9923 -14.9683 -14.9517 -14.8531
   -14.8513 -14.7325 -14.6925 -14.6714 -14.6151 -14.5221 -14.5034 -14.3413
   -14.2812 -14.1275 -14.0722 -14.0443 -14.0341 -14.0238 -14.0034 -13.9989
   -13.9483 -13.8327 -13.7646 -13.7106 -13.6436 -13.4527  -8.4115  -8.3298
    -8.1025  -8.0084  -7.9985  -7.9114  -7.9087  -7.8763  -7.8599  -7.8221
    -7.7813  -7.7624  -7.7367  -7.7196  -7.6978  -7.6446  -7.5735  -7.5662
    -7.5223  -7.4908  -7.4763  -7.4449  -7.3507  -7.3139  -3.4942  -2.9257
    -2.8906  -2.8787  -2.7323  -2.5058  -2.4920  -2.4353  -2.2586  -2.2285
    -2.1982  -2.1793  -2.1293  -2.0852  -2.0714  -2.0094  -1.9623  -1.9391
    -1.8715  -1.7527  -1.7330  -1.7024  -1.5695  -1.5209  -1.5101  -1.4999
    -1.4840  -1.3660  -1.3272  -1.2937  -1.2395  -1.1488  -1.1003  -1.0686
    -1.0360  -1.0267  -0.9940  -0.9808  -0.9569  -0.9528  -0.9520  -0.9429
    -0.9381  -0.8714  -0.8109  -0.7534  -0.6962  -0.6818  -0.6556  -0.6389
    -0.6207  -0.6150  -0.5968  -0.5594  -0.4374  -0.3663  -0.3380  -0.3068
    -0.2884  -0.2593  -0.2548  -0.2447  -0.2285  -0.1972  -0.1929  -0.1646
    -0.1494  -0.1425  -0.0236  -0.0024   0.0129   0.0176   0.0255   0.0326
     0.0334   0.1302   0.1345   0.1815   0.1967   0.2372   0.2442   0.2463
     0.2590   0.2718   0.2731   0.2882   0.3215   0.3676   0.3965   0.4399
     0.4577   0.4651   0.4834   0.4861   0.5105   0.5260   0.5745   0.6017
     0.6244   0.6267   0.6795   0.6972   0.7032   0.7107   0.8542   0.8843
     0.9131   0.9711   0.9946   1.0061   1.0460   1.0629   1.1004   1.1347
     1.1880   1.1939   1.2360   1.2598   1.3006   1.3171   1.3235   1.3424
     1.4001   1.4535   1.4838   1.5210   1.5483   1.5688   1.5761   1.6258
     1.6798   1.6803   1.7188   1.7709   1.7781   1.8097   1.8174   1.8346
     1.8491   1.8944   1.8997   1.9665   2.0259   2.0268   2.1032   2.1458
     2.2079   2.2148   2.2370   2.2555   2.3329   2.3947   2.3969   2.4666
     2.5018   2.6220   2.6393   2.6780   2.8564   2.9436   2.9490   3.6824
     4.6155   4.7421   5.2545   5.4182   5.4359   5.5063   5.7904   5.9072
     6.2163   6.4679   6.5082   6.5401   6.5899   6.7273   6.7341   6.8693
     7.0787   7.1009   7.2312   7.3792   7.4361   7.5693   7.9116   7.9548
     8.0062   8.1132   8.1506   8.1609   8.2566   8.3612   8.4284   8.4916
     8.5654   8.7371

          k = 0.2500 0.2618 0.0000 ( 71526 PWs)   bands (ev):

   -41.3737 -38.8603 -38.0673 -35.6956 -23.0343 -22.9302 -22.8164 -22.7271
   -22.5950 -22.5834 -22.4973 -22.4698 -21.4312 -21.4020 -21.3186 -19.9201
   -19.9088 -19.8518 -18.5040 -18.4228 -18.1841 -17.0254 -16.9441 -16.7927
   -16.1589 -15.7747 -15.4660 -15.2506 -14.9816 -14.9272 -14.9028 -14.8070
   -14.8049 -14.6947 -14.6450 -14.6311 -14.5822 -14.5050 -14.4812 -14.2955
   -14.2385 -14.1253 -14.1020 -14.0478 -14.0275 -14.0203 -14.0006 -13.9808
   -13.9803 -13.8731 -13.7761 -13.7158 -13.6920 -13.4803  -8.4188  -8.3174
    -8.1288  -8.0969  -8.0846  -8.0261  -7.9726  -7.9190  -7.8915  -7.8589
    -7.8257  -7.8146  -7.8029  -7.7798  -7.7247  -7.6837  -7.6747  -7.6499
    -7.6419  -7.6319  -7.4625  -7.4222  -7.4120  -7.3894  -3.6149  -3.1641
    -2.9862  -2.7932  -2.7794  -2.6566  -2.5369  -2.4187  -2.3762  -2.2950
    -2.2045  -2.1931  -2.1597  -2.1584  -2.1278  -2.0813  -2.0391  -2.0087
    -1.9869  -1.9246  -1.8978  -1.8775  -1.8419  -1.8255  -1.6606  -1.6414
    -1.5952  -1.5042  -1.4492  -1.3970  -1.3881  -1.3802  -1.3706  -1.3617
    -1.3006  -1.2783  -1.1982  -1.1932  -1.1226  -1.0791  -1.0377  -1.0104
    -0.9569  -0.8967  -0.8460  -0.8265  -0.7575  -0.7320  -0.7290  -0.6803
    -0.6637  -0.6296  -0.5860  -0.5480  -0.5170  -0.4487  -0.3915  -0.3463
    -0.3393  -0.3172  -0.2948  -0.2813  -0.2260  -0.1805  -0.1669  -0.1407
    -0.1169  -0.0673  -0.0568  -0.0393  -0.0081   0.0197   0.0254   0.0318
     0.0456   0.1133   0.1416   0.1665   0.1852   0.2006   0.2140   0.2218
     0.2558   0.3003   0.3303   0.3427   0.3529   0.3592   0.3839   0.4051
     0.4154   0.4420   0.4595   0.4706   0.5027   0.5471   0.5895   0.6151
     0.6209   0.7015   0.7767   0.8658   0.8803   0.9118   0.9502   0.9620
     1.0341   1.0618   1.0905   1.1119   1.1391   1.1478   1.1683   1.1910
     1.2292   1.2310   1.2504   1.2889   1.3325   1.3481   1.3490   1.4032
     1.4367   1.4560   1.5139   1.5188   1.5323   1.6109   1.6333   1.6430
     1.6806   1.6910   1.7243   1.7483   1.7504   1.7661   1.7824   1.8131
     1.8489   1.8675   1.9355   1.9386   2.0543   2.0821   2.1936   2.2294
     2.2954   2.3377   2.5465   2.6037   2.7189   2.8015   2.8654   2.8957
     2.9262   2.9407   2.9637   3.0076   3.0847   3.1678   3.2201   3.7217
     4.6466   4.8462   5.1527   5.5129   5.7663   5.8217   5.8691   6.0098
     6.3578   6.4113   6.4672   6.6689   6.6807   6.7393   6.8564   7.1792
     7.2296   7.2991   7.3861   7.4829   7.5080   7.7245   7.8887   8.0944
     8.1639   8.1964   8.2216   8.3418   8.4216   8.5617   8.6178   8.6488
     8.7093   8.8264

          k = 0.2500 0.5236 0.0000 ( 71476 PWs)   bands (ev):

   -41.3687 -38.8571 -38.0608 -35.6915 -22.9779 -22.8824 -22.7579 -22.6780
   -22.5386 -22.5239 -22.4482 -22.4218 -21.4843 -21.3931 -21.3481 -19.9408
   -19.9144 -19.8642 -18.4241 -18.4056 -18.4047 -16.9520 -16.9360 -16.9285
   -16.0335 -15.6717 -15.4693 -15.0268 -15.0183 -14.7946 -14.7346 -14.6901
   -14.6764 -14.6546 -14.6508 -14.5507 -14.4838 -14.4175 -14.3847 -14.2523
   -14.1786 -14.1483 -14.1381 -14.0487 -14.0004 -13.9940 -13.9749 -13.9738
   -13.9684 -13.9373 -13.8253 -13.7903 -13.7337 -13.5598  -8.5306  -8.3849
    -8.3454  -8.2744  -8.2511  -8.1330  -8.1202  -8.0923  -8.0648  -8.0550
    -7.9925  -7.9115  -7.9023  -7.8791  -7.8363  -7.7934  -7.7521  -7.7494
    -7.7160  -7.6748  -7.6646  -7.6470  -7.4366  -7.3851  -4.0250  -3.4954
    -3.3823  -3.0269  -2.8863  -2.8642  -2.7229  -2.7176  -2.6430  -2.6023
    -2.5541  -2.5239  -2.4232  -2.4145  -2.2831  -2.2673  -2.2182  -2.2036
    -2.1820  -2.1781  -2.1607  -2.1532  -2.1184  -2.0856  -2.0631  -2.0386
    -2.0141  -1.9094  -1.8421  -1.8234  -1.7740  -1.6291  -1.6042  -1.5842
    -1.5034  -1.4454  -1.4066  -1.2746  -1.2559  -1.2086  -1.1587  -1.1266
    -1.0392  -0.9794  -0.9636  -0.9325  -0.9163  -0.8872  -0.8581  -0.8108
    -0.7858  -0.7370  -0.6973  -0.6662  -0.6557  -0.6278  -0.6003  -0.5732
    -0.5000  -0.4966  -0.4761  -0.4756  -0.4463  -0.4327  -0.4040  -0.4007
    -0.3886  -0.3040  -0.3013  -0.2419  -0.1693  -0.1404  -0.0311   0.0521
     0.0625   0.0797   0.0818   0.1797   0.2082   0.2591   0.2650   0.2744
     0.3618   0.3995   0.4209   0.4350   0.4515   0.5016   0.5389   0.5850
     0.7226   0.7765   0.7771   0.7924   0.8041   0.8263   0.8929   0.9527
     0.9902   1.0054   1.0791   1.0830   1.1029   1.1117   1.1347   1.1615
     1.1736   1.1846   1.2283   1.2626   1.2885   1.2932   1.3120   1.3739
     1.4064   1.4183   1.4397   1.4746   1.4934   1.4939   1.5028   1.5105
     1.5405   1.5806   1.5986   1.6022   1.6215   1.6515   1.6670   1.7153
     1.7297   1.7733   1.8017   1.8541   1.8749   1.8757   1.9592   1.9707
     2.0446   2.0575   2.0743   2.0796   2.1082   2.1244   2.2049   2.3580
     2.4273   2.5535   2.7902   2.8840   3.0961   3.1378   3.1608   3.2417
     3.2899   3.3541   3.5506   3.6103   3.7076   3.7656   3.8460   4.0167
     4.7032   5.0450   5.1100   5.5295   5.9376   6.0424   6.2557   6.5802
     6.5847   6.6386   6.6692   6.7702   6.7769   6.9888   7.0499   7.1944
     7.2853   7.3965   8.0079   8.0994   8.1675   8.2051   8.3370   8.3806
     8.4316   8.4775   8.5574   8.7168   8.7864   8.7906   8.8697   8.9439
     8.9670   9.1012

          k = 0.2500 0.7854 0.0000 ( 71504 PWs)   bands (ev):

   -41.3637 -38.8538 -38.0543 -35.6874 -22.9201 -22.8333 -22.6978 -22.6276
   -22.4807 -22.4626 -22.3981 -22.3726 -21.5752 -21.3842 -21.3360 -19.9936
   -19.9089 -19.8544 -18.6330 -18.3885 -18.2990 -17.0677 -16.9166 -16.8667
   -15.8811 -15.5582 -15.4964 -15.1022 -14.8370 -14.6949 -14.6944 -14.6489
   -14.5608 -14.5389 -14.5034 -14.4993 -14.4697 -14.3319 -14.2460 -14.1954
   -14.1865 -14.1347 -14.1131 -14.0513 -14.0338 -13.9985 -13.9446 -13.9203
   -13.9152 -13.8983 -13.8902 -13.8385 -13.7755 -13.6789  -8.7982  -8.6215
    -8.4427  -8.4088  -8.4085  -8.3459  -8.3019  -8.2604  -8.2399  -8.1187
    -8.0556  -8.0391  -7.9956  -7.9889  -7.9168  -7.9073  -7.8774  -7.8285
    -7.7277  -7.7201  -7.6961  -7.6870  -7.4854  -7.4225  -4.4694  -3.8635
    -3.7880  -3.4406  -3.2913  -3.2137  -3.1314  -3.1007  -3.0056  -2.9055
    -2.8986  -2.8550  -2.8268  -2.7802  -2.7621  -2.7504  -2.5414  -2.5329
    -2.3750  -2.2954  -2.2310  -2.2164  -2.1943  -2.1925  -2.1488  -2.1118
    -2.0978  -2.0321  -1.9714  -1.8552  -1.7881  -1.7818  -1.7168  -1.6960
    -1.6677  -1.5693  -1.5028  -1.4947  -1.4471  -1.3538  -1.2240  -1.1916
    -1.1616  -1.1297  -1.1109  -1.0639  -1.0155  -1.0044  -0.9560  -0.9543
    -0.9405  -0.8798  -0.8792  -0.8237  -0.8229  -0.7457  -0.7381  -0.7230
    -0.7200  -0.6787  -0.6665  -0.6553  -0.6485  -0.6224  -0.6125  -0.5867
    -0.5697  -0.5551  -0.4685  -0.2338  -0.1848  -0.1409  -0.0893   0.0231
     0.0753   0.1541   0.1958   0.2771   0.3307   0.3580   0.3752   0.4011
     0.4137   0.4387   0.4443   0.5345   0.6323   0.6760   0.7126   0.7157
     0.8920   0.9295   0.9489   0.9779   1.0126   1.0175   1.0863   1.0925
     1.1134   1.1704   1.1843   1.2008   1.2375   1.2615   1.2772   1.3376
     1.3602   1.3652   1.4108   1.4218   1.4275   1.4810   1.4932   1.5030
     1.5255   1.5630   1.5925   1.6392   1.6712   1.6922   1.7121   1.7160
     1.7480   1.7662   1.7782   1.7971   1.8187   1.8548   1.8808   1.8965
     1.9076   1.9346   1.9695   1.9950   2.0329   2.0461   2.0818   2.1152
     2.2113   2.2942   2.3057   2.3218   2.3402   2.3858   2.4636   2.4902
     2.5383   2.7156   2.7619   2.8290   2.9477   3.0197   3.0836   3.1867
     3.5349   3.5884   3.8599   3.9468   4.1142   4.2349   4.3237   4.5007
     4.8618   5.0843   5.3075   5.4415   5.7040   5.7814   6.3244   6.4110
     6.5464   6.8210   6.8962   7.0976   7.1363   7.3087   7.4026   7.4456
     7.6457   7.7798   8.0372   8.2278   8.5777   8.6185   8.6659   8.7632
     8.7805   8.8651   8.9321   9.0152   9.0892   9.1406   9.1872   9.2540
     9.2603   9.3029

          k = 0.2500-1.0472 0.0000 ( 71492 PWs)   bands (ev):

   -41.3616 -38.8524 -38.0516 -35.6857 -22.8956 -22.8126 -22.6724 -22.6063
   -22.4563 -22.4367 -22.3769 -22.3518 -21.6148 -21.3805 -21.3280 -20.0165
   -19.9066 -19.8489 -18.7136 -18.3814 -18.2519 -17.1182 -16.9112 -16.8304
   -15.7964 -15.5507 -15.4795 -15.1476 -14.8560 -14.7258 -14.6233 -14.6099
   -14.5315 -14.5029 -14.4868 -14.3717 -14.3562 -14.3117 -14.2535 -14.1976
   -14.1689 -14.1583 -14.0975 -14.0212 -14.0053 -13.9989 -13.9155 -13.9128
   -13.9024 -13.8826 -13.8726 -13.8663 -13.8274 -13.7429  -8.8934  -8.7074
    -8.5603  -8.4938  -8.4499  -8.4300  -8.4112  -8.3038  -8.2390  -8.2079
    -8.1052  -8.1031  -8.0470  -7.9919  -7.9361  -7.8963  -7.8719  -7.8713
    -7.7387  -7.7365  -7.7055  -7.6775  -7.5247  -7.4486  -4.6493  -4.0620
    -3.9070  -3.6286  -3.4596  -3.4122  -3.3326  -3.3094  -3.1604  -3.1066
    -3.0607  -3.0112  -2.9940  -2.9847  -2.9741  -2.8619  -2.5496  -2.3954
    -2.3620  -2.3598  -2.3420  -2.3191  -2.2165  -2.2063  -2.1731  -2.1514
    -2.1055  -2.0761  -2.0253  -1.9095  -1.7775  -1.7551  -1.7353  -1.7033
    -1.6539  -1.6044  -1.6012  -1.5245  -1.5128  -1.4605  -1.4221  -1.2775
    -1.1860  -1.1333  -1.1173  -1.0850  -1.0820  -1.0683  -1.0558  -1.0142
    -1.0053  -0.9556  -0.9014  -0.8895  -0.8371  -0.8222  -0.8137  -0.8130
    -0.8023  -0.7599  -0.7394  -0.7290  -0.7009  -0.6795  -0.6675  -0.6560
    -0.5876  -0.5775  -0.4341  -0.2099  -0.1733  -0.1579  -0.1016   0.0125
     0.0737   0.1748   0.2024   0.2462   0.3584   0.3700   0.3759   0.3905
     0.4651   0.5051   0.5361   0.5551   0.6968   0.7202   0.7710   0.7992
     0.9480   1.0052   1.0158   1.0505   1.0512   1.0774   1.0905   1.1001
     1.1719   1.1864   1.2431   1.2562   1.2671   1.2798   1.2955   1.4094
     1.4137   1.4296   1.4355   1.4488   1.4945   1.4956   1.5446   1.5561
     1.5881   1.6025   1.6541   1.6636   1.6822   1.7768   1.7798   1.8119
     1.8258   1.8795   1.9141   1.9381   1.9612   1.9832   2.0224   2.0406
     2.0418   2.0724   2.1602   2.2040   2.2153   2.2255   2.2376   2.2433
     2.2538   2.2564   2.4179   2.4484   2.4658   2.5007   2.5282   2.6151
     2.6313   2.6314   2.6584   2.7261   2.8073   2.9187   2.9622   3.0416
     3.5254   3.6592   3.9617   4.0360   4.2356   4.3880   4.4768   4.6672
     5.0263   5.1713   5.2398   5.4138   5.5808   5.6852   6.1340   6.2503
     6.6402   6.7622   7.0487   7.1423   7.1982   7.5108   7.6235   7.7452
     7.9366   7.9661   8.0178   8.1843   8.2502   8.3660   8.8251   8.8397
     8.9398   9.0234   9.1382   9.2262   9.2562   9.3152   9.3526   9.3650
     9.3885   9.4366

          k = 0.3750 0.0000 0.0000 ( 71576 PWs)   bands (ev):

   -41.3758 -38.8617 -38.0700 -35.6973 -23.0448 -22.9628 -22.8220 -22.7660
   -22.6077 -22.5873 -22.5383 -22.5002 -21.4288 -21.4041 -21.2857 -19.9252
   -19.9078 -19.8340 -18.5409 -18.4219 -18.0732 -17.0624 -16.9780 -16.7270
   -16.1784 -15.8681 -15.4394 -15.2592 -14.9805 -14.9482 -14.9320 -14.8726
   -14.7982 -14.7579 -14.7194 -14.6860 -14.6228 -14.5448 -14.5180 -14.4159
   -14.2515 -14.1103 -14.0498 -14.0419 -14.0353 -14.0153 -14.0067 -14.0026
   -13.9581 -13.8852 -13.7666 -13.6610 -13.6586 -13.4764  -8.4166  -8.3398
    -8.1066  -8.0044  -7.9768  -7.9220  -7.8897  -7.8792  -7.8314  -7.8197
    -7.7966  -7.7873  -7.7266  -7.7263  -7.7018  -7.6074  -7.6037  -7.5386
    -7.5140  -7.4850  -7.4554  -7.4457  -7.3908  -7.3467  -3.4250  -2.9606
    -2.9121  -2.7351  -2.5961  -2.4852  -2.4607  -2.3724  -2.3606  -2.2883
    -2.2260  -2.1734  -2.1574  -2.0946  -2.0615  -2.0409  -2.0058  -1.9258
    -1.8631  -1.7524  -1.7492  -1.7374  -1.5907  -1.5457  -1.5326  -1.5110
    -1.4653  -1.3580  -1.2852  -1.2701  -1.2112  -1.0913  -1.0773  -1.0345
    -1.0284  -0.9936  -0.9881  -0.9549  -0.9513  -0.9407  -0.9402  -0.9364
    -0.8833  -0.8695  -0.8569  -0.7913  -0.7471  -0.7322  -0.7057  -0.6894
    -0.5689  -0.5673  -0.5595  -0.5169  -0.4756  -0.4755  -0.4554  -0.3765
    -0.3708  -0.3361  -0.2758  -0.2650  -0.2566  -0.2293  -0.2140  -0.2120
    -0.1619  -0.1038  -0.0579  -0.0224  -0.0103   0.0193   0.0269   0.0366
     0.0533   0.0548   0.1839   0.1867   0.2024   0.2439   0.2523   0.2576
     0.2667   0.3006   0.3423   0.3514   0.3617   0.3826   0.4276   0.4334
     0.4362   0.4863   0.4908   0.4937   0.4959   0.5654   0.5715   0.5825
     0.6070   0.6591   0.6951   0.7117   0.7170   0.8133   0.8450   0.8617
     0.8827   0.9316   0.9422   0.9618   0.9886   1.0402   1.1268   1.1401
     1.1674   1.1872   1.2409   1.2809   1.3089   1.3563   1.3600   1.3765
     1.3974   1.4690   1.4707   1.5084   1.5295   1.5505   1.5854   1.6127
     1.6541   1.6884   1.6935   1.7275   1.7296   1.7828   1.8160   1.8264
     1.8498   1.8979   1.9321   1.9424   1.9807   1.9867   2.1413   2.1566
     2.1766   2.2399   2.2822   2.2942   2.3273   2.3894   2.4235   2.4687
     2.5141   2.6082   2.6720   2.7693   2.8112   2.9247   3.0705   3.5241
     4.6990   4.8459   5.2615   5.3770   5.6332   5.6844   5.8408   5.9696
     6.1929   6.2435   6.3627   6.4780   6.4931   6.7337   6.7409   7.0715
     7.1142   7.2090   7.3176   7.3334   7.3804   7.7021   7.8356   7.9160
     8.0065   8.1064   8.1638   8.1649   8.2844   8.4126   8.4713   8.5690
     8.6464   8.8618

          k = 0.3750 0.2618 0.0000 ( 71552 PWs)   bands (ev):

   -41.3737 -38.8603 -38.0673 -35.6956 -23.0225 -22.9426 -22.7992 -22.7450
   -22.5854 -22.5641 -22.5173 -22.4800 -21.4313 -21.4004 -21.3186 -19.9229
   -19.9087 -19.8518 -18.5024 -18.4149 -18.1841 -17.0321 -16.9705 -16.7926
   -16.1323 -15.8249 -15.4392 -15.1562 -14.9811 -14.8985 -14.8820 -14.8243
   -14.7625 -14.6947 -14.6913 -14.6632 -14.5919 -14.5219 -14.4786 -14.3665
   -14.2119 -14.1159 -14.1061 -14.0307 -14.0256 -14.0122 -13.9977 -13.9862
   -13.9833 -13.9113 -13.7832 -13.6979 -13.6734 -13.5002  -8.4221  -8.3337
    -8.1527  -8.1228  -8.1068  -8.0515  -7.9993  -7.9295  -7.9148  -7.8514
    -7.8391  -7.8150  -7.8060  -7.7883  -7.7283  -7.6945  -7.6700  -7.6596
    -7.6228  -7.5916  -7.4100  -7.3825  -7.3696  -7.3451  -3.5265  -3.2272
    -2.8279  -2.7856  -2.7031  -2.6391  -2.4747  -2.4002  -2.3994  -2.3346
    -2.2093  -2.1989  -2.1818  -2.1568  -2.1411  -2.0551  -2.0434  -2.0079
    -1.9998  -1.9252  -1.9004  -1.8746  -1.8608  -1.7968  -1.6561  -1.6419
    -1.6198  -1.5765  -1.5168  -1.4181  -1.3912  -1.3848  -1.3783  -1.3669
    -1.3326  -1.3167  -1.2088  -1.1502  -1.1110  -1.0656  -1.0524  -0.9977
    -0.9786  -0.9142  -0.8867  -0.8640  -0.8434  -0.7294  -0.7154  -0.7017
    -0.6685  -0.6610  -0.5837  -0.5433  -0.5349  -0.5055  -0.4296  -0.4186
    -0.3697  -0.3622  -0.2854  -0.2654  -0.2483  -0.1944  -0.1580  -0.1462
    -0.1033  -0.0790  -0.0647  -0.0630  -0.0328  -0.0061   0.0069   0.0195
     0.0589   0.0982   0.1306   0.1531   0.2041   0.2073   0.2108   0.2179
     0.2910   0.3243   0.3527   0.3739   0.3844   0.3914   0.4042   0.4149
     0.4338   0.4416   0.4756   0.4853   0.5330   0.5465   0.5611   0.5806
     0.6364   0.6735   0.7354   0.8416   0.9306   0.9598   1.0041   1.0083
     1.0475   1.0624   1.0737   1.0778   1.1157   1.1306   1.1523   1.1645
     1.2283   1.2567   1.2616   1.2887   1.3303   1.3521   1.3562   1.3790
     1.4819   1.4908   1.5234   1.5358   1.5667   1.5942   1.5974   1.6179
     1.6437   1.6552   1.6921   1.6990   1.7188   1.7368   1.7669   1.8050
     1.8269   1.9048   1.9252   2.0155   2.0461   2.1805   2.2083   2.2300
     2.2825   2.5112   2.5322   2.7204   2.7716   2.8536   2.8962   2.9143
     2.9440   2.9557   2.9763   2.9910   3.1029   3.1400   3.2113   3.5740
     4.7708   4.9052   5.1249   5.4756   5.8958   5.9342   5.9842   6.0452
     6.3245   6.3977   6.4498   6.4835   6.5757   6.6964   6.8235   7.0928
     7.2850   7.3201   7.4361   7.6186   7.6434   7.9088   7.9410   8.0660
     8.1613   8.2104   8.2967   8.4189   8.5377   8.5597   8.6113   8.6544
     8.7230   8.8656

          k = 0.3750 0.5236 0.0000 ( 71469 PWs)   bands (ev):

   -41.3687 -38.8571 -38.0608 -35.6915 -22.9678 -22.8930 -22.7431 -22.6933
   -22.5305 -22.5069 -22.4657 -22.4304 -21.4843 -21.3915 -21.3481 -19.9407
   -19.9172 -19.8641 -18.4240 -18.4033 -18.3979 -16.9576 -16.9536 -16.9352
   -16.0126 -15.7113 -15.4514 -15.0227 -14.9311 -14.7861 -14.7213 -14.6871
   -14.6773 -14.6538 -14.6452 -14.5416 -14.5007 -14.4846 -14.3528 -14.2589
   -14.2369 -14.1727 -14.1234 -14.0313 -13.9989 -13.9899 -13.9739 -13.9731
   -13.9656 -13.9456 -13.8360 -13.7886 -13.7096 -13.5698  -8.5213  -8.4043
    -8.3456  -8.3435  -8.2745  -8.2060  -8.1318  -8.0736  -8.0544  -8.0004
    -7.9951  -7.9871  -7.9392  -7.9020  -7.8026  -7.8004  -7.7500  -7.7262
    -7.7034  -7.6498  -7.5899  -7.5605  -7.4396  -7.3883  -3.9065  -3.5816
    -3.2374  -2.9440  -2.8898  -2.8831  -2.7307  -2.6823  -2.6116  -2.5975
    -2.5620  -2.4362  -2.4028  -2.3905  -2.2842  -2.2553  -2.2114  -2.1981
    -2.1725  -2.1704  -2.1515  -2.1380  -2.1221  -2.0832  -2.0578  -2.0375
    -2.0097  -1.9996  -1.9674  -1.8578  -1.7452  -1.6748  -1.5896  -1.5568
    -1.5357  -1.5062  -1.4679  -1.4120  -1.3137  -1.2065  -1.1816  -1.0984
    -1.0953  -1.0668  -1.0345  -0.9934  -0.9489  -0.9262  -0.8855  -0.8480
    -0.7874  -0.7445  -0.7090  -0.6965  -0.6615  -0.6524  -0.6096  -0.5661
    -0.5222  -0.4828  -0.4627  -0.4537  -0.4315  -0.4196  -0.4120  -0.3902
    -0.3673  -0.3068  -0.2804  -0.2377  -0.1576  -0.1473  -0.0926  -0.0620
     0.0313   0.0374   0.0561   0.1671   0.1983   0.2496   0.3281   0.3334
     0.4164   0.4216   0.4467   0.4973   0.5226   0.5343   0.5371   0.6168
     0.7050   0.7241   0.7373   0.7590   0.8292   0.8577   0.9079   0.9296
     0.9908   1.0181   1.0307   1.0388   1.0809   1.0901   1.0959   1.1280
     1.1338   1.1394   1.1881   1.2521   1.3136   1.3492   1.3806   1.3871
     1.4252   1.4346   1.4708   1.5008   1.5154   1.5317   1.5446   1.5672
     1.5793   1.5814   1.5979   1.6088   1.6322   1.6477   1.6671   1.6997
     1.7253   1.7413   1.7878   1.8317   1.9019   1.9202   1.9216   2.0104
     2.0343   2.0378   2.0473   2.0848   2.1324   2.1478   2.2863   2.3068
     2.6178   2.9009   3.0541   3.0996   3.1018   3.1632   3.1815   3.1899
     3.2978   3.3649   3.5240   3.5533   3.6177   3.6783   3.7058   3.8498
     4.8193   5.0240   5.1254   5.5282   5.9681   6.0601   6.2360   6.5808
     6.6284   6.6822   6.6945   6.7769   6.7789   6.9306   7.1323   7.1368
     7.2426   7.3412   8.0949   8.1870   8.2492   8.2958   8.3237   8.3725
     8.4683   8.4733   8.5863   8.7584   8.8520   8.9037   8.9470   9.0391
     9.0518   9.1106

          k = 0.3750 0.7854 0.0000 ( 71522 PWs)   bands (ev):

   -41.3637 -38.8538 -38.0543 -35.6874 -22.9116 -22.8421 -22.6856 -22.6402
   -22.4742 -22.4481 -22.4129 -22.3795 -21.5752 -21.3826 -21.3361 -19.9936
   -19.9115 -19.8542 -18.6330 -18.3810 -18.2977 -17.0676 -16.9387 -16.8718
   -15.8691 -15.5745 -15.4914 -15.1014 -14.7869 -14.6821 -14.6641 -14.6207
   -14.5912 -14.5184 -14.5020 -14.4970 -14.4557 -14.3513 -14.3068 -14.2406
   -14.1586 -14.1085 -14.0881 -14.0820 -14.0487 -14.0251 -13.9392 -13.9249
   -13.9127 -13.9042 -13.8845 -13.8458 -13.7714 -13.6784  -8.7192  -8.5402
    -8.4365  -8.4187  -8.3282  -8.3054  -8.2794  -8.2678  -8.2191  -8.1152
    -8.0576  -8.0301  -8.0222  -8.0007  -7.9758  -7.9063  -7.8946  -7.8267
    -7.8010  -7.7223  -7.7186  -7.6968  -7.5903  -7.5161  -4.3306  -3.8939
    -3.7221  -3.3721  -3.3187  -3.2087  -3.1076  -3.0538  -3.0399  -2.9189
    -2.8723  -2.8161  -2.7909  -2.7687  -2.7641  -2.7556  -2.6351  -2.4535
    -2.3167  -2.2869  -2.2345  -2.2331  -2.2074  -2.1592  -2.1518  -2.0998
    -2.0737  -1.9953  -1.9664  -1.9539  -1.9272  -1.7765  -1.7251  -1.6619
    -1.6252  -1.6008  -1.5631  -1.5243  -1.4841  -1.3937  -1.3883  -1.3017
    -1.2829  -1.1293  -1.1172  -1.0791  -1.0600  -1.0505  -1.0078  -0.9661
    -0.9491  -0.8870  -0.8741  -0.8491  -0.7972  -0.7742  -0.7483  -0.7241
    -0.7011  -0.6656  -0.6316  -0.6239  -0.6149  -0.6018  -0.5645  -0.5504
    -0.5145  -0.4649  -0.4519  -0.2847  -0.2137  -0.2095  -0.0828  -0.0444
     0.0439   0.0962   0.2285   0.2503   0.3136   0.3693   0.3941   0.4046
     0.4957   0.5167   0.5468   0.5939   0.6234   0.6329   0.7118   0.8301
     0.8646   0.8940   0.9062   0.9487   0.9958   1.0324   1.0840   1.1080
     1.1238   1.1342   1.1641   1.1686   1.2566   1.2717   1.2984   1.3615
     1.3753   1.3874   1.4150   1.4203   1.4687   1.4910   1.5125   1.5205
     1.5494   1.5533   1.5830   1.6313   1.6357   1.6776   1.6831   1.7139
     1.7207   1.7583   1.7862   1.7958   1.8164   1.8256   1.8422   1.8684
     1.8835   1.9042   1.9821   2.0018   2.0118   2.0148   2.0746   2.0791
     2.1820   2.3427   2.3498   2.3786   2.3868   2.4288   2.4608   2.6209
     2.7135   2.8851   2.9528   2.9911   3.0318   3.0680   3.2971   3.3507
     3.4644   3.6202   3.7011   3.8899   3.9604   4.0494   4.0936   4.2299
     4.8987   5.1321   5.3001   5.4626   5.6762   5.9457   6.4766   6.5559
     6.6838   6.7082   6.9642   7.0108   7.0405   7.1231   7.2098   7.3505
     7.5931   7.6728   8.0660   8.1637   8.6446   8.6621   8.7356   8.7641
     8.8108   8.8792   8.9188   9.0195   9.0531   9.2281   9.2440   9.3156
     9.3521   9.3887

          k = 0.3750-1.0472 0.0000 ( 71526 PWs)   bands (ev):

   -41.3616 -38.8524 -38.0516 -35.6857 -22.8879 -22.8206 -22.6613 -22.6177
   -22.4504 -22.4233 -22.3906 -22.3580 -21.6148 -21.3789 -21.3281 -20.0165
   -19.9092 -19.8488 -18.7135 -18.3739 -18.2507 -17.1182 -16.9326 -16.8353
   -15.7911 -15.5366 -15.4917 -15.1546 -14.8075 -14.6782 -14.6622 -14.5581
   -14.5451 -14.5246 -14.4430 -14.3688 -14.3571 -14.3103 -14.2402 -14.2373
   -14.2237 -14.1424 -14.1245 -14.0380 -14.0155 -14.0005 -13.9129 -13.9058
   -13.8955 -13.8819 -13.8766 -13.8490 -13.8439 -13.7568  -8.7700  -8.5760
    -8.4389  -8.4330  -8.4153  -8.3632  -8.3260  -8.2731  -8.2479  -8.2413
[...]
    -1.6281  -1.5632  -1.5526  -1.5253  -1.4044  -1.3889  -1.3870  -1.3730
    -1.3729  -1.2967  -1.2347  -1.0931  -1.0569  -1.0434  -0.9927  -0.9842
    -0.9609  -0.9596  -0.9101  -0.8990  -0.8702  -0.8125  -0.7581  -0.7118
    -0.6656  -0.6400  -0.5842  -0.5151  -0.4915  -0.4734  -0.4521  -0.4434
    -0.4398  -0.4116  -0.3260  -0.2713  -0.2219  -0.1812  -0.1724  -0.1504
    -0.0967  -0.0883  -0.0741  -0.0671  -0.0547  -0.0230   0.0163   0.0239
     0.0730   0.0940   0.1284   0.1468   0.2046   0.2082   0.2171   0.2198
     0.2884   0.3640   0.3670   0.3790   0.4016   0.4112   0.4358   0.4362
     0.4366   0.4474   0.4787   0.4935   0.5099   0.5193   0.5653   0.5816
     0.6101   0.6734   0.7336   0.8308   0.9365   0.9670   0.9762   1.0212
     1.0474   1.0583   1.0749   1.0885   1.0994   1.1273   1.1528   1.1682
     1.2400   1.2544   1.2818   1.3287   1.3510   1.3655   1.3684   1.4365
     1.4389   1.4864   1.5450   1.5563   1.5632   1.5798   1.5823   1.5903
     1.5917   1.6092   1.6533   1.6651   1.7007   1.7219   1.7942   1.7963
     1.8628   1.8733   1.9577   2.0264   2.0894   2.1425   2.1999   2.2584
     2.3659   2.4512   2.6100   2.7246   2.8376   2.8834   2.9175   2.9197
     2.9266   2.9466   3.0077   3.0313   3.0322   3.1568   3.2256   3.4914
     4.8059   4.9864   5.0759   5.4468   5.9025   6.0691   6.1387   6.1561
     6.1909   6.2116   6.3057   6.4909   6.6710   6.7275   6.8349   7.0091
     7.1446   7.3306   7.7162   7.7725   7.8081   7.9020   7.9195   7.9658
     7.9931   8.1675   8.2214   8.4185   8.5784   8.5880   8.6374   8.7354
     8.8572   8.8711

          k =-0.5000 0.5236 0.0000 ( 71498 PWs)   bands (ev):

   -41.3687 -38.8571 -38.0608 -35.6915 -22.9626 -22.8983 -22.7330 -22.7036
   -22.5267 -22.4893 -22.4836 -22.4344 -21.4843 -21.3909 -21.3482 -19.9407
   -19.9183 -19.8640 -18.4240 -18.4027 -18.3947 -16.9638 -16.9592 -16.9356
   -16.0027 -15.7278 -15.4451 -15.0210 -14.8749 -14.7971 -14.7091 -14.6981
   -14.6700 -14.6557 -14.6404 -14.5660 -14.5097 -14.4872 -14.3213 -14.2786
   -14.2607 -14.1858 -14.1182 -14.0242 -13.9981 -13.9885 -13.9758 -13.9724
   -13.9578 -13.9535 -13.8406 -13.7880 -13.6995 -13.5747  -8.4866  -8.4566
    -8.3649  -8.3095  -8.2804  -8.2747  -8.0966  -8.0713  -8.0539  -8.0360
    -8.0079  -7.9865  -7.9415  -7.9207  -7.8104  -7.7517  -7.7246  -7.7105
    -7.7017  -7.6996  -7.5025  -7.4995  -7.4882  -7.4125  -3.8232  -3.6523
    -3.1127  -3.0350  -2.8910  -2.7840  -2.7513  -2.7150  -2.6191  -2.5652
    -2.5218  -2.4678  -2.3536  -2.3135  -2.3065  -2.2167  -2.2014  -2.1939
    -2.1732  -2.1672  -2.1635  -2.1569  -2.1026  -2.0720  -2.0669  -2.0630
    -2.0523  -2.0371  -2.0295  -1.8623  -1.7471  -1.7305  -1.5897  -1.5360
    -1.5011  -1.4848  -1.4706  -1.4439  -1.3695  -1.2885  -1.2306  -1.1482
    -1.1357  -1.0448  -0.9974  -0.9774  -0.9526  -0.9234  -0.8871  -0.8727
    -0.8290  -0.7850  -0.6987  -0.6971  -0.6814  -0.6629  -0.5734  -0.5585
    -0.5569  -0.4774  -0.4496  -0.4371  -0.4284  -0.4257  -0.4192  -0.3616
    -0.3221  -0.3140  -0.2913  -0.2527  -0.2094  -0.1366  -0.1295  -0.0474
    -0.0102   0.0356   0.0390   0.1533   0.2133   0.2407   0.3721   0.3744
     0.3859   0.4665   0.4819   0.4827   0.5038   0.6073   0.6143   0.6200
     0.6210   0.7103   0.7248   0.7465   0.8499   0.8509   0.9010   0.9599
     0.9998   1.0043   1.0118   1.0369   1.0644   1.0680   1.0866   1.0869
     1.1218   1.1224   1.1705   1.2489   1.3297   1.3741   1.3796   1.3931
     1.4541   1.4733   1.4951   1.5002   1.5030   1.5413   1.5433   1.5516
     1.5702   1.5861   1.6070   1.6183   1.6274   1.6586   1.6719   1.7097
     1.7441   1.7658   1.7759   1.8435   1.8591   1.9237   1.9643   1.9750
     2.0335   2.0524   2.0644   2.1110   2.1401   2.1614   2.1623   2.3320
     2.8877   2.9647   3.0663   3.0969   3.1554   3.1583   3.2437   3.2956
     3.3185   3.3932   3.4794   3.5238   3.5719   3.6348   3.6624   3.6781
     4.8903   4.9917   5.1334   5.5181   5.9929   6.0615   6.2338   6.5760
     6.6544   6.6826   6.7366   6.7579   6.7821   6.9111   7.0647   7.1963
     7.2437   7.3311   8.0532   8.1963   8.3112   8.3302   8.3579   8.4230
     8.4427   8.5611   8.6947   8.6974   8.7967   8.9411   9.0496   9.0624
     9.0907   9.1331

          k =-0.5000 0.7854 0.0000 ( 71502 PWs)   bands (ev):

   -41.3637 -38.8538 -38.0543 -35.6874 -22.9074 -22.8465 -22.6777 -22.6482
   -22.4711 -22.4335 -22.4277 -22.3827 -21.5752 -21.3820 -21.3362 -19.9936
   -19.9126 -19.8541 -18.6329 -18.3778 -18.2972 -17.0676 -16.9478 -16.8740
   -15.8638 -15.5814 -15.4896 -15.1012 -14.7455 -14.7188 -14.6307 -14.6246
   -14.5743 -14.5053 -14.5043 -14.4921 -14.4468 -14.3993 -14.2947 -14.2780
   -14.1344 -14.1075 -14.0793 -14.0773 -14.0601 -14.0508 -13.9347 -13.9293
   -13.9105 -13.9076 -13.8817 -13.8489 -13.7700 -13.6782  -8.6426  -8.5346
    -8.4362  -8.4144  -8.3976  -8.2680  -8.2205  -8.1971  -8.1918  -8.1552
    -8.1349  -8.0429  -8.0334  -8.0186  -7.9397  -7.9391  -7.9023  -7.7616
    -7.7581  -7.7464  -7.7086  -7.6952  -7.6931  -7.5956  -4.2394  -3.9719
    -3.6242  -3.4444  -3.2298  -3.2236  -3.1076  -3.0961  -2.9740  -2.9549
    -2.8495  -2.8039  -2.8030  -2.7645  -2.7585  -2.7519  -2.6116  -2.4191
    -2.3738  -2.2936  -2.2482  -2.2360  -2.2075  -2.1546  -2.1241  -2.0865
    -2.0689  -2.0326  -1.9565  -1.9210  -1.8341  -1.7939  -1.7560  -1.7058
    -1.6835  -1.6621  -1.5954  -1.5532  -1.5334  -1.4331  -1.3393  -1.2996
    -1.2865  -1.1349  -1.1290  -1.1210  -1.1198  -1.0937  -0.9925  -0.9824
    -0.9474  -0.8827  -0.8323  -0.8244  -0.8221  -0.7753  -0.7583  -0.7294
    -0.7120  -0.6678  -0.6241  -0.6240  -0.6038  -0.5956  -0.5198  -0.5114
    -0.4880  -0.4461  -0.3754  -0.3208  -0.2909  -0.1986  -0.1761   0.0144
     0.0272   0.1389   0.1558   0.2596   0.2821   0.3150   0.4491   0.4530
     0.4729   0.5364   0.5893   0.6011   0.6723   0.6999   0.7655   0.7905
     0.8280   0.8309   0.8705   0.9901   1.0177   1.0337   1.0701   1.1096
     1.1339   1.1463   1.1621   1.1705   1.1783   1.2991   1.3253   1.3483
     1.3735   1.3971   1.4099   1.4476   1.4784   1.4876   1.5385   1.5416
     1.5693   1.5802   1.6085   1.6185   1.6305   1.6366   1.6384   1.6856
     1.7179   1.7349   1.7655   1.8004   1.8141   1.8190   1.8446   1.8582
     1.8821   1.9101   1.9673   1.9934   2.0128   2.0228   2.0533   2.0808
     2.1449   2.3799   2.3865   2.3893   2.3914   2.4112   2.4429   2.5402
     2.9331   2.9582   3.0225   3.0376   3.1100   3.1512   3.4592   3.4880
     3.5306   3.6342   3.6753   3.7140   3.8805   3.8844   3.9458   4.0911
     4.9173   5.1486   5.2965   5.4666   5.6692   6.0546   6.4707   6.6024
     6.8022   6.8437   6.9154   6.9492   6.9846   7.0085   7.0837   7.3194
     7.5849   7.6042   8.0912   8.1452   8.6688   8.7215   8.7349   8.7609
     8.8048   8.8799   8.9218   8.9662   9.1052   9.2145   9.2331   9.3187
     9.3287   9.5617

          k =-0.5000-1.0472 0.0000 ( 71492 PWs)   bands (ev):

   -41.3616 -38.8524 -38.0516 -35.6857 -22.8841 -22.8246 -22.6544 -22.6248
   -22.4477 -22.4099 -22.4041 -22.3609 -21.6148 -21.3783 -21.3282 -20.0165
   -19.9103 -19.8487 -18.7135 -18.3708 -18.2502 -17.1182 -16.9414 -16.8372
   -15.7888 -15.5274 -15.5001 -15.1576 -14.7684 -14.7026 -14.6203 -14.6191
   -14.5440 -14.4698 -14.4224 -14.3689 -14.3577 -14.3096 -14.2808 -14.2645
   -14.1910 -14.1776 -14.1022 -14.0639 -14.0123 -14.0020 -13.9098 -13.9091
   -13.8814 -13.8801 -13.8798 -13.8575 -13.8400 -13.7646  -8.6681  -8.5374
    -8.4396  -8.4223  -8.3889  -8.3163  -8.2407  -8.2210  -8.2146  -8.1935
    -8.1864  -8.1178  -8.1145  -8.0910  -8.0123  -8.0098  -7.9168  -7.8988
    -7.8875  -7.8721  -7.7195  -7.7099  -7.6953  -7.6861  -4.4096  -4.1009
    -3.8254  -3.6056  -3.4279  -3.4232  -3.3126  -3.2627  -3.1876  -3.1450
    -3.0367  -3.0361  -2.9980  -2.9863  -2.8492  -2.7485  -2.6458  -2.6105
    -2.3796  -2.2712  -2.2580  -2.2346  -2.2293  -2.1683  -2.1289  -2.0962
    -2.0558  -2.0107  -1.9730  -1.9391  -1.8982  -1.8582  -1.8130  -1.8014
    -1.7826  -1.6360  -1.5977  -1.5799  -1.5718  -1.4694  -1.4287  -1.4266
    -1.3729  -1.1722  -1.1685  -1.1555  -1.1503  -1.1403  -1.0958  -1.0765
    -0.9892  -0.9175  -0.9149  -0.9107  -0.8212  -0.8136  -0.8104  -0.7437
    -0.7417  -0.7139  -0.7010  -0.6778  -0.6704  -0.6411  -0.5470  -0.5408
    -0.5126  -0.4604  -0.3416  -0.3367  -0.3190  -0.2220  -0.1928   0.0323
     0.0426   0.1887   0.2095   0.2898   0.3124   0.3417   0.4612   0.4688
     0.5050   0.5503   0.5694   0.7055   0.7162   0.7960   0.8228   0.8838
     0.9128   0.9359   0.9471   1.0546   1.0893   1.1273   1.1437   1.1855
     1.1882   1.2240   1.2381   1.3070   1.3087   1.3126   1.3264   1.3419
     1.3633   1.3818   1.3895   1.3954   1.4067   1.4647   1.4675   1.5416
     1.5760   1.5993   1.6457   1.6641   1.7057   1.7230   1.7732   1.7841
     1.7931   1.8201   1.8534   1.8582   1.9059   1.9383   1.9612   2.0073
     2.0207   2.0320   2.0359   2.0807   2.1348   2.2127   2.2162   2.2360
     2.2361   2.4093   2.5413   2.5606   2.5696   2.5861   2.6129   2.7308
     2.7457   2.7508   2.8330   2.8464   3.1407   3.1767   3.4573   3.5048
     3.5842   3.6516   3.6836   3.7792   3.9073   3.9663   4.0362   4.2481
     5.0679   5.1817   5.3264   5.4538   5.4908   5.9969   6.6033   6.6039
     6.7441   6.7904   6.8578   6.9436   6.9457   7.0067   7.0657   7.6258
     7.8615   7.9555   8.1105   8.1249   8.2638   8.3087   8.8032   8.9429
     8.9563   9.1259   9.2304   9.4152   9.4449   9.4819   9.5012   9.5468
     9.5665   9.6288

     the Fermi energy is     2.7410 ev

!    total energy              =   -3711.20770651 Ry
     Harris-Foulkes estimate   =   -3711.20770651 Ry
     estimated scf accuracy    <          3.9E-09 Ry

     The total energy is the sum of the following terms:

     one-electron contribution =  -61374.00807249 Ry
     hartree contribution      =   30990.23178704 Ry
     xc contribution           =   -1263.44683602 Ry
     ewald contribution        =   27936.02834994 Ry
     smearing contrib. (-TS)   =      -0.01293498 Ry

     convergence has been achieved in  36 iterations

     negative rho (up, down):  9.109E-02 0.000E+00

     Forces acting on atoms (cartesian axes, Ry/au):

     atom    1 type  4   force =    -0.00000781    0.00000000   -0.00013197
     atom    2 type  4   force =     0.00000781    0.00000000   -0.00013197
     atom    3 type  3   force =    -0.00001541    0.00000000   -0.00006798
     atom    4 type  3   force =     0.00001541    0.00000000   -0.00006798
     atom    5 type  4   force =    -0.00000239    0.00000000   -0.00005206
     atom    6 type  4   force =     0.00000239    0.00000000   -0.00005206
     atom    7 type  1   force =     0.00000000    0.00000000   -0.00012133
     atom    8 type  1   force =     0.00000000    0.00000000   -0.00011005
     atom    9 type  3   force =     0.00002757    0.00000000   -0.00003572
     atom   10 type  3   force =    -0.00002757    0.00000000   -0.00003572
     atom   11 type  4   force =     0.00000000    0.00000000    0.00014109
     atom   12 type  4   force =     0.00000042    0.00000000    0.00007715
     atom   13 type  4   force =    -0.00000042    0.00000000    0.00007715
     atom   14 type  4   force =     0.00000000    0.00000000    0.00020425
     atom   15 type  2   force =     0.00000000    0.00000000   -0.00054966
     atom   16 type  5   force =     0.00000000    0.00000000   -0.00085005
     atom   17 type  4   force =     0.00010686    0.00000000    0.00089003
     atom   18 type  4   force =    -0.00010686    0.00000000    0.00089003
     atom   19 type  4   force =     0.00000000    0.00000000    0.00099350
     atom   20 type  4   force =     0.00000000    0.00000000    0.00126679
     atom   21 type  3   force =    -0.00004290    0.00000000   -0.00130104
     atom   22 type  3   force =     0.00004290    0.00000000   -0.00130104
     atom   23 type  1   force =     0.00000000    0.00000000   -0.00237730
     atom   24 type  1   force =     0.00000000    0.00000000   -0.00251384
     atom   25 type  4   force =    -0.00022835    0.00000000    0.00414254
     atom   26 type  4   force =     0.00022835    0.00000000    0.00414254
     atom   27 type  4   force =    -0.00033371    0.00000000    0.00504524
     atom   28 type  4   force =     0.00033371    0.00000000    0.00504524
     atom   29 type  3   force =     0.00201185    0.00000000   -0.00994053
     atom   30 type  3   force =    -0.00201185    0.00000000   -0.00994053
     atom   31 type  4   force =    -0.00014652    0.00000000    0.01497927
     atom   32 type  4   force =     0.00014652    0.00000000    0.01497927
     atom   33 type  1   force =     0.00000000    0.00000000   -0.02564749
     atom   34 type  1   force =     0.00000000    0.00000000   -0.01876092
     atom   35 type  3   force =    -0.00241963    0.00000000    0.00705528
     atom   36 type  3   force =     0.00241963    0.00000000    0.00705528
     atom   37 type  4   force =     0.00000000    0.00000000    0.05867073
     atom   38 type  4   force =     0.00000000    0.00000000    0.08401909
     atom   39 type  4   force =     0.02217544    0.00000000    0.07325879
     atom   40 type  4   force =    -0.02217544    0.00000000    0.07325879
     atom   41 type  5   force =     0.00000000    0.00000000   -0.11682468
     atom   42 type  2   force =     0.00000000    0.00000000   -0.06101230
     atom   43 type  4   force =     0.00000000    0.00000000   -0.00349750
     atom   44 type  4   force =    -0.00105292    0.00000000   -0.00592893
     atom   45 type  4   force =     0.00105292    0.00000000   -0.00592893
     atom   46 type  4   force =     0.00000000    0.00000000    0.00650173
     atom   47 type  3   force =     0.00089850    0.00000000   -0.02082535
     atom   48 type  3   force =    -0.00089850    0.00000000   -0.02082535
     atom   49 type  1   force =     0.00000000    0.00000000   -0.02229358
     atom   50 type  1   force =     0.00000000    0.00000000   -0.02790188
     atom   51 type  4   force =     0.00077495    0.00000000   -0.00212056
     atom   52 type  4   force =    -0.00077495    0.00000000   -0.00212056
     atom   53 type  3   force =    -0.00017464    0.00000000    0.00052089
     atom   54 type  3   force =     0.00017464    0.00000000    0.00052089
     atom   55 type  4   force =     0.00007277    0.00000000   -0.00023335
     atom   56 type  4   force =    -0.00007277    0.00000000   -0.00023335

     Total force =     0.209173     Total SCF correction =     0.000323


     Computing stress (Cartesian axis) and pressure


     negative rho (up, down):  9.109E-02 0.000E+00
          total   stress  (Ry/bohr**3)                   (kbar)     P=       -8.46
  -0.00000843   0.00000000   0.00000000           -1.24        0.00        0.00
   0.00000000   0.00001410   0.00000000            0.00        2.07        0.00
   0.00000000   0.00000000  -0.00017817            0.00        0.00      -26.21

 
     init_run     :     24.94s CPU     25.92s WALL (       1 calls)
     electrons    :   1784.58s CPU   1854.65s WALL (       1 calls)
     forces       :     11.15s CPU     11.72s WALL (       1 calls)
     stress       :    107.16s CPU    109.14s WALL (       1 calls)

     Called by init_run:
     wfcinit      :     20.28s CPU     20.60s WALL (       1 calls)
     potinit      :      1.03s CPU      1.05s WALL (       1 calls)
     hinit0       :      1.71s CPU      1.73s WALL (       1 calls)

     Called by electrons:
     c_bands      :   1483.83s CPU   1513.78s WALL (      36 calls)
     sum_band     :    224.22s CPU    246.77s WALL (      36 calls)
     v_of_rho     :      4.71s CPU      4.79s WALL (      37 calls)
     newd         :     37.32s CPU     55.02s WALL (      37 calls)
     mix_rho      :     34.95s CPU     35.27s WALL (      36 calls)

     Called by c_bands:
     init_us_2    :      8.96s CPU      9.04s WALL (    1875 calls)
     cegterg      :   1402.63s CPU   1431.29s WALL (     900 calls)

     Called by sum_band:
     sum_band:bec :      1.00s CPU      1.00s WALL (     900 calls)
     addusdens    :     35.10s CPU     55.44s WALL (      36 calls)

     Called by *egterg:
     h_psi        :    668.36s CPU    680.18s WALL (    4368 calls)
     s_psi        :    102.45s CPU    102.91s WALL (    4368 calls)
     g_psi        :      1.51s CPU      1.52s WALL (    3443 calls)
     cdiaghg      :    314.68s CPU    315.83s WALL (    4343 calls)

     Called by h_psi:
     h_psi:calbec :    114.67s CPU    115.17s WALL (    4368 calls)
     vloc_psi     :    447.85s CPU    454.13s WALL (    4368 calls)
     add_vuspsi   :    103.38s CPU    103.88s WALL (    4368 calls)

     General routines
     calbec       :    203.51s CPU    204.30s WALL (    5393 calls)
     fft          :      4.48s CPU      4.51s WALL (     504 calls)
     ffts         :     19.37s CPU     19.54s WALL (   20998 calls)
     fftw         :    513.87s CPU    520.97s WALL ( 1273518 calls)
     interpolate  :      0.40s CPU      0.40s WALL (      37 calls)
 
     Parallel routines
     fft_scatt_xy :     61.80s CPU     62.61s WALL ( 1295020 calls)
     fft_scatt_yz :    330.36s CPU    334.86s WALL ( 1295020 calls)
 
     PWSCF        :  32m 8.91s CPU  33m22.60s WALL

 
   This run was terminated on:  10:38:23  28May2021            

=------------------------------------------------------------------------------=
   JOB DONE.
=------------------------------------------------------------------------------=
[1622212703.964007] [holy7c04410:87367:0]          mpool.c:43   UCX  WARN  object 0x2d55600 was not returned to mpool ucp_requests
[1622212703.987781] [holy7c04503:221687:0]          mpool.c:43   UCX  WARN  object 0x38db340 was not returned to mpool ucp_requests
[1622212703.987809] [holy7c04503:221687:0]          mpool.c:43   UCX  WARN  object 0x38db500 was not returned to mpool ucp_requests
[1622212703.972212] [holy7c04410:87366:0]          mpool.c:43   UCX  WARN  object 0x42760c0 was not returned to mpool ucp_requests
[1622212703.973138] [holy7c04410:87368:0]          mpool.c:43   UCX  WARN  object 0x2b39700 was not returned to mpool ucp_requests
[1622212703.973160] [holy7c04410:87368:0]          mpool.c:43   UCX  WARN  object 0x2b398c0 was not returned to mpool ucp_requests
[1622212703.979121] [holy7c04501:52631:0]          mpool.c:43   UCX  WARN  object 0x2849580 was not returned to mpool ucp_requests
[1622212703.990763] [holy7c04503:221695:0]          mpool.c:43   UCX  WARN  object 0x355b440 was not returned to mpool ucp_requests
[1622212703.994446] [holy7c04503:221689:0]          mpool.c:43   UCX  WARN  object 0x33738c0 was not returned to mpool ucp_requests
[1622212704.000186] [holy7c04503:221690:0]          mpool.c:43   UCX  WARN  object 0x3397180 was not returned to mpool ucp_requests
[1622212704.003042] [holy7c04503:221692:0]          mpool.c:43   UCX  WARN  object 0x412f9c0 was not returned to mpool ucp_requests
[1622212704.003063] [holy7c04503:221692:0]          mpool.c:43   UCX  WARN  object 0x412fb80 was not returned to mpool ucp_requests
[1622212704.003547] [holy7c04503:221694:0]          mpool.c:43   UCX  WARN  object 0x3ac5c00 was not returned to mpool ucp_requests
[1622212703.980008] [holy7c04501:52626:0]          mpool.c:43   UCX  WARN  object 0x32fda40 was not returned to mpool ucp_requests
[1622212703.979660] [holy7c04501:52625:0]          mpool.c:43   UCX  WARN  object 0x324e640 was not returned to mpool ucp_requests
[1622212703.979677] [holy7c04501:52625:0]          mpool.c:43   UCX  WARN  object 0x324e800 was not returned to mpool ucp_requests
[1622212703.980842] [holy7c04501:52630:0]          mpool.c:43   UCX  WARN  object 0x3cf2500 was not returned to mpool ucp_requests
[1622212703.979636] [holy7c04501:52627:0]          mpool.c:43   UCX  WARN  object 0x382b440 was not returned to mpool ucp_requests
[1622212703.979655] [holy7c04501:52627:0]          mpool.c:43   UCX  WARN  object 0x382bb40 was not returned to mpool ucp_requests
