
     Program PWSCF v.6.5 starts on 27May2021 at 23:35:46 

     This program is part of the open-source Quantum ESPRESSO suite
     for quantum simulation of materials; please cite
         "P. Giannozzi et al., J. Phys.:Condens. Matter 21 395502 (2009);
         "P. Giannozzi et al., J. Phys.:Condens. Matter 29 465901 (2017);
          URL http://www.quantum-espresso.org", 
     in publications or presentations arising from this work. More details at
     http://www.quantum-espresso.org/quote

     Parallel version (MPI), running on    32 processors

     MPI processes distributed on     9 nodes
     R & G space division:  proc/nbgrp/npool/nimage =      32
     Reading input from YCBCO50_212_CuO_cleave_0.75_sep.pwi
Warning: card &IONS ignored
Warning: card     ION_DYNAMICS = 'BFGS' ignored
Warning: card / ignored
Warning: card &CELL ignored
Warning: card     CELL_DYNAMICS = 'BFGS' ignored
Warning: card     PRESS_CONV_THR = 5 ignored
Warning: card / ignored

     Current dimensions of program PWSCF are:
     Max number of different atomic species (ntypx) = 10
     Max number of k-points (npk) =  40000
     Max angular momentum in pseudopotentials (lmaxx) =  3

     Subspace diagonalization in iterative solution of the eigenvalue problem:
     one sub-group per band group will be used
     scalapack distributed-memory algorithm (size of sub-group:  5*  5 procs)

     Message from routine setup:
     using ibrav=0 with symmetry is DISCOURAGED, use correct ibrav instead
 
     Parallelization info
     --------------------
     sticks:   dense  smooth     PW     G-vecs:    dense   smooth      PW
     Min         188      62     17                90372    17384    2591
     Max         189      63     18                90400    17429    2632
     Sum        6019    2003    565              2892413   557031   83745
 


     bravais-lattice index     =            0
     lattice parameter (alat)  =      14.8133  a.u.
     unit-cell volume          =    8865.7494 (a.u.)^3
     number of atoms/cell      =           56
     number of atomic types    =            5
     number of electrons       =       456.00
     number of Kohn-Sham states=          274
     kinetic-energy cutoff     =      60.0000  Ry
     charge density cutoff     =     720.0000  Ry
     convergence threshold     =      1.0E-08
     mixing beta               =       0.5000
     number of iterations used =           10  local-TF  mixing
     Exchange-correlation= SLA PW PBE PBE
                           (   1   4   3   4   0   0   0)

     celldm(1)=  14.813271  celldm(2)=   0.000000  celldm(3)=   0.000000
     celldm(4)=   0.000000  celldm(5)=   0.000000  celldm(6)=   0.000000

     crystal axes: (cart. coord. in units of alat)
               a(1) = (   1.000000   0.000000   0.000000 )  
               a(2) = (   0.000000   0.477453   0.000000 )  
               a(3) = (   0.000000   0.000000   5.712578 )  

     reciprocal axes: (cart. coord. in units 2 pi/alat)
               b(1) = (  1.000000  0.000000  0.000000 )  
               b(2) = (  0.000000  2.094448  0.000000 )  
               b(3) = (  0.000000  0.000000  0.175052 )  


     PseudoPot. # 1 for Ba read from file:
     ./pseudo/Ba.pbe-nsp-van.UPF
     MD5 check sum: 2b9c31dd849566dd297d80989662b7a0
     Pseudo is Ultrasoft + core correction, Zval = 10.0
     Generated by new atomic code, or converted to UPF format
     Using radial grid of  907 points,  6 beta functions with: 
                l(1) =   0
                l(2) =   0
                l(3) =   1
                l(4) =   1
                l(5) =   2
                l(6) =   2
     Q(r) pseudized with  6 coefficients,  rinner =    1.200   1.200   1.200
                                                       1.200   1.200

     PseudoPot. # 2 for Ca read from file:
     ./pseudo/Ca.pbe-nsp-van.UPF
     MD5 check sum: 6471098428ff4fa451746d08035ff179
     Pseudo is Ultrasoft + core correction, Zval = 10.0
     Generated by new atomic code, or converted to UPF format
     Using radial grid of  845 points,  6 beta functions with: 
                l(1) =   0
                l(2) =   0
                l(3) =   1
                l(4) =   1
                l(5) =   2
                l(6) =   2
     Q(r) pseudized with  6 coefficients,  rinner =    1.200   1.200   1.200
                                                       1.200   1.200

     PseudoPot. # 3 for Cu read from file:
     ./pseudo/Cu.pbe-n-van_ak.UPF
     MD5 check sum: 34e3282627ffb533726feb647e090d62
     Pseudo is Ultrasoft + core correction, Zval = 11.0
     Generated by new atomic code, or converted to UPF format
     Using radial grid of  867 points,  6 beta functions with: 
                l(1) =   0
                l(2) =   0
                l(3) =   1
                l(4) =   1
                l(5) =   2
                l(6) =   2
     Q(r) pseudized with  8 coefficients,  rinner =    1.400   1.400   1.400
                                                       1.400   1.400

     PseudoPot. # 4 for O  read from file:
     ./pseudo/O.pbe-van_ak.UPF
     MD5 check sum: 783ce7fe4c79b6a4916957118fed0856
     Pseudo is Ultrasoft, Zval =  6.0
     Generated by new atomic code, or converted to UPF format
     Using radial grid of  737 points,  4 beta functions with: 
                l(1) =   0
                l(2) =   0
                l(3) =   1
                l(4) =   1
     Q(r) pseudized with  8 coefficients,  rinner =    0.800   0.800   0.800


     PseudoPot. # 5 for Y  read from file:
     ./pseudo/Y.pbe-nsp-van.UPF
     MD5 check sum: 4412fed3ab108fed87a1b7d6a69a4a38
     Pseudo is Ultrasoft + core correction, Zval = 11.0
     Generated by new atomic code, or converted to UPF format
     Using radial grid of  885 points,  6 beta functions with: 
                l(1) =   0
                l(2) =   0
                l(3) =   1
                l(4) =   1
                l(5) =   2
                l(6) =   2
     Q(r) pseudized with  6 coefficients,  rinner =    1.200   1.200   1.200
                                                       1.200   1.200

     atomic species   valence    mass     pseudopotential
        Ba            10.00   137.32700     Ba( 1.00)
        Ca            10.00    40.07800     Ca( 1.00)
        Cu            11.00    63.54600     Cu( 1.00)
        O              6.00    15.99900     O ( 1.00)
        Y             11.00    88.90584     Y ( 1.00)

      4 Sym. Ops. (no inversion) found ( 2 have fractional translation)



   Cartesian axes

     site n.     atom                  positions (alat units)
         1           O   tau(   1) = (  -0.0008343   0.2387265  -0.0222443  )
         2           O   tau(   2) = (   0.5008340   0.2387265  -0.0222443  )
         3           Cu  tau(   3) = (   0.5017257   0.0000000   0.0109608  )
         4           Cu  tau(   4) = (  -0.0017260   0.0000000   0.0109608  )
         5           O   tau(   5) = (  -0.0028933   0.0000000   0.2506504  )
         6           O   tau(   6) = (   0.5028929   0.0000000   0.2506504  )
         7           Ba  tau(   7) = (   0.7499995   0.2387265   0.2749435  )
         8           Ba  tau(   8) = (   0.2499998   0.2387265   0.2755214  )
         9           Cu  tau(   9) = (   0.4980963   0.0000000   0.5208446  )
        10           Cu  tau(  10) = (   0.0019033   0.0000000   0.5208446  )
        11           O   tau(  11) = (   0.2499998   0.0000000   0.5341884  )
        12           O   tau(  12) = (   0.5083351   0.2387265   0.5569851  )
        13           O   tau(  13) = (  -0.0083354   0.2387265   0.5569851  )
        14           O   tau(  14) = (   0.7499995   0.0000000   0.5573831  )
        15           Ca  tau(  15) = (   0.2499998   0.2387265   0.7436937  )
        16           Y   tau(  16) = (   0.7499995   0.2387265   0.7469544  )
        17           O   tau(  17) = (  -0.0063798   0.2387265   0.9248530  )
        18           O   tau(  18) = (   0.5063794   0.2387265   0.9248530  )
        19           O   tau(  19) = (   0.7499995   0.0000000   0.9338544  )
        20           O   tau(  20) = (   0.2499998   0.0000000   0.9461329  )
        21           Cu  tau(  21) = (   0.0015717   0.0000000   0.9686860  )
        22           Cu  tau(  22) = (   0.4984280   0.0000000   0.9686860  )
        23           Ba  tau(  23) = (   0.2499998   0.2387265   1.2085224  )
        24           Ba  tau(  24) = (   0.7499995   0.2387265   1.2233294  )
        25           O   tau(  25) = (   0.0063772   0.0000000   1.2547537  )
        26           O   tau(  26) = (   0.4936224   0.0000000   1.2547537  )
        27           O   tau(  27) = (   0.5384045   0.2387265   1.4952521  )
        28           O   tau(  28) = (  -0.0384049   0.2387265   1.4952521  )
        29           Cu  tau(  29) = (   0.5006120   0.0000000   1.4952546  )
        30           Cu  tau(  30) = (  -0.0006123   0.0000000   1.4952546  )
        31           O   tau(  31) = (   0.4936212   0.0000000   1.8314304  )
        32           O   tau(  32) = (   0.0063785   0.0000000   1.8314304  )
        33           Ba  tau(  33) = (   0.7499995   0.2387265   1.8628598  )
        34           Ba  tau(  34) = (   0.2499998   0.2387265   1.8776694  )
        35           Cu  tau(  35) = (   0.4984280   0.0000000   2.1175006  )
        36           Cu  tau(  36) = (   0.0015717   0.0000000   2.1175006  )
        37           O   tau(  37) = (   0.2499998   0.0000000   2.1400588  )
        38           O   tau(  38) = (   0.7499995   0.0000000   2.1523284  )
        39           O   tau(  39) = (   0.5063781   0.2387265   2.1613336  )
        40           O   tau(  40) = (  -0.0063785   0.2387265   2.1613336  )
        41           Y   tau(  41) = (   0.7499995   0.2387265   2.3392271  )
        42           Ca  tau(  42) = (   0.2499998   0.2387265   2.3424967  )
        43           O   tau(  43) = (   0.7499995   0.0000000   2.5287946  )
        44           O   tau(  44) = (  -0.0083354   0.2387265   2.5291964  )
        45           O   tau(  45) = (   0.5083351   0.2387265   2.5291964  )
        46           O   tau(  46) = (   0.2499998   0.0000000   2.5519944  )
        47           Cu  tau(  47) = (   0.0019059   0.0000000   2.5653280  )
        48           Cu  tau(  48) = (   0.4980938   0.0000000   2.5653280  )
        49           Ba  tau(  49) = (   0.2499998   0.2387265   2.8106677  )
        50           Ba  tau(  50) = (   0.7499995   0.2387265   2.8112099  )
        51           O   tau(  51) = (  -0.0028895   0.0000000   2.8355170  )
        52           O   tau(  52) = (   0.5028891   0.0000000   2.8355170  )
        53           Cu  tau(  53) = (   0.5017844   0.0000000   3.0752016  )
        54           Cu  tau(  54) = (  -0.0017847   0.0000000   3.0752016  )
        55           O   tau(  55) = (   0.5008990   0.2387265   3.1084080  )
        56           O   tau(  56) = (  -0.0008994   0.2387265   3.1084080  )

     number of k points=    25  Gaussian smearing, width (Ry)=  0.0100
                       cart. coord. in units 2pi/alat
        k(    1) = (   0.0000000   0.0000000   0.0000000), wk =   0.0312500
        k(    2) = (   0.0000000   0.2618060   0.0000000), wk =   0.0625000
        k(    3) = (   0.0000000   0.5236121   0.0000000), wk =   0.0625000
        k(    4) = (   0.0000000   0.7854181   0.0000000), wk =   0.0625000
        k(    5) = (   0.0000000  -1.0472241   0.0000000), wk =   0.0312500
        k(    6) = (   0.1250000   0.0000000   0.0000000), wk =   0.0625000
        k(    7) = (   0.1250000   0.2618060   0.0000000), wk =   0.1250000
        k(    8) = (   0.1250000   0.5236121   0.0000000), wk =   0.1250000
        k(    9) = (   0.1250000   0.7854181   0.0000000), wk =   0.1250000
        k(   10) = (   0.1250000  -1.0472241   0.0000000), wk =   0.0625000
        k(   11) = (   0.2500000   0.0000000   0.0000000), wk =   0.0625000
        k(   12) = (   0.2500000   0.2618060   0.0000000), wk =   0.1250000
        k(   13) = (   0.2500000   0.5236121   0.0000000), wk =   0.1250000
        k(   14) = (   0.2500000   0.7854181   0.0000000), wk =   0.1250000
        k(   15) = (   0.2500000  -1.0472241   0.0000000), wk =   0.0625000
        k(   16) = (   0.3750000   0.0000000   0.0000000), wk =   0.0625000
        k(   17) = (   0.3750000   0.2618060   0.0000000), wk =   0.1250000
        k(   18) = (   0.3750000   0.5236121   0.0000000), wk =   0.1250000
        k(   19) = (   0.3750000   0.7854181   0.0000000), wk =   0.1250000
        k(   20) = (   0.3750000  -1.0472241   0.0000000), wk =   0.0625000
        k(   21) = (  -0.5000000   0.0000000   0.0000000), wk =   0.0312500
        k(   22) = (  -0.5000000   0.2618060   0.0000000), wk =   0.0625000
        k(   23) = (  -0.5000000   0.5236121   0.0000000), wk =   0.0625000
        k(   24) = (  -0.5000000   0.7854181   0.0000000), wk =   0.0625000
        k(   25) = (  -0.5000000  -1.0472241   0.0000000), wk =   0.0312500

     Dense  grid:  2892413 G-vectors     FFT dimensions: ( 128,  64, 729)

     Smooth grid:   557031 G-vectors     FFT dimensions: (  80,  36, 432)

     Estimated max dynamical RAM per process >     837.98 MB

     Estimated total dynamical RAM >      26.19 GB

     Initial potential from superposition of free atoms

     starting charge  455.69457, renormalised to  456.00000

     negative rho (up, down):  9.324E-02 0.000E+00
     Starting wfcs are  396 randomized atomic wfcs

     total cpu time spent up to now is       26.5 secs

     Self-consistent Calculation

     iteration #  1     ecut=    60.00 Ry     beta= 0.50
     Davidson diagonalization with overlap
     ethr =  1.00E-02,  avg # of iterations =  2.0

     negative rho (up, down):  8.620E-02 0.000E+00

     total cpu time spent up to now is       72.5 secs

     total energy              =   -3708.33254210 Ry
     Harris-Foulkes estimate   =   -3716.37288760 Ry
     estimated scf accuracy    <      30.32249261 Ry

     iteration #  2     ecut=    60.00 Ry     beta= 0.50
     Davidson diagonalization with overlap
     ethr =  6.65E-03,  avg # of iterations =  2.0

     negative rho (up, down):  8.595E-02 0.000E+00

     total cpu time spent up to now is      117.8 secs

     total energy              =   -3711.08685594 Ry
     Harris-Foulkes estimate   =   -3712.27045333 Ry
     estimated scf accuracy    <       6.15875060 Ry

     iteration #  3     ecut=    60.00 Ry     beta= 0.50
     Davidson diagonalization with overlap
     ethr =  1.35E-03,  avg # of iterations =  2.0

     negative rho (up, down):  8.647E-02 0.000E+00

     total cpu time spent up to now is      163.7 secs

     total energy              =   -3711.58934805 Ry
     Harris-Foulkes estimate   =   -3711.91435718 Ry
     estimated scf accuracy    <       5.40551027 Ry

     iteration #  4     ecut=    60.00 Ry     beta= 0.50
     Davidson diagonalization with overlap
     ethr =  1.19E-03,  avg # of iterations =  1.0

     negative rho (up, down):  8.765E-02 0.000E+00

     total cpu time spent up to now is      205.0 secs

     total energy              =   -3711.63893316 Ry
     Harris-Foulkes estimate   =   -3711.77302164 Ry
     estimated scf accuracy    <       0.70218131 Ry

     iteration #  5     ecut=    60.00 Ry     beta= 0.50
     Davidson diagonalization with overlap
     ethr =  1.54E-04,  avg # of iterations =  8.4

     negative rho (up, down):  8.808E-02 0.000E+00

     total cpu time spent up to now is      276.5 secs

     total energy              =   -3711.69915084 Ry
     Harris-Foulkes estimate   =   -3711.72066249 Ry
     estimated scf accuracy    <       2.25854365 Ry

     iteration #  6     ecut=    60.00 Ry     beta= 0.50
     Davidson diagonalization with overlap
     ethr =  1.54E-04,  avg # of iterations =  1.3

     negative rho (up, down):  8.935E-02 0.000E+00

     total cpu time spent up to now is      319.3 secs

     total energy              =   -3711.67301078 Ry
     Harris-Foulkes estimate   =   -3711.70665506 Ry
     estimated scf accuracy    <       1.38622689 Ry

     iteration #  7     ecut=    60.00 Ry     beta= 0.50
     Davidson diagonalization with overlap
     ethr =  1.54E-04,  avg # of iterations =  1.0

     negative rho (up, down):  8.994E-02 0.000E+00

     total cpu time spent up to now is      361.0 secs

     total energy              =   -3711.66818242 Ry
     Harris-Foulkes estimate   =   -3711.68643703 Ry
     estimated scf accuracy    <       1.95741798 Ry

     iteration #  8     ecut=    60.00 Ry     beta= 0.50
     Davidson diagonalization with overlap
     ethr =  1.54E-04,  avg # of iterations =  1.0

     negative rho (up, down):  9.023E-02 0.000E+00

     total cpu time spent up to now is      403.2 secs

     total energy              =   -3711.66634757 Ry
     Harris-Foulkes estimate   =   -3711.67439186 Ry
     estimated scf accuracy    <       0.95701045 Ry

     iteration #  9     ecut=    60.00 Ry     beta= 0.50
     Davidson diagonalization with overlap
     ethr =  1.54E-04,  avg # of iterations =  1.0

     negative rho (up, down):  9.029E-02 0.000E+00

     total cpu time spent up to now is      444.8 secs

     total energy              =   -3711.65694710 Ry
     Harris-Foulkes estimate   =   -3711.66864388 Ry
     estimated scf accuracy    <       0.50570025 Ry

     iteration # 10     ecut=    60.00 Ry     beta= 0.50
     Davidson diagonalization with overlap
     ethr =  1.11E-04,  avg # of iterations =  1.0

     negative rho (up, down):  9.029E-02 0.000E+00

     total cpu time spent up to now is      486.5 secs

     total energy              =   -3711.65306245 Ry
     Harris-Foulkes estimate   =   -3711.65969605 Ry
     estimated scf accuracy    <       0.22360326 Ry

     iteration # 11     ecut=    60.00 Ry     beta= 0.50
     Davidson diagonalization with overlap
     c_bands:  1 eigenvalues not converged
     ethr =  4.90E-05,  avg # of iterations =  6.9

     negative rho (up, down):  9.020E-02 0.000E+00

     total cpu time spent up to now is      545.6 secs

     total energy              =   -3711.64868114 Ry
     Harris-Foulkes estimate   =   -3711.65433213 Ry
     estimated scf accuracy    <       0.10973547 Ry

     iteration # 12     ecut=    60.00 Ry     beta= 0.50
     Davidson diagonalization with overlap
     ethr =  2.41E-05,  avg # of iterations =  6.8

     negative rho (up, down):  9.028E-02 0.000E+00

     total cpu time spent up to now is      603.6 secs

     total energy              =   -3711.64731309 Ry
     Harris-Foulkes estimate   =   -3711.64958178 Ry
     estimated scf accuracy    <       0.04431358 Ry

     iteration # 13     ecut=    60.00 Ry     beta= 0.50
     Davidson diagonalization with overlap
     ethr =  9.72E-06,  avg # of iterations =  6.6

     negative rho (up, down):  9.625E-02 0.000E+00

     total cpu time spent up to now is      661.4 secs

     total energy              =   -3711.64543896 Ry
     Harris-Foulkes estimate   =   -3711.64767873 Ry
     estimated scf accuracy    <       0.03969566 Ry

     iteration # 14     ecut=    60.00 Ry     beta= 0.50
     Davidson diagonalization with overlap
     ethr =  8.71E-06,  avg # of iterations =  7.4

     negative rho (up, down):  1.006E-01 0.000E+00

     total cpu time spent up to now is      722.9 secs

     total energy              =   -3711.64410018 Ry
     Harris-Foulkes estimate   =   -3711.64571822 Ry
     estimated scf accuracy    <       0.02625935 Ry

     iteration # 15     ecut=    60.00 Ry     beta= 0.50
     Davidson diagonalization with overlap
     c_bands:  1 eigenvalues not converged
     ethr =  5.76E-06,  avg # of iterations =  8.7

     negative rho (up, down):  1.328E-01 0.000E+00

     total cpu time spent up to now is      785.9 secs

     total energy              =   -3711.64140641 Ry
     Harris-Foulkes estimate   =   -3711.64435981 Ry
     estimated scf accuracy    <       0.01808059 Ry

     iteration # 16     ecut=    60.00 Ry     beta= 0.50
     Davidson diagonalization with overlap
     c_bands:  1 eigenvalues not converged
     ethr =  3.97E-06,  avg # of iterations = 10.5

     negative rho (up, down):  1.408E-01 0.000E+00

     total cpu time spent up to now is      860.0 secs

     total energy              =   -3711.64030474 Ry
     Harris-Foulkes estimate   =   -3711.64171551 Ry
     estimated scf accuracy    <       0.00956460 Ry

     iteration # 17     ecut=    60.00 Ry     beta= 0.50
     Davidson diagonalization with overlap
     c_bands:  1 eigenvalues not converged
     ethr =  2.10E-06,  avg # of iterations = 11.4

     negative rho (up, down):  1.264E-01 0.000E+00

     total cpu time spent up to now is      934.5 secs

     total energy              =   -3711.63897784 Ry
     Harris-Foulkes estimate   =   -3711.64042623 Ry
     estimated scf accuracy    <       0.00554804 Ry

     iteration # 18     ecut=    60.00 Ry     beta= 0.50
     Davidson diagonalization with overlap
     c_bands:  1 eigenvalues not converged
     ethr =  1.22E-06,  avg # of iterations = 10.9

     negative rho (up, down):  1.148E-01 0.000E+00

     total cpu time spent up to now is     1007.8 secs

     total energy              =   -3711.63826904 Ry
     Harris-Foulkes estimate   =   -3711.63906404 Ry
     estimated scf accuracy    <       0.00285890 Ry

     iteration # 19     ecut=    60.00 Ry     beta= 0.50
     Davidson diagonalization with overlap
     ethr =  6.27E-07,  avg # of iterations =  7.8

     negative rho (up, down):  1.113E-01 0.000E+00

     total cpu time spent up to now is     1071.5 secs

     total energy              =   -3711.63816197 Ry
     Harris-Foulkes estimate   =   -3711.63833510 Ry
     estimated scf accuracy    <       0.00122646 Ry

     iteration # 20     ecut=    60.00 Ry     beta= 0.50
     Davidson diagonalization with overlap
     c_bands:  1 eigenvalues not converged
     ethr =  2.69E-07,  avg # of iterations =  8.1

     negative rho (up, down):  9.930E-02 0.000E+00

     total cpu time spent up to now is     1133.0 secs

     total energy              =   -3711.63802097 Ry
     Harris-Foulkes estimate   =   -3711.63820480 Ry
     estimated scf accuracy    <       0.00065981 Ry

     iteration # 21     ecut=    60.00 Ry     beta= 0.50
     Davidson diagonalization with overlap
     c_bands:  1 eigenvalues not converged
     c_bands:  1 eigenvalues not converged
     c_bands:  1 eigenvalues not converged
     c_bands:  1 eigenvalues not converged
     c_bands:  1 eigenvalues not converged
     c_bands:  1 eigenvalues not converged
     c_bands:  1 eigenvalues not converged
     c_bands:  1 eigenvalues not converged
     ethr =  1.45E-07,  avg # of iterations = 12.1

     negative rho (up, down):  9.374E-02 0.000E+00

     total cpu time spent up to now is     1206.4 secs

     total energy              =   -3711.63804309 Ry
     Harris-Foulkes estimate   =   -3711.63804307 Ry
     estimated scf accuracy    <       0.00014649 Ry

     iteration # 22     ecut=    60.00 Ry     beta= 0.50
     Davidson diagonalization with overlap
     c_bands:  1 eigenvalues not converged
     c_bands:  1 eigenvalues not converged
     c_bands:  1 eigenvalues not converged
     ethr =  3.21E-08,  avg # of iterations = 10.9

     negative rho (up, down):  9.170E-02 0.000E+00

     total cpu time spent up to now is     1275.8 secs

     total energy              =   -3711.63808294 Ry
     Harris-Foulkes estimate   =   -3711.63804892 Ry
     estimated scf accuracy    <       0.00011089 Ry

     iteration # 23     ecut=    60.00 Ry     beta= 0.50
     Davidson diagonalization with overlap
     c_bands:  1 eigenvalues not converged
     c_bands:  2 eigenvalues not converged
     c_bands:  1 eigenvalues not converged
     c_bands:  1 eigenvalues not converged
     ethr =  2.43E-08,  avg # of iterations =  8.6

     negative rho (up, down):  9.242E-02 0.000E+00

     total cpu time spent up to now is     1338.3 secs

     total energy              =   -3711.63808959 Ry
     Harris-Foulkes estimate   =   -3711.63808506 Ry
     estimated scf accuracy    <       0.00004322 Ry

     iteration # 24     ecut=    60.00 Ry     beta= 0.50
     Davidson diagonalization with overlap
     c_bands:  1 eigenvalues not converged
     ethr =  9.48E-09,  avg # of iterations =  3.0

     negative rho (up, down):  9.234E-02 0.000E+00

     total cpu time spent up to now is     1385.6 secs

     total energy              =   -3711.63809047 Ry
     Harris-Foulkes estimate   =   -3711.63809065 Ry
     estimated scf accuracy    <       0.00001452 Ry

     iteration # 25     ecut=    60.00 Ry     beta= 0.50
     Davidson diagonalization with overlap
     ethr =  3.18E-09,  avg # of iterations =  2.0

     negative rho (up, down):  9.219E-02 0.000E+00

     total cpu time spent up to now is     1430.1 secs

     total energy              =   -3711.63809054 Ry
     Harris-Foulkes estimate   =   -3711.63809096 Ry
     estimated scf accuracy    <       0.00000549 Ry

     iteration # 26     ecut=    60.00 Ry     beta= 0.50
     Davidson diagonalization with overlap
     ethr =  1.20E-09,  avg # of iterations =  2.0

     negative rho (up, down):  9.220E-02 0.000E+00

     total cpu time spent up to now is     1475.0 secs

     total energy              =   -3711.63809075 Ry
     Harris-Foulkes estimate   =   -3711.63809078 Ry
     estimated scf accuracy    <       0.00000530 Ry

     iteration # 27     ecut=    60.00 Ry     beta= 0.50
     Davidson diagonalization with overlap
     ethr =  1.16E-09,  avg # of iterations =  1.0

     negative rho (up, down):  9.243E-02 0.000E+00

     total cpu time spent up to now is     1517.0 secs

     total energy              =   -3711.63809059 Ry
     Harris-Foulkes estimate   =   -3711.63809084 Ry
     estimated scf accuracy    <       0.00000270 Ry

     iteration # 28     ecut=    60.00 Ry     beta= 0.50
     Davidson diagonalization with overlap
     ethr =  5.92E-10,  avg # of iterations =  1.0

     negative rho (up, down):  9.223E-02 0.000E+00

     total cpu time spent up to now is     1559.9 secs

     total energy              =   -3711.63809069 Ry
     Harris-Foulkes estimate   =   -3711.63809068 Ry
     estimated scf accuracy    <       0.00000196 Ry

     iteration # 29     ecut=    60.00 Ry     beta= 0.50
     Davidson diagonalization with overlap
     ethr =  4.31E-10,  avg # of iterations =  1.0

     negative rho (up, down):  9.226E-02 0.000E+00

     total cpu time spent up to now is     1602.1 secs

     total energy              =   -3711.63809068 Ry
     Harris-Foulkes estimate   =   -3711.63809073 Ry
     estimated scf accuracy    <       0.00000044 Ry

     iteration # 30     ecut=    60.00 Ry     beta= 0.50
     Davidson diagonalization with overlap
     ethr =  9.58E-11,  avg # of iterations =  1.9

     negative rho (up, down):  9.221E-02 0.000E+00

     total cpu time spent up to now is     1646.9 secs

     total energy              =   -3711.63809075 Ry
     Harris-Foulkes estimate   =   -3711.63809069 Ry
     estimated scf accuracy    <       0.00000009 Ry

     iteration # 31     ecut=    60.00 Ry     beta= 0.50
     Davidson diagonalization with overlap
     ethr =  2.01E-11,  avg # of iterations =  3.1

     negative rho (up, down):  9.219E-02 0.000E+00

     total cpu time spent up to now is     1696.7 secs

     total energy              =   -3711.63809078 Ry
     Harris-Foulkes estimate   =   -3711.63809076 Ry
     estimated scf accuracy    <       0.00000004 Ry

     iteration # 32     ecut=    60.00 Ry     beta= 0.50
     Davidson diagonalization with overlap
     ethr =  9.27E-12,  avg # of iterations =  2.0

     negative rho (up, down):  9.218E-02 0.000E+00

     total cpu time spent up to now is     1742.1 secs

     total energy              =   -3711.63809079 Ry
     Harris-Foulkes estimate   =   -3711.63809078 Ry
     estimated scf accuracy    <       0.00000003 Ry

     iteration # 33     ecut=    60.00 Ry     beta= 0.50
     Davidson diagonalization with overlap
     ethr =  5.68E-12,  avg # of iterations =  1.0

     negative rho (up, down):  9.216E-02 0.000E+00

     total cpu time spent up to now is     1783.0 secs

     End of self-consistent calculation

          k = 0.0000 0.0000 0.0000 ( 69653 PWs)   bands (ev):

   -38.0975 -38.0629 -35.7273 -35.6834 -22.8641 -22.8578 -22.7357 -22.7295
   -22.6283 -22.6182 -22.4634 -22.2703 -18.5713 -18.5415 -18.4699 -18.4358
   -18.1009 -18.0661 -17.0741 -17.0310 -16.9404 -16.8996 -16.7577 -16.7118
   -15.4782 -15.4529 -15.0320 -15.0209 -14.7734 -14.7070 -14.6268 -14.5999
   -14.5998 -14.5482 -14.5120 -14.5021 -14.4947 -14.4123 -14.3459 -14.3365
   -14.1646 -14.1411 -14.0510 -14.0407 -14.0350 -14.0295 -14.0264 -14.0184
   -13.9621 -13.9091 -13.7686 -13.6772 -13.0785 -12.6475  -8.1025  -8.0960
    -7.9938  -7.9868  -7.9182  -7.9133  -7.9074  -7.8753  -7.7752  -7.7691
    -7.7500  -7.6788  -7.6728  -7.6327  -7.5690  -7.5373  -7.5311  -7.5282
    -7.5111  -7.4504  -7.3953  -7.2805  -7.1344  -7.0240  -3.0363  -3.0242
    -2.8951  -2.8317  -2.2186  -2.2150  -2.1307  -2.1280  -2.1084  -2.0890
    -1.9572  -1.9221  -1.9118  -1.8892  -1.8672  -1.8299  -1.7752  -1.7396
    -1.7297  -1.7201  -1.6993  -1.6658  -1.5941  -1.5609  -1.4037  -1.3864
    -1.1930  -1.1681  -1.1573  -1.1458  -1.0901  -1.0222  -0.9658  -0.9644
    -0.9609  -0.9591  -0.9562  -0.9479  -0.9227  -0.9205  -0.8412  -0.7917
    -0.7394  -0.7354  -0.4743  -0.4486  -0.4027  -0.3689  -0.3387  -0.2998
    -0.2962  -0.2833  -0.2782  -0.2607  -0.2404  -0.2393  -0.2084  -0.1810
    -0.1770  -0.1761  -0.1753  -0.1360  -0.0863  -0.0837  -0.0723  -0.0115
    -0.0013   0.0118   0.0180   0.0203   0.0525   0.0959   0.1009   0.1166
     0.1200   0.1318   0.1331   0.1337   0.2290   0.2334   0.2683   0.2726
     0.2960   0.3189   0.3347   0.3654   0.3666   0.3743   0.4323   0.4711
     0.4890   0.5388   0.5408   0.5608   0.5653   0.5669   0.5898   0.6792
     0.7535   0.7726   0.7860   0.8912   0.9300   0.9547   0.9955   1.0020
     1.0340   1.0475   1.0594   1.0923   1.1953   1.1998   1.2221   1.2247
     1.2317   1.2335   1.2499   1.2502   1.3330   1.3467   1.3507   1.3799
     1.3910   1.4195   1.4258   1.4393   1.4563   1.4756   1.5833   1.6111
     1.6413   1.6694   1.7237   1.7275   1.7970   1.7999   1.8013   1.8213
     1.8598   1.8599   1.8994   1.9060   1.9541   2.0684   2.0752   2.2221
     2.2417   2.2508   2.3847   2.3943   2.4070   2.4448   2.4637   2.5090
     2.5922   2.6118   2.6349   2.6725   2.8816   2.9041   5.2059   5.2438
     5.4117   5.9478   6.0927   6.6235   6.6423   6.7725   6.9671   7.2144
     7.2856   7.2993   7.3792   7.3835   7.5705   7.6453   8.0217   8.0419
     8.0742   8.1265   8.1592   8.1775   8.2861   8.4882   8.5186   8.5504
     8.6091   8.6664   8.8690   9.0195   9.0751   9.1124   9.2226   9.2728
     9.4096   9.4179

          k = 0.0000 0.2618 0.0000 ( 69651 PWs)   bands (ev):

   -38.0948 -38.0602 -35.7256 -35.6817 -22.8395 -22.8332 -22.7166 -22.7104
   -22.6047 -22.5984 -22.4444 -22.2497 -18.5327 -18.5028 -18.4627 -18.4285
   -18.2117 -18.1772 -17.0446 -17.0016 -16.9361 -16.8952 -16.8237 -16.7778
   -15.3722 -15.3471 -14.9760 -14.9650 -14.7246 -14.6689 -14.6227 -14.5962
   -14.5489 -14.4962 -14.4848 -14.4596 -14.4274 -14.3777 -14.3104 -14.3014
   -14.1596 -14.1379 -14.1142 -14.0875 -14.0362 -14.0235 -14.0186 -14.0128
   -13.9993 -13.9452 -13.7598 -13.7233 -13.0367 -12.7087  -8.0959  -8.0891
    -8.0069  -8.0003  -7.9137  -7.8826  -7.8696  -7.8637  -7.8179  -7.8115
    -7.8107  -7.8047  -7.7444  -7.7411  -7.7382  -7.6269  -7.5907  -7.5569
    -7.5445  -7.5202  -7.4924  -7.4806  -7.2216  -7.1570  -3.1409  -3.1209
    -2.9530  -2.8884  -2.3413  -2.3334  -2.2705  -2.2316  -2.2276  -2.2253
    -2.1077  -2.1035  -2.0620  -2.0367  -1.9569  -1.9210  -1.8019  -1.7521
    -1.7460  -1.7305  -1.7069  -1.6789  -1.6677  -1.6466  -1.5215  -1.4988
    -1.4934  -1.4785  -1.4122  -1.4062  -1.3948  -1.3798  -1.3793  -1.3739
    -1.3080  -1.2510  -1.0167  -0.9050  -0.8514  -0.8265  -0.7611  -0.7500
    -0.6744  -0.6508  -0.6352  -0.6109  -0.5552  -0.5376  -0.3919  -0.3881
    -0.3581  -0.3429  -0.3211  -0.3174  -0.2821  -0.2687  -0.2387  -0.2302
    -0.2131  -0.1979  -0.1718  -0.1376  -0.1353  -0.1139  -0.0434  -0.0272
     0.0032   0.0175   0.0222   0.1064   0.1109   0.1627   0.1670   0.1766
     0.1873   0.1989   0.2012   0.2235   0.2808   0.2936   0.2968   0.3029
     0.3326   0.3358   0.3500   0.3864   0.3967   0.4016   0.4046   0.4226
     0.4451   0.4646   0.4707   0.4828   0.6467   0.6724   0.6767   0.7696
     0.7871   0.7968   0.8468   0.8578   0.9630   0.9766   0.9892   1.0164
     1.0988   1.1477   1.1502   1.1568   1.2134   1.2295   1.2311   1.2411
     1.3036   1.3210   1.3270   1.3408   1.3700   1.3976   1.4029   1.4107
     1.4798   1.5035   1.5107   1.5324   1.5383   1.5452   1.5486   1.6340
     1.7099   1.7364   1.7438   1.7668   1.7837   1.7922   1.8433   1.8507
     1.8670   1.8729   1.8737   1.8865   1.9223   2.0270   2.0635   2.1477
     2.2524   2.2884   2.5582   2.6152   2.8097   2.8186   2.8300   2.8924
     2.9178   2.9199   2.9673   2.9797   3.1662   3.1956   5.5890   5.6229
     5.6718   6.2223   6.3087   6.8735   6.9604   6.9677   7.1199   7.1247
     7.2744   7.3972   7.5730   7.6010   7.7557   7.7765   7.7792   7.8610
     8.2271   8.2298   8.2567   8.3732   8.4540   8.6891   8.7167   8.7435
     8.8093   8.8863   9.0271   9.1808   9.2206   9.2760   9.3199   9.3395
     9.4137   9.4313

          k = 0.0000 0.5236 0.0000 ( 69545 PWs)   bands (ev):

   -38.0883 -38.0537 -35.7215 -35.6776 -22.7790 -22.7726 -22.6698 -22.6635
   -22.5507 -22.5459 -22.3978 -22.1991 -18.4521 -18.4452 -18.4328 -18.4181
   -18.4110 -18.4027 -16.9764 -16.9616 -16.9303 -16.9257 -16.9190 -16.8847
   -15.1316 -15.1078 -14.8285 -14.8171 -14.6764 -14.6539 -14.6088 -14.5766
   -14.4995 -14.4766 -14.4053 -14.3100 -14.2764 -14.2631 -14.2435 -14.2234
   -14.2147 -14.1987 -14.1442 -14.1313 -14.0836 -14.0215 -14.0055 -13.9973
   -13.9677 -13.9618 -13.8186 -13.7540 -12.9302 -12.8520  -8.2828  -8.2766
    -8.1232  -8.1172  -8.0591  -8.0522  -8.0314  -7.9880  -7.9816  -7.8959
    -7.8819  -7.8758  -7.8675  -7.8618  -7.8484  -7.7528  -7.7468  -7.7105
    -7.7000  -7.6367  -7.5746  -7.4624  -7.3125  -7.2670  -3.5402  -3.5075
    -3.1944  -3.1320  -2.8312  -2.8181  -2.6657  -2.6214  -2.4548  -2.4479
    -2.3392  -2.3118  -2.2664  -2.2624  -2.2563  -2.2253  -2.2210  -2.1451
    -2.0820  -2.0776  -2.0718  -2.0674  -1.9751  -1.9497  -1.8013  -1.7715
    -1.7564  -1.7254  -1.6832  -1.6525  -1.6197  -1.6132  -1.5851  -1.5808
    -1.2327  -1.2025  -1.1100  -0.9893  -0.9875  -0.9554  -0.8918  -0.8416
    -0.8375  -0.8288  -0.8272  -0.7825  -0.6508  -0.6454  -0.6167  -0.5770
    -0.5676  -0.5565  -0.5533  -0.5306  -0.5048  -0.5002  -0.4281  -0.4279
    -0.4041  -0.3769  -0.3338  -0.3293  -0.3239  -0.2970  -0.2643  -0.2569
    -0.2272  -0.2204  -0.1727  -0.1087   0.0481   0.0703   0.1544   0.1722
     0.2147   0.2175   0.2191   0.2567   0.2940   0.3111   0.3289   0.3621
     0.3665   0.4159   0.4264   0.5209   0.6267   0.6364   0.6487   0.6514
     0.7793   0.8141   0.8371   0.8466   0.8866   1.0341   1.0527   1.0681
     1.0823   1.0861   1.1020   1.1227   1.1914   1.2126   1.2585   1.2638
     1.2747   1.2821   1.2844   1.3069   1.3104   1.3707   1.4132   1.4169
     1.4203   1.4393   1.4551   1.4584   1.4853   1.5247   1.5371   1.5616
     1.5928   1.6065   1.6521   1.6978   1.7096   1.7342   1.7407   1.7603
     1.8263   1.8291   1.8395   1.8468   1.8630   1.8937   1.9309   1.9329
     1.9606   1.9670   1.9918   2.0108   2.0869   2.0917   2.0998   2.1543
     2.1867   2.2986   2.4851   2.7060   3.0788   3.1000   3.1123   3.1379
     3.3410   3.3425   3.8251   3.8346   3.9206   3.9407   5.9875   6.5193
     6.5239   6.6380   6.6433   6.9315   6.9797   7.0093   7.0819   7.1260
     7.8177   7.8256   8.0808   8.2105   8.2367   8.3528   8.4330   8.4408
     8.4813   8.6361   8.6974   8.7006   8.7241   8.7516   8.7608   8.9600
     9.0579   9.1167   9.1909   9.2576   9.3638   9.3662   9.4199   9.4435
     9.4734   9.5530

          k = 0.0000 0.7854 0.0000 ( 69548 PWs)   bands (ev):

   -38.0818 -38.0472 -35.7174 -35.6734 -22.7167 -22.7103 -22.6218 -22.6156
   -22.5015 -22.4862 -22.3500 -22.1471 -18.6606 -18.6270 -18.4277 -18.3935
   -18.3273 -18.2969 -17.0984 -17.0524 -16.9153 -16.8884 -16.8743 -16.8457
   -14.9072 -14.8942 -14.7855 -14.7543 -14.6520 -14.6386 -14.5765 -14.5438
   -14.5048 -14.4914 -14.3749 -14.3069 -14.2680 -14.2139 -14.1737 -14.1552
   -14.1379 -14.1164 -14.0985 -14.0848 -14.0513 -14.0155 -13.9527 -13.9460
   -13.9217 -13.9156 -13.8932 -13.7980 -12.9873 -12.8144  -8.6778  -8.6716
    -8.4183  -8.4137  -8.4123  -8.2300  -8.1313  -8.0627  -8.0559  -7.9936
    -7.9869  -7.9760  -7.9510  -7.9450  -7.9084  -7.8510  -7.7383  -7.6687
    -7.6317  -7.6256  -7.5979  -7.3854  -7.3509  -7.1967  -4.0262  -3.9932
    -3.5987  -3.5407  -3.2361  -3.2249  -3.0315  -2.9818  -2.8412  -2.8359
    -2.8124  -2.7751  -2.7698  -2.7101  -2.5975  -2.5931  -2.4659  -2.4328
    -2.3431  -2.3134  -2.1887  -2.1856  -2.1216  -2.1189  -1.8819  -1.8409
    -1.8055  -1.7729  -1.7436  -1.7320  -1.6582  -1.6399  -1.4847  -1.4525
    -1.4514  -1.2238  -1.2119  -1.1825  -1.1176  -1.0683  -1.0597  -1.0350
    -1.0002  -0.9939  -0.9522  -0.9462  -0.8908  -0.8626  -0.8322  -0.7854
    -0.7762  -0.7680  -0.7251  -0.7249  -0.7188  -0.7076  -0.6905  -0.6655
    -0.6147  -0.5828  -0.5782  -0.5526  -0.5197  -0.5178  -0.4592  -0.2496
    -0.2143  -0.1934  -0.1886  -0.1105  -0.0206   0.0223   0.0409   0.1272
     0.2217   0.2335   0.2398   0.2630   0.2764   0.3157   0.3197   0.3751
     0.4527   0.5336   0.5562   0.5979   0.8087   0.8373   0.8873   0.8907
     0.9974   1.0194   1.0741   1.0816   1.0979   1.1019   1.2190   1.2382
     1.2541   1.2860   1.2951   1.3160   1.3256   1.3410   1.3465   1.4100
     1.4183   1.4338   1.4768   1.4794   1.5656   1.5657   1.5762   1.6102
     1.6302   1.6797   1.7185   1.7246   1.7269   1.7323   1.7436   1.7651
     1.7724   1.8164   1.8249   1.8308   1.8468   1.8511   1.8864   1.8946
     1.9445   1.9477   1.9529   1.9971   2.0208   2.0475   2.0588   2.0768
     2.1114   2.2637   2.2662   2.2713   2.2971   2.3086   2.3474   2.4911
     2.4919   2.4960   2.5461   2.6181   2.9243   2.9519   3.0236   3.0530
     3.4060   3.4883   4.4641   4.4778   4.5206   4.5343   5.8794   6.1078
     6.1122   6.7263   6.7822   7.4088   7.4470   7.4739   7.8059   7.8558
     8.4016   8.4433   8.4704   8.5224   8.6073   8.6117   8.6451   8.7871
     8.8049   8.8451   8.9020   9.0367   9.0544   9.0852   9.1904   9.2062
     9.2809   9.2856   9.3550   9.3791   9.4442   9.5135   9.5909   9.6009
     9.6629   9.6825

          k = 0.0000-1.0472 0.0000 ( 69594 PWs)   bands (ev):

   -38.0791 -38.0444 -35.7157 -35.6717 -22.6903 -22.6839 -22.6016 -22.5954
   -22.4808 -22.4609 -22.3298 -22.1251 -18.7411 -18.7077 -18.4205 -18.3863
   -18.2801 -18.2496 -17.1487 -17.1028 -16.9110 -16.8700 -16.8527 -16.8101
   -14.9102 -14.8969 -14.7224 -14.7013 -14.6447 -14.6024 -14.5573 -14.5382
   -14.4757 -14.4731 -14.4293 -14.3238 -14.2590 -14.1896 -14.1623 -14.1342
   -14.1186 -14.1054 -14.0347 -14.0107 -13.9896 -13.9532 -13.9284 -13.9224
   -13.9163 -13.9041 -13.8977 -13.8808 -13.0404 -12.7631  -8.8311  -8.8249
    -8.5674  -8.5370  -8.5310  -8.3737  -8.2387  -8.0969  -8.0683  -8.0613
    -7.9875  -7.9807  -7.9786  -7.9725  -7.9169  -7.8424  -7.7657  -7.6645
    -7.6048  -7.5791  -7.5730  -7.4085  -7.3018  -7.1592  -4.2283  -4.1960
    -3.7851  -3.7282  -3.3916  -3.3817  -3.1830  -3.1283  -3.0758  -3.0693
    -3.0204  -3.0052  -2.9999  -2.9266  -2.6261  -2.6218  -2.4866  -2.4686
    -2.4510  -2.4381  -2.2109  -2.2081  -2.1088  -2.1062  -1.9440  -1.9096
    -1.8997  -1.8750  -1.7554  -1.7056  -1.5747  -1.5734  -1.5553  -1.3264
    -1.3113  -1.2993  -1.2979  -1.2868  -1.2007  -1.1749  -1.1632  -1.1290
    -1.0453  -1.0426  -1.0366  -1.0270  -1.0238  -1.0176  -0.8942  -0.8770
    -0.8340  -0.8267  -0.8232  -0.8139  -0.8081  -0.7941  -0.7773  -0.7701
    -0.7099  -0.6718  -0.6672  -0.6092  -0.5722  -0.4935  -0.4597  -0.2189
    -0.2129  -0.1573  -0.1525  -0.0820  -0.0680  -0.0486  -0.0356   0.0002
     0.1831   0.2360   0.2433   0.2751   0.3050   0.3062   0.3075   0.3802
     0.4884   0.5899   0.6137   0.6212   0.8762   0.8990   0.9100   1.0045
     1.0286   1.0742   1.1084   1.1312   1.2007   1.2027   1.2375   1.2496
     1.2600   1.3283   1.3738   1.3888   1.3891   1.3965   1.4078   1.4162
     1.4203   1.4452   1.4546   1.5143   1.6151   1.6224   1.6649   1.6909
     1.7390   1.7535   1.7573   1.7739   1.7990   1.8302   1.8562   1.8787
     1.9245   1.9331   1.9557   1.9617   1.9677   1.9700   1.9753   2.0052
     2.0508   2.0667   2.1105   2.1588   2.1955   2.2070   2.2355   2.2378
     2.2445   2.2520   2.3274   2.3501   2.4700   2.4750   2.4767   2.5125
     2.6439   2.6545   2.6594   2.6873   2.7121   2.7253   2.8513   2.8868
     3.3496   3.4817   4.6627   4.6798   4.7384   4.7491   5.7670   5.8682
     5.8727   6.6046   6.6745   7.8282   7.8463   7.8529   8.0915   8.2265
     8.3630   8.3848   8.3980   8.4226   8.6293   8.7407   8.8424   8.8446
     8.9309   9.0058   9.0217   9.0460   9.1530   9.1634   9.2597   9.2726
     9.2967   9.3474   9.3945   9.4147   9.4419   9.6327   9.6521   9.7629
     9.8074   9.9059

          k = 0.1250 0.0000 0.0000 ( 69651 PWs)   bands (ev):

   -38.0975 -38.0629 -35.7273 -35.6834 -22.8596 -22.8533 -22.7405 -22.7342
   -22.6252 -22.6171 -22.4668 -22.2716 -18.5706 -18.5408 -18.4667 -18.4326
   -18.1009 -18.0661 -17.0770 -17.0340 -16.9524 -16.9118 -16.7577 -16.7118
   -15.4507 -15.4254 -15.0168 -15.0063 -14.7649 -14.6985 -14.6406 -14.6126
   -14.6059 -14.5694 -14.5591 -14.5105 -14.5022 -14.4185 -14.3175 -14.3122
   -14.1572 -14.1350 -14.0538 -14.0408 -14.0372 -14.0316 -14.0284 -14.0198
   -13.9674 -13.9131 -13.7709 -13.6801 -13.0637 -12.6652  -8.1048  -8.0982
    -7.9981  -7.9911  -7.9184  -7.8995  -7.8935  -7.8797  -7.7670  -7.7612
    -7.7608  -7.6854  -7.6794  -7.6162  -7.5803  -7.5466  -7.5404  -7.5116
    -7.5036  -7.4509  -7.3920  -7.2889  -7.1383  -7.0279  -3.0015  -2.9893
    -2.8618  -2.7982  -2.2149  -2.2109  -2.1498  -2.1465  -2.1046  -2.0854
    -1.9844  -1.9461  -1.9096  -1.8871  -1.8861  -1.8458  -1.7802  -1.7692
    -1.7473  -1.7274  -1.7078  -1.6897  -1.5752  -1.5408  -1.4452  -1.4263
    -1.1674  -1.1540  -1.1101  -1.0922  -1.0901  -1.0114  -0.9874  -0.9640
    -0.9628  -0.9587  -0.9578  -0.9494  -0.9226  -0.8951  -0.7989  -0.7434
    -0.7194  -0.7154  -0.4542  -0.4429  -0.4028  -0.3777  -0.3607  -0.3437
    -0.3206  -0.2843  -0.2808  -0.2488  -0.2451  -0.2301  -0.2286  -0.2233
    -0.2000  -0.1973  -0.1958  -0.1504  -0.1417  -0.1332  -0.0868  -0.0174
    -0.0023   0.0055   0.0135   0.0211   0.0442   0.0640   0.0696   0.1098
     0.1750   0.1779   0.1811   0.1840   0.2307   0.2351   0.2672   0.2717
     0.2852   0.3244   0.3545   0.3704   0.3800   0.4000   0.4385   0.4778
     0.4959   0.5335   0.5356   0.5552   0.5723   0.5892   0.5928   0.6812
     0.7320   0.7532   0.7848   0.8837   0.9124   0.9302   0.9543   0.9823
     1.0344   1.0452   1.0807   1.0951   1.1345   1.1680   1.1795   1.1876
     1.2009   1.2253   1.2536   1.2753   1.2773   1.2981   1.3626   1.4055
     1.4242   1.4423   1.4673   1.4743   1.4777   1.4946   1.5746   1.5998
     1.6964   1.7253   1.7353   1.7474   1.7901   1.8086   1.8265   1.8322
     1.8451   1.8644   1.9085   1.9237   1.9304   2.0553   2.0624   2.2067
     2.2332   2.2408   2.3467   2.4009   2.4127   2.4483   2.4806   2.4830
     2.6000   2.6186   2.6389   2.6726   2.8759   2.8989   5.2618   5.2925
     5.4544   5.9993   6.1281   6.6742   6.6987   6.7697   6.9205   6.9243
     7.0126   7.1977   7.5427   7.6059   7.7499   7.7568   7.9911   8.0492
     8.1277   8.1543   8.1603   8.1682   8.3214   8.4803   8.5219   8.6233
     8.6744   8.6995   8.8358   8.9387   9.0322   9.1090   9.2075   9.2691
     9.4131   9.4441

          k = 0.1250 0.2618 0.0000 ( 69587 PWs)   bands (ev):

   -38.0948 -38.0602 -35.7256 -35.6817 -22.8353 -22.8289 -22.7212 -22.7149
   -22.6018 -22.5974 -22.4476 -22.2509 -18.5320 -18.5021 -18.4595 -18.4253
   -18.2117 -18.1772 -17.0475 -17.0045 -16.9475 -16.9068 -16.8236 -16.7777
   -15.3455 -15.3203 -14.9627 -14.9522 -14.7171 -14.6612 -14.6289 -14.6026
   -14.5545 -14.5043 -14.4912 -14.4899 -14.4854 -14.3833 -14.2784 -14.2722
   -14.1534 -14.1330 -14.1157 -14.0901 -14.0378 -14.0241 -14.0210 -14.0145
   -14.0024 -13.9479 -13.7661 -13.7204 -13.0250 -12.7216  -8.0978  -8.0910
    -8.0129  -8.0063  -7.9257  -7.9200  -7.9134  -7.8862  -7.8529  -7.8469
    -7.7562  -7.7504  -7.7489  -7.6979  -7.6919  -7.6540  -7.6099  -7.5961
    -7.5460  -7.4939  -7.4739  -7.4554  -7.2033  -7.1408  -3.1049  -3.0847
    -2.9172  -2.8526  -2.3500  -2.3417  -2.2736  -2.2285  -2.2235  -2.2179
    -2.1164  -2.1110  -2.0651  -2.0409  -1.9725  -1.9380  -1.8278  -1.7878
    -1.7815  -1.7376  -1.7338  -1.7276  -1.6675  -1.6379  -1.5085  -1.4968
    -1.4771  -1.4761  -1.4073  -1.4016  -1.3819  -1.3759  -1.3633  -1.3491
    -1.2846  -1.2270  -1.0117  -0.9050  -0.8641  -0.8356  -0.7490  -0.7346
    -0.6716  -0.6518  -0.6390  -0.6239  -0.5757  -0.5708  -0.4297  -0.4181
    -0.3638  -0.3551  -0.3482  -0.3325  -0.3167  -0.3006  -0.2709  -0.2249
    -0.2095  -0.1721  -0.1495  -0.1268  -0.1118  -0.1019  -0.0485  -0.0229
    -0.0017   0.0142   0.0197   0.0847   0.0871   0.1619   0.1698   0.1732
     0.1823   0.1842   0.2187   0.2446   0.2853   0.2977   0.3055   0.3066
     0.3117   0.3378   0.3598   0.3880   0.3916   0.3964   0.4022   0.4314
     0.4640   0.4748   0.4800   0.4914   0.6518   0.6561   0.6668   0.7657
     0.7852   0.8089   0.8628   0.8744   0.9470   0.9605   1.0133   1.0459
     1.1025   1.1122   1.1290   1.1609   1.2067   1.2254   1.2423   1.2514
     1.2599   1.2844   1.3106   1.3189   1.3737   1.3961   1.4150   1.4162
     1.4200   1.4238   1.5077   1.5291   1.5395   1.5999   1.6140   1.6204
     1.7049   1.7229   1.7473   1.7650   1.7919   1.8009   1.8079   1.8175
     1.8226   1.8624   1.8756   1.9308   1.9819   2.1094   2.1302   2.1661
     2.2485   2.3977   2.5619   2.6253   2.8033   2.8155   2.8357   2.8940
     2.9150   2.9238   2.9660   2.9787   3.1586   3.1876   5.6296   5.6598
     5.7020   6.2620   6.3399   6.8455   6.9538   6.9586   7.0131   7.0198
     7.3172   7.4321   7.6144   7.6516   7.7535   7.7946   7.9062   7.9219
     8.2179   8.2595   8.3063   8.3671   8.4825   8.6596   8.6965   8.7868
     8.8495   8.9238   9.0062   9.1010   9.1814   9.2176   9.2690   9.3340
     9.3557   9.4433

          k = 0.1250 0.5236 0.0000 ( 69560 PWs)   bands (ev):

   -38.0883 -38.0537 -35.7215 -35.6776 -22.7753 -22.7689 -22.6737 -22.6675
   -22.5498 -22.5435 -22.4005 -22.2001 -18.4520 -18.4421 -18.4322 -18.4181
   -18.4079 -18.4022 -16.9779 -16.9627 -16.9357 -16.9321 -16.9198 -16.8949
   -15.1069 -15.0832 -14.8207 -14.8100 -14.6744 -14.6520 -14.6042 -14.5705
   -14.4996 -14.4767 -14.4135 -14.3169 -14.3157 -14.3044 -14.2623 -14.2366
   -14.1814 -14.1617 -14.1452 -14.1338 -14.0837 -14.0194 -14.0040 -13.9952
   -13.9692 -13.9632 -13.8189 -13.7545 -12.9270 -12.8546  -8.3166  -8.3104
    -8.0784  -8.0719  -8.0579  -8.0464  -8.0399  -7.9944  -7.9881  -7.9503
    -7.9440  -7.9052  -7.8761  -7.8643  -7.7991  -7.7188  -7.7006  -7.6947
    -7.6906  -7.6808  -7.5775  -7.4266  -7.3641  -7.2092  -3.5046  -3.4719
    -3.1572  -3.0948  -2.8412  -2.8271  -2.6684  -2.6240  -2.4495  -2.4427
    -2.3371  -2.3094  -2.2675  -2.2635  -2.2531  -2.2249  -2.2206  -2.1476
    -2.0827  -2.0783  -2.0707  -2.0664  -1.9421  -1.9171  -1.8439  -1.8109
    -1.7579  -1.7364  -1.6784  -1.6625  -1.6574  -1.6290  -1.6034  -1.5731
    -1.2392  -1.2099  -1.1186  -1.0021  -0.9942  -0.9615  -0.9000  -0.8781
    -0.8504  -0.8423  -0.7925  -0.7582  -0.7082  -0.7010  -0.6573  -0.6237
    -0.6137  -0.5918  -0.5506  -0.5258  -0.4995  -0.4935  -0.4600  -0.4226
    -0.4142  -0.3751  -0.3400  -0.3238  -0.3060  -0.2818  -0.2652  -0.2537
    -0.2226  -0.2152  -0.1679  -0.1119   0.0913   0.1076   0.1502   0.1654
     0.1730   0.2012   0.2394   0.2509   0.2876   0.3034   0.3339   0.3407
     0.3925   0.4358   0.4492   0.5155   0.6233   0.6386   0.6709   0.6934
     0.7692   0.8077   0.8518   0.8616   0.9013   1.0098   1.0369   1.0727
     1.0860   1.1027   1.1109   1.1292   1.1680   1.1740   1.2128   1.2205
     1.2529   1.2770   1.3097   1.3334   1.3503   1.3658   1.3771   1.3953
     1.4255   1.4310   1.4506   1.4746   1.4885   1.5257   1.5560   1.5845
     1.5896   1.6261   1.6445   1.6541   1.6952   1.7242   1.7461   1.7511
     1.7832   1.8006   1.8202   1.8316   1.8408   1.8471   1.8767   1.9309
     1.9645   1.9704   2.0507   2.0772   2.0850   2.1757   2.2104   2.2682
     2.3031   2.4242   2.4976   2.7295   3.0799   3.1009   3.1128   3.1393
     3.3346   3.3489   3.7926   3.8023   3.8926   3.9128   6.0063   6.5348
     6.5394   6.6454   6.6511   6.9477   6.9984   7.0127   7.1112   7.1504
     7.8665   7.8738   8.1199   8.2067   8.2555   8.3411   8.4199   8.4291
     8.4743   8.5569   8.6182   8.7251   8.7516   8.7629   8.7750   8.9677
     9.0551   9.0888   9.1790   9.2501   9.3500   9.3881   9.4056   9.4311
     9.4954   9.5577

          k = 0.1250 0.7854 0.0000 ( 69550 PWs)   bands (ev):

   -38.0818 -38.0472 -35.7174 -35.6734 -22.7135 -22.7071 -22.6251 -22.6189
   -22.5008 -22.4841 -22.3522 -22.1478 -18.6605 -18.6270 -18.4247 -18.3905
   -18.3268 -18.2964 -17.0984 -17.0524 -16.9247 -16.8905 -16.8838 -16.8479
   -14.8903 -14.8782 -14.7700 -14.7373 -14.6507 -14.6386 -14.5709 -14.5400
   -14.5063 -14.4912 -14.3759 -14.3072 -14.2668 -14.2313 -14.1835 -14.1717
   -14.1625 -14.1301 -14.0941 -14.0811 -14.0461 -14.0090 -13.9516 -13.9449
   -13.9226 -13.9163 -13.8907 -13.8005 -12.9811 -12.8213  -8.6681  -8.6619
    -8.4022  -8.3761  -8.3701  -8.2219  -8.0935  -8.0618  -8.0552  -7.9983
    -7.9943  -7.9921  -7.9877  -7.9419  -7.9068  -7.8513  -7.7750  -7.6720
    -7.6466  -7.6406  -7.5986  -7.4307  -7.3689  -7.2032  -3.9892  -3.9566
    -3.5638  -3.5060  -3.2512  -3.2392  -3.0398  -2.9899  -2.8387  -2.8334
    -2.8095  -2.7776  -2.7724  -2.7125  -2.5837  -2.5792  -2.4537  -2.4195
    -2.3138  -2.2851  -2.1903  -2.1871  -2.1206  -2.1178  -1.8738  -1.8332
    -1.7861  -1.7604  -1.7595  -1.7314  -1.6868  -1.6610  -1.5674  -1.5439
    -1.4161  -1.2340  -1.2160  -1.2059  -1.1263  -1.0818  -1.0621  -1.0364
    -1.0345  -1.0207  -0.9796  -0.9738  -0.9690  -0.9453  -0.8171  -0.8014
    -0.7971  -0.7588  -0.7414  -0.7216  -0.7134  -0.7033  -0.6928  -0.6719
    -0.6057  -0.5862  -0.5814  -0.5297  -0.4960  -0.4882  -0.4594  -0.2375
    -0.2195  -0.2041  -0.1955  -0.1170   0.0370   0.0724   0.1029   0.1661
     0.1878   0.1959   0.2379   0.2643   0.2765   0.3298   0.3443   0.3491
     0.4437   0.5742   0.5897   0.6022   0.7817   0.8551   0.8606   0.9030
     0.9938   1.0148   1.0647   1.1004   1.1091   1.1143   1.2099   1.2406
     1.2691   1.2720   1.2883   1.2983   1.3115   1.3304   1.3433   1.4046
     1.4129   1.4197   1.4660   1.4697   1.5389   1.5644   1.5761   1.6029
     1.6315   1.6570   1.6954   1.7031   1.7230   1.7440   1.7641   1.7779
     1.7827   1.8179   1.8304   1.8450   1.8672   1.8749   1.8898   1.9078
     1.9148   1.9679   1.9735   2.0118   2.0443   2.0624   2.1094   2.1453
     2.1714   2.2486   2.2762   2.2809   2.3225   2.3587   2.4062   2.4282
     2.4830   2.4878   2.5976   2.6436   2.9264   2.9534   3.0267   3.0591
     3.4045   3.4908   4.3997   4.4134   4.4629   4.4769   5.9211   6.1629
     6.1675   6.7557   6.8118   7.3846   7.4143   7.4474   7.7957   7.8447
     8.3195   8.3612   8.4305   8.5275   8.6110   8.6277   8.6536   8.7992
     8.8202   8.8848   8.9404   9.0676   9.0866   9.0885   9.1777   9.2334
     9.2804   9.3215   9.3811   9.4181   9.4468   9.5289   9.5622   9.5973
     9.6571   9.7080

          k = 0.1250-1.0472 0.0000 ( 69634 PWs)   bands (ev):

   -38.0790 -38.0444 -35.7157 -35.6717 -22.6874 -22.6809 -22.6047 -22.5984
   -22.4803 -22.4590 -22.3318 -22.1257 -18.7410 -18.7076 -18.4175 -18.3833
   -18.2797 -18.2491 -17.1487 -17.1028 -16.9201 -16.8792 -16.8547 -16.8121
   -14.8990 -14.8857 -14.6985 -14.6774 -14.6414 -14.6034 -14.5442 -14.5253
   -14.5015 -14.4909 -14.4194 -14.3186 -14.2529 -14.2006 -14.1734 -14.1516
   -14.1229 -14.1125 -14.0424 -14.0287 -13.9725 -13.9598 -13.9286 -13.9220
   -13.9158 -13.9050 -13.8987 -13.8810 -13.0310 -12.7749  -8.8009  -8.7947
    -8.5386  -8.5065  -8.5005  -8.3456  -8.2099  -8.0688  -8.0645  -8.0574
    -8.0136  -8.0075  -7.9903  -7.9836  -7.9152  -7.8425  -7.7977  -7.6642
    -7.6229  -7.6170  -7.6055  -7.4383  -7.3424  -7.1984  -4.1902  -4.1583
    -3.7505  -3.6939  -3.4084  -3.3976  -3.1934  -3.1383  -3.0733  -3.0671
    -3.0184  -3.0079  -3.0026  -2.9288  -2.6093  -2.6049  -2.4709  -2.4418
    -2.4340  -2.4122  -2.2133  -2.2105  -2.1098  -2.1071  -1.9365  -1.8971
    -1.8658  -1.8397  -1.7660  -1.7073  -1.6384  -1.5808  -1.4890  -1.4276
    -1.4069  -1.3671  -1.3447  -1.2788  -1.2700  -1.2060  -1.1416  -1.1277
    -1.1164  -1.1137  -1.0527  -1.0413  -1.0256  -1.0074  -0.9029  -0.8978
    -0.8442  -0.8241  -0.8126  -0.8106  -0.8012  -0.7945  -0.7787  -0.7469
    -0.7065  -0.6764  -0.6721  -0.5803  -0.5769  -0.4659  -0.4368  -0.2177
    -0.2097  -0.1708  -0.1653  -0.0864   0.0032   0.0225   0.0454   0.0524
     0.1721   0.1960   0.2118   0.2832   0.2973   0.3259   0.3277   0.3437
     0.4797   0.6023   0.6402   0.6713   0.8415   0.9270   0.9379   0.9599
     1.0267   1.0638   1.1069   1.1349   1.1650   1.2088   1.2440   1.2493
     1.2647   1.3214   1.3495   1.3685   1.4034   1.4107   1.4135   1.4158
     1.4262   1.4510   1.4805   1.5054   1.5248   1.5714   1.6455   1.6725
     1.7225   1.7386   1.8312   1.8374   1.8465   1.8631   1.8896   1.9220
     1.9495   1.9571   1.9584   1.9705   1.9715   1.9884   2.0013   2.0445
     2.0554   2.0702   2.1115   2.1766   2.1921   2.2183   2.2272   2.2368
     2.2461   2.2822   2.3217   2.4077   2.4653   2.4768   2.4817   2.5130
     2.6008   2.6472   2.6522   2.6809   2.6921   2.7287   2.8590   2.8990
     3.3496   3.4864   4.5842   4.6011   4.6636   4.6750   5.8185   5.9362
     5.9409   6.6363   6.7060   7.7508   7.7540   7.7661   8.1086   8.2077
     8.2354   8.2477   8.3423   8.3884   8.6876   8.8138   8.8943   8.9493
     9.0013   9.0669   9.0882   9.1352   9.1527   9.1956   9.2895   9.3010
     9.3137   9.3930   9.4039   9.4475   9.4708   9.6398   9.6803   9.7539
     9.8152   9.9578

          k = 0.2500 0.0000 0.0000 ( 69591 PWs)   bands (ev):

   -38.0975 -38.0629 -35.7273 -35.6834 -22.8470 -22.8406 -22.7539 -22.7477
   -22.6172 -22.6143 -22.4757 -22.2747 -18.5688 -18.5391 -18.4588 -18.4247
   -18.1009 -18.0661 -17.0841 -17.0412 -16.9808 -16.9405 -16.7577 -16.7118
   -15.3766 -15.3514 -14.9792 -14.9702 -14.7609 -14.6870 -14.6865 -14.6726
   -14.6378 -14.6107 -14.5594 -14.5313 -14.5208 -14.4367 -14.2843 -14.2720
   -14.1392 -14.1200 -14.0587 -14.0442 -14.0421 -14.0357 -14.0339 -14.0233
   -13.9794 -13.9217 -13.7770 -13.6863 -13.0209 -12.7147  -8.1096  -8.1029
    -8.0055  -7.9987  -7.9182  -7.8903  -7.8665  -7.8605  -7.7807  -7.7433
    -7.7372  -7.7044  -7.6984  -7.5994  -7.5785  -7.5728  -7.5667  -7.4857
    -7.4826  -7.4512  -7.3838  -7.3121  -7.1485  -7.0378  -2.9007  -2.8884
    -2.7670  -2.7027  -2.2347  -2.2284  -2.1863  -2.1826  -2.0950  -2.0763
    -2.0727  -2.0114  -1.9730  -1.9434  -1.9034  -1.8812  -1.7981  -1.7699
    -1.7661  -1.7450  -1.7383  -1.6939  -1.5317  -1.5140  -1.4944  -1.4933
    -1.1414  -1.1032  -1.0924  -1.0253  -1.0179  -0.9975  -0.9838  -0.9614
    -0.9575  -0.9560  -0.9521  -0.9303  -0.8530  -0.8239  -0.7547  -0.6877
    -0.6604  -0.6565  -0.4987  -0.4648  -0.4273  -0.4007  -0.3540  -0.3454
    -0.3449  -0.3415  -0.3099  -0.2982  -0.2931  -0.2729  -0.2638  -0.2552
    -0.2520  -0.2457  -0.2413  -0.2062  -0.1846  -0.1545  -0.1006  -0.0325
    -0.0185  -0.0058   0.0015   0.0124   0.0215   0.0363   0.0474   0.1200
     0.2107   0.2331   0.2374   0.2374   0.2531   0.2575   0.2762   0.2793
     0.2845   0.3212   0.3837   0.3931   0.4246   0.4389   0.4677   0.4786
     0.5128   0.5179   0.5217   0.5578   0.5785   0.5995   0.6245   0.6826
     0.6974   0.7063   0.7829   0.8622   0.8627   0.8891   0.9409   0.9849
     1.0065   1.0263   1.0331   1.0408   1.0709   1.0956   1.1169   1.1406
     1.2261   1.2301   1.2655   1.2852   1.2989   1.3212   1.3685   1.3970
     1.4376   1.4516   1.4577   1.5378   1.5401   1.5514   1.5566   1.5773
     1.6754   1.7102   1.7358   1.7642   1.7827   1.8065   1.8237   1.8249
     1.8353   1.8812   1.9724   2.0199   2.0253   2.0290   2.0772   2.1657
     2.2120   2.2172   2.2598   2.4097   2.4122   2.4308   2.4692   2.5142
     2.6226   2.6399   2.6458   2.6712   2.8540   2.8783   5.4122   5.4288
     5.5742   6.1461   6.2324   6.5343   6.5388   6.6487   6.8602   6.8693
     7.1484   7.2832   7.4211   7.4797   7.9633   7.9895   8.0154   8.0579
     8.1305   8.1632   8.2576   8.3870   8.3994   8.4384   8.4768   8.6174
     8.7412   8.7835   8.8243   8.9261   8.9343   9.0873   9.1891   9.3409
     9.4397   9.4562

          k = 0.2500 0.2618 0.0000 ( 69600 PWs)   bands (ev):

   -38.0948 -38.0602 -35.7256 -35.6817 -22.8232 -22.8169 -22.7339 -22.7276
   -22.5956 -22.5934 -22.4560 -22.2538 -18.5303 -18.5005 -18.4517 -18.4175
   -18.2117 -18.1772 -17.0542 -17.0113 -16.9745 -16.9342 -16.8234 -16.7775
   -15.2730 -15.2480 -14.9297 -14.9209 -14.7074 -14.6540 -14.6450 -14.6294
   -14.5993 -14.5750 -14.5198 -14.5030 -14.4997 -14.3989 -14.2456 -14.2314
   -14.1405 -14.1220 -14.1180 -14.0964 -14.0428 -14.0269 -14.0251 -14.0193
   -14.0076 -13.9529 -13.7791 -13.7157 -12.9913 -12.7580  -8.1041  -8.0974
    -8.0329  -8.0266  -7.9793  -7.9733  -7.9149  -7.8992  -7.8937  -7.8923
    -7.7842  -7.6852  -7.6808  -7.6756  -7.6511  -7.6386  -7.6327  -7.6186
    -7.5702  -7.5162  -7.4145  -7.3970  -7.1647  -7.1065  -3.0009  -2.9803
    -2.8156  -2.7509  -2.3860  -2.3756  -2.2892  -2.2382  -2.2026  -2.1969
    -2.1428  -2.1343  -2.0732  -2.0506  -2.0208  -1.9880  -1.9227  -1.8804
    -1.8745  -1.8378  -1.7419  -1.7220  -1.6655  -1.6279  -1.4977  -1.4870
    -1.4610  -1.4393  -1.4017  -1.3950  -1.3845  -1.3789  -1.2811  -1.2670
    -1.2090  -1.1530  -0.9953  -0.9086  -0.8880  -0.8525  -0.7711  -0.7386
    -0.7099  -0.6785  -0.6492  -0.6379  -0.5934  -0.5820  -0.5626  -0.5393
    -0.4664  -0.4459  -0.3576  -0.3403  -0.3091  -0.2893  -0.2820  -0.2416
    -0.1884  -0.1484  -0.1360  -0.1227  -0.0917  -0.0693  -0.0471  -0.0151
    -0.0052   0.0087   0.0266   0.0325   0.0449   0.1409   0.1600   0.1630
     0.1712   0.1772   0.1890   0.2569   0.2943   0.3151   0.3287   0.3390
     0.3409   0.3440   0.3711   0.3836   0.3953   0.4073   0.4112   0.4458
     0.4679   0.4897   0.5227   0.5486   0.6077   0.6146   0.7092   0.7479
     0.7721   0.8192   0.8870   0.9015   0.9312   0.9391   1.0443   1.0785
     1.1112   1.1363   1.1414   1.1550   1.1700   1.1756   1.1999   1.2237
     1.2330   1.2547   1.2774   1.3034   1.3340   1.3415   1.3864   1.3978
     1.4494   1.4538   1.4968   1.5282   1.5299   1.6056   1.6602   1.6763
     1.6797   1.6879   1.7039   1.7120   1.7403   1.7499   1.7699   1.7814
     1.8016   1.8796   1.8851   1.9468   2.0353   2.1601   2.3133   2.3596
     2.4297   2.5093   2.5698   2.6611   2.7847   2.8045   2.8491   2.8991
     2.9116   2.9297   2.9588   2.9714   3.1287   3.1569   5.7410   5.7662
     5.7874   6.3763   6.4338   6.6704   6.6755   6.7576   7.1709   7.1791
     7.4445   7.4774   7.5090   7.6132   7.8496   7.8866   8.0879   8.0940
     8.2251   8.2720   8.4173   8.4792   8.5427   8.5968   8.6273   8.8028
     8.8452   8.8886   8.9643   9.0443   9.0719   9.1823   9.2235   9.2641
     9.2665   9.3070

          k = 0.2500 0.5236 0.0000 ( 69530 PWs)   bands (ev):

   -38.0883 -38.0537 -35.7215 -35.6776 -22.7648 -22.7584 -22.6847 -22.6785
   -22.5478 -22.5370 -22.4075 -22.2024 -18.4519 -18.4345 -18.4308 -18.4179
   -18.4008 -18.4003 -16.9822 -16.9654 -16.9590 -16.9373 -16.9229 -16.9171
   -15.0398 -15.0168 -14.8032 -14.7944 -14.6696 -14.6472 -14.5940 -14.5541
   -14.5007 -14.4775 -14.4582 -14.4107 -14.3432 -14.3147 -14.2720 -14.2474
   -14.1592 -14.1579 -14.1459 -14.1342 -14.0740 -14.0106 -14.0002 -13.9895
   -13.9735 -13.9673 -13.8200 -13.7555 -12.9178 -12.8620  -8.3520  -8.3459
    -8.0989  -8.0928  -8.0864  -8.0623  -8.0554  -7.9993  -7.9929  -7.9241
    -7.9181  -7.9119  -7.8816  -7.8715  -7.8222  -7.7116  -7.7003  -7.6748
    -7.6536  -7.6476  -7.5851  -7.3908  -7.3597  -7.1655  -3.4039  -3.3716
    -3.0543  -2.9927  -2.8768  -2.8589  -2.6793  -2.6341  -2.4317  -2.4253
    -2.3275  -2.2981  -2.2724  -2.2682  -2.2451  -2.2227  -2.2185  -2.1542
    -2.0904  -2.0855  -2.0675  -2.0633  -1.9446  -1.9081  -1.8814  -1.8447
    -1.8390  -1.8156  -1.7463  -1.6909  -1.6056  -1.5780  -1.5743  -1.5498
    -1.2727  -1.2441  -1.1398  -1.0468  -1.0280  -0.9903  -0.9387  -0.9190
    -0.9093  -0.8889  -0.8774  -0.8417  -0.8211  -0.7998  -0.7211  -0.6910
    -0.6114  -0.5860  -0.5346  -0.5150  -0.4839  -0.4762  -0.4560  -0.4308
    -0.4066  -0.3883  -0.3554  -0.3038  -0.2930  -0.2751  -0.2543  -0.2435
    -0.2115  -0.2075  -0.1596  -0.1213   0.0172   0.0250   0.1435   0.1530
     0.1762   0.2312   0.2530   0.2702   0.2773   0.3361   0.3950   0.4006
     0.4642   0.4688   0.5180   0.5289   0.5884   0.6142   0.7445   0.7657
     0.7837   0.8030   0.8789   0.8904   0.9342   0.9725   1.0085   1.0618
     1.0737   1.0907   1.0981   1.1142   1.1349   1.1403   1.1589   1.1770
     1.2422   1.2542   1.2654   1.2698   1.3015   1.3927   1.4007   1.4133
     1.4485   1.4620   1.4869   1.4893   1.4935   1.5403   1.5518   1.5755
     1.5871   1.6103   1.6311   1.6570   1.6604   1.6782   1.7013   1.7311
     1.7457   1.7528   1.7810   1.8127   1.8283   1.8639   1.8651   1.8893
     1.9225   1.9808   2.0524   2.0559   2.1970   2.3713   2.4192   2.5167
     2.5349   2.5691   2.7162   2.8438   3.0825   3.1031   3.1159   3.1468
     3.3287   3.3551   3.6906   3.7011   3.8029   3.8239   6.0523   6.5753
     6.5800   6.6628   6.6688   6.9818   7.0415   7.0558   7.1678   7.2124
     8.0025   8.0085   8.1485   8.1699   8.2908   8.3566   8.3821   8.4191
     8.4213   8.4555   8.5364   8.7378   8.7508   8.8122   8.8482   8.9992
     9.0574   9.0729   9.1811   9.2532   9.2999   9.3227   9.3556   9.4030
     9.5095   9.5431

          k = 0.2500 0.7854 0.0000 ( 69586 PWs)   bands (ev):

   -38.0818 -38.0472 -35.7174 -35.6734 -22.7046 -22.6982 -22.6343 -22.6281
   -22.4993 -22.4788 -22.3578 -22.1496 -18.6604 -18.6269 -18.4173 -18.3831
   -18.3255 -18.2951 -17.0983 -17.0523 -16.9470 -16.9064 -16.8957 -16.8531
   -14.8480 -14.8378 -14.7230 -14.6868 -14.6591 -14.6496 -14.5532 -14.5273
   -14.5032 -14.4837 -14.3804 -14.3079 -14.2901 -14.2553 -14.2413 -14.2080
   -14.1949 -14.1526 -14.0817 -14.0763 -14.0401 -14.0041 -13.9484 -13.9416
   -13.9252 -13.9186 -13.8842 -13.8070 -12.9632 -12.8408  -8.6282  -8.6220
    -8.3605  -8.2670  -8.2610  -8.1880  -8.1253  -8.1191  -8.0463  -8.0395
    -8.0019  -7.9951  -7.9943  -7.9047  -7.8778  -7.8646  -7.8500  -7.7028
    -7.6967  -7.6743  -7.6007  -7.5203  -7.4274  -7.2435  -3.8861  -3.8548
    -3.4689  -3.4123  -3.2998  -3.2848  -3.0671  -3.0159  -2.8315  -2.8262
    -2.8019  -2.7847  -2.7795  -2.7190  -2.5397  -2.5349  -2.4129  -2.3746
    -2.2285  -2.2081  -2.1988  -2.1895  -2.1161  -2.1130  -1.8791  -1.8418
    -1.8394  -1.7865  -1.7688  -1.7360  -1.7263  -1.6941  -1.6654  -1.6466
    -1.3728  -1.3682  -1.3541  -1.2374  -1.2146  -1.2071  -1.1799  -1.1142
    -1.0786  -1.0632  -1.0421  -1.0334  -0.9600  -0.9483  -0.8136  -0.7589
    -0.7519  -0.7483  -0.7414  -0.7330  -0.6929  -0.6909  -0.6782  -0.6515
    -0.5993  -0.5908  -0.5766  -0.5129  -0.4672  -0.4599  -0.4331  -0.2496
    -0.2388  -0.2250  -0.2052  -0.1388  -0.0373  -0.0261   0.1546   0.1881
     0.2431   0.2518   0.2855   0.3253   0.3637   0.3911   0.4037   0.4170
     0.4471   0.5543   0.6995   0.7102   0.7226   0.7802   0.9021   0.9433
     0.9922   0.9998   1.0118   1.0929   1.1591   1.1685   1.1837   1.2009
     1.2254   1.2326   1.2650   1.2890   1.3323   1.3397   1.3657   1.3842
     1.3938   1.4103   1.4414   1.4616   1.5304   1.5324   1.5457   1.5599
     1.5992   1.6442   1.6575   1.7059   1.7283   1.7457   1.7752   1.7805
     1.7941   1.8085   1.8287   1.8308   1.8417   1.8738   1.8989   1.9027
     1.9071   1.9330   1.9577   2.0161   2.0500   2.0914   2.1143   2.1585
     2.2525   2.3010   2.3060   2.3903   2.4573   2.4590   2.4641   2.5150
     2.5490   2.6110   2.7097   2.7841   2.9331   2.9578   3.0509   3.0977
     3.4030   3.4961   4.2083   4.2223   4.2917   4.3069   6.0320   6.3189
     6.3241   6.8362   6.8938   7.2910   7.3041   7.3698   7.7443   7.7897
     8.1902   8.2317   8.4190   8.4832   8.6112   8.6205   8.6943   8.7806
     8.8820   8.9318   8.9678   9.0629   9.1631   9.1987   9.2245   9.2972
     9.3030   9.3701   9.4308   9.4579   9.4753   9.5356   9.5707   9.6352
     9.7620   9.7848

          k = 0.2500-1.0472 0.0000 ( 69548 PWs)   bands (ev):

   -38.0790 -38.0444 -35.7157 -35.6717 -22.6792 -22.6728 -22.6131 -22.6069
   -22.4789 -22.4543 -22.3369 -22.1273 -18.7410 -18.7075 -18.4102 -18.3760
   -18.2785 -18.2479 -17.1488 -17.1028 -16.9417 -16.9010 -16.8595 -16.8170
   -14.8669 -14.8534 -14.6410 -14.6333 -14.6167 -14.6124 -14.5442 -14.5233
   -14.5086 -14.4902 -14.4114 -14.3112 -14.2369 -14.2315 -14.2046 -14.2014
   -14.1725 -14.0951 -14.0871 -14.0183 -13.9784 -13.9619 -13.9292 -13.9206
   -13.9143 -13.9075 -13.9012 -13.8813 -13.0037 -12.8078  -8.7141  -8.7079
    -8.4564  -8.4178  -8.4118  -8.2691  -8.1273  -8.1118  -8.1057  -8.0541
    -8.0475  -7.9989  -7.9924  -7.9879  -7.9106  -7.8878  -7.8426  -7.7431
    -7.7370  -7.6634  -7.6081  -7.5189  -7.4528  -7.3054  -4.0845  -4.0541
    -3.6566  -3.6010  -3.4611  -3.4473  -3.2263  -3.1700  -3.0660  -3.0602
    -3.0157  -3.0128  -3.0104  -2.9351  -2.5565  -2.5516  -2.4194  -2.3780
    -2.3631  -2.3359  -2.2207  -2.2177  -2.1102  -2.1073  -1.9157  -1.8774
    -1.8163  -1.7733  -1.7582  -1.7122  -1.6807  -1.6553  -1.6353  -1.6299
    -1.5696  -1.5078  -1.4208  -1.4102  -1.3707  -1.3005  -1.2732  -1.1937
    -1.1221  -1.1030  -1.0904  -1.0860  -0.9721  -0.9539  -0.8771  -0.8430
    -0.8344  -0.8276  -0.8239  -0.8079  -0.7792  -0.7647  -0.7476  -0.6931
    -0.6873  -0.6828  -0.6754  -0.5856  -0.5141  -0.4444  -0.4339  -0.2390
    -0.2154  -0.2136  -0.1983  -0.1135  -0.0643  -0.0484   0.1604   0.1979
     0.2253   0.2513   0.2832   0.3317   0.3514   0.3615   0.3742   0.4036
     0.4587   0.5698   0.7535   0.7775   0.8078   0.8482   1.0051   1.0164
     1.0353   1.0666   1.0685   1.1264   1.1915   1.2275   1.2514   1.2532
     1.2597   1.2767   1.2988   1.3361   1.3514   1.4078   1.4158   1.4199
     1.4215   1.4295   1.4540   1.4870   1.5811   1.5927   1.6115   1.6265
     1.6646   1.6792   1.7813   1.7848   1.8526   1.8655   1.8774   1.9212
     1.9292   1.9367   1.9511   1.9512   1.9737   1.9739   2.0026   2.0996
     2.1107   2.1282   2.1432   2.2101   2.2169   2.2242   2.2319   2.2933
     2.4285   2.4288   2.4426   2.4758   2.4960   2.5010   2.5118   2.5940
     2.6093   2.6266   2.6316   2.6355   2.7086   2.7393   2.9208   2.9781
     3.3534   3.4959   4.3551   4.3717   4.4490   4.4620   5.9593   6.1286
     6.1337   6.7235   6.7931   7.5043   7.5095   7.5616   7.9317   7.9751
     8.1528   8.2563   8.3185   8.3660   8.8016   8.8321   9.0046   9.0284
     9.1687   9.1972   9.2207   9.2656   9.2807   9.3116   9.3218   9.4051
     9.4090   9.4549   9.4873   9.5578   9.6215   9.6530   9.7280   9.7282
     9.7873   9.9413

          k = 0.3750 0.0000 0.0000 ( 69652 PWs)   bands (ev):

   -38.0975 -38.0629 -35.7273 -35.6834 -22.8289 -22.8225 -22.7727 -22.7666
   -22.6120 -22.6074 -22.4857 -22.2779 -18.5671 -18.5374 -18.4508 -18.4166
   -18.1009 -18.0661 -17.0912 -17.0484 -17.0084 -16.9684 -16.7578 -16.7118
   -15.2810 -15.2568 -14.9588 -14.9471 -14.7990 -14.7518 -14.7074 -14.6832
   -14.6455 -14.6232 -14.5641 -14.5426 -14.5280 -14.4648 -14.2648 -14.2476
   -14.1220 -14.1057 -14.0616 -14.0508 -14.0457 -14.0405 -14.0397 -14.0277
   -13.9897 -13.9288 -13.7841 -13.6918 -12.9556 -12.7868  -8.1137  -8.1070
    -8.0112  -8.0044  -7.9169  -7.9015  -7.8263  -7.8204  -7.7952  -7.7332
    -7.7271  -7.7085  -7.7022  -7.6103  -7.6092  -7.6042  -7.5461  -7.4766
    -7.4533  -7.4429  -7.3752  -7.3435  -7.1599  -7.0480  -2.7450  -2.7331
    -2.6266  -2.5618  -2.3668  -2.3586  -2.2414  -2.1730  -2.1580  -2.1362
    -2.0845  -2.0665  -2.0482  -2.0420  -1.8953  -1.8737  -1.7874  -1.7863
    -1.7649  -1.7634  -1.7304  -1.7068  -1.5656  -1.5442  -1.4860  -1.4448
    -1.1268  -1.0960  -1.0701  -1.0403  -0.9635  -0.9592  -0.9556  -0.9539
    -0.9505  -0.8798  -0.8768  -0.8674  -0.7771  -0.7523  -0.7191  -0.7067
    -0.6141  -0.5744  -0.5703  -0.5105  -0.4707  -0.4604  -0.4253  -0.4010
    -0.3968  -0.3740  -0.3448  -0.3420  -0.3376  -0.3307  -0.3132  -0.2922
    -0.2659  -0.2440  -0.2368  -0.2067  -0.1614  -0.1570  -0.1078  -0.0517
    -0.0480  -0.0285  -0.0195  -0.0143  -0.0079   0.0340   0.0517   0.1185
     0.1747   0.2362   0.2399   0.2442   0.2536   0.2579   0.3163   0.3497
     0.3542   0.3575   0.4132   0.4304   0.4366   0.4691   0.4816   0.4888
     0.5048   0.5305   0.5450   0.5563   0.5662   0.6020   0.6555   0.6926
     0.7145   0.7304   0.7861   0.8041   0.8284   0.8327   0.8781   0.8827
     0.9159   0.9338   1.0167   1.0259   1.0404   1.1011   1.1768   1.1993
     1.2339   1.2632   1.2898   1.3427   1.3442   1.3533   1.3672   1.3846
     1.4550   1.4604   1.4653   1.4995   1.5064   1.5402   1.5461   1.5567
     1.5666   1.6592   1.6852   1.7193   1.7477   1.8448   1.8544   1.9056
     1.9168   1.9208   1.9731   1.9799   2.0161   2.0559   2.1153   2.1715
     2.1828   2.2362   2.2706   2.3175   2.4171   2.4428   2.5138   2.5548
     2.6371   2.6525   2.6742   2.6846   2.8084   2.8352   5.6248   5.6327
     5.7325   6.1881   6.1927   6.3231   6.3891   6.5340   7.1009   7.1193
     7.1812   7.2204   7.3857   7.5424   7.8291   7.8363   8.0810   8.1334
     8.1369   8.1660   8.1724   8.3761   8.4234   8.4773   8.5424   8.6173
     8.7608   8.8533   8.8971   9.0593   9.0686   9.0840   9.1743   9.2660
     9.3018   9.4055

          k = 0.3750 0.2618 0.0000 ( 69622 PWs)   bands (ev):

   -38.0948 -38.0602 -35.7256 -35.6817 -22.8061 -22.7996 -22.7517 -22.7456
   -22.5928 -22.5850 -22.4654 -22.2567 -18.5286 -18.4988 -18.4437 -18.4096
   -18.2117 -18.1772 -17.0610 -17.0182 -17.0009 -16.9608 -16.8232 -16.7774
   -15.1780 -15.1540 -14.9079 -14.8981 -14.7393 -14.6899 -14.6861 -14.6579
   -14.6088 -14.5927 -14.5401 -14.5193 -14.4792 -14.4230 -14.2275 -14.2092
   -14.1339 -14.1189 -14.1138 -14.1032 -14.0473 -14.0310 -14.0259 -14.0242
   -14.0112 -13.9554 -13.7906 -13.7126 -12.9403 -12.8117  -8.1139  -8.1073
    -8.0582  -8.0520  -8.0061  -7.9999  -7.9231  -7.9160  -7.9157  -7.9022
    -7.8189  -7.7004  -7.6705  -7.6448  -7.6294  -7.6234  -7.5982  -7.5921
    -7.5877  -7.5326  -7.3735  -7.3530  -7.1316  -7.0766  -2.8418  -2.8210
    -2.6662  -2.6021  -2.4828  -2.4677  -2.3478  -2.2807  -2.1868  -2.1790
    -2.1683  -2.1596  -2.0979  -2.0671  -2.0658  -2.0461  -2.0328  -2.0146
    -1.9112  -1.8798  -1.7387  -1.7195  -1.6683  -1.6188  -1.4946  -1.4853
    -1.4319  -1.4056  -1.3968  -1.3890  -1.3854  -1.3835  -1.1676  -1.1483
    -1.0822  -1.0347  -0.9704  -0.9281  -0.9038  -0.8933  -0.8559  -0.8451
    -0.7396  -0.7184  -0.7101  -0.6836  -0.6716  -0.6459  -0.5954  -0.5874
    -0.5308  -0.5170  -0.3964  -0.3597  -0.3190  -0.2737  -0.2545  -0.2204
    -0.1764  -0.1578  -0.1403  -0.1226  -0.0914  -0.0836  -0.0479  -0.0276
    -0.0154  -0.0043   0.0016   0.0591   0.0637   0.1275   0.1468   0.1472
     0.1575   0.1916   0.2062   0.2555   0.2889   0.3271   0.3389   0.3468
     0.3811   0.3833   0.3885   0.3944   0.4071   0.4188   0.4301   0.4544
     0.4743   0.5072   0.5309   0.5451   0.6001   0.6561   0.7158   0.7329
     0.7600   0.8289   0.9040   0.9162   0.9384   0.9539   1.0088   1.0324
     1.0516   1.0683   1.1220   1.1294   1.1898   1.2255   1.2475   1.2498
     1.2564   1.2581   1.2727   1.2798   1.3194   1.3286   1.3885   1.3970
     1.4742   1.4895   1.5029   1.5255   1.5335   1.5712   1.5857   1.6121
     1.6299   1.6415   1.6477   1.6614   1.6877   1.7601   1.7637   1.7921
     1.7985   1.8090   1.8981   1.9244   2.1440   2.2551   2.4929   2.5223
     2.5433   2.5745   2.6791   2.7470   2.7535   2.7794   2.8679   2.9051
     2.9100   2.9304   2.9455   2.9587   3.0639   3.0925   5.8671   5.9302
     5.9350   6.3928   6.3973   6.5288   6.5784   6.6712   7.2525   7.2915
     7.4272   7.4355   7.6909   7.8352   7.9124   7.9629   8.0588   8.0667
     8.2518   8.2875   8.4056   8.5191   8.5456   8.6135   8.6897   8.7120
     8.7531   8.8553   8.8841   9.0855   9.1255   9.1551   9.1820   9.2213
     9.2408   9.2725

          k = 0.3750 0.5236 0.0000 ( 69533 PWs)   bands (ev):

   -38.0883 -38.0537 -35.7215 -35.6776 -22.7500 -22.7435 -22.7000 -22.6939
   -22.5458 -22.5297 -22.4153 -22.2047 -18.4518 -18.4294 -18.4268 -18.4178
   -18.3994 -18.3926 -16.9876 -16.9837 -16.9650 -16.9450 -16.9419 -16.9206
   -14.9510 -14.9299 -14.7945 -14.7870 -14.6644 -14.6414 -14.5998 -14.5379
   -14.5127 -14.5020 -14.4972 -14.4800 -14.3426 -14.3232 -14.2790 -14.2573
   -14.1843 -14.1658 -14.1475 -14.1211 -14.0597 -13.9988 -13.9958 -13.9840
   -13.9787 -13.9725 -13.8217 -13.7561 -12.9044 -12.8735  -8.3501  -8.3441
    -8.2126  -8.2065  -8.0805  -8.0616  -8.0547  -7.9940  -7.9875  -7.9440
    -7.9227  -7.8766  -7.8650  -7.8072  -7.8011  -7.7702  -7.7058  -7.6564
    -7.6504  -7.5911  -7.5691  -7.3957  -7.2897  -7.1666  -3.2585  -3.2276
    -2.9604  -2.9391  -2.9064  -2.8445  -2.7093  -2.6604  -2.3981  -2.3924
    -2.3004  -2.2874  -2.2859  -2.2625  -2.2362  -2.2158  -2.2113  -2.1621
    -2.1286  -2.1220  -2.0842  -2.0614  -2.0582  -2.0214  -2.0065  -2.0010
    -1.7346  -1.7027  -1.6791  -1.6650  -1.5472  -1.5312  -1.5063  -1.4733
    -1.3405  -1.3101  -1.2320  -1.2121  -1.1712  -1.1111  -1.0429  -0.9914
    -0.9836  -0.9426  -0.9027  -0.8729  -0.8551  -0.8365  -0.6678  -0.6554
    -0.6360  -0.5964  -0.5535  -0.5214  -0.4632  -0.4545  -0.4326  -0.4147
    -0.4125  -0.3718  -0.3598  -0.3058  -0.2883  -0.2733  -0.2578  -0.2310
    -0.2202  -0.1951  -0.1604  -0.1395  -0.1088  -0.0942   0.1388   0.1458
     0.2033   0.2593   0.2956   0.3203   0.3279   0.3959   0.4401   0.4410
     0.5081   0.5252   0.5578   0.5818   0.6029   0.6250   0.7295   0.7850
     0.8231   0.8665   0.9062   0.9286   0.9640   0.9822   0.9885   1.0065
     1.0293   1.0517   1.0825   1.0909   1.0967   1.0990   1.1223   1.1424
     1.1754   1.1941   1.2451   1.3091   1.3203   1.3515   1.3804   1.4263
     1.4484   1.4584   1.5016   1.5283   1.5442   1.5465   1.5595   1.5673
     1.5692   1.5951   1.6024   1.6194   1.6329   1.6560   1.6660   1.7027
     1.7078   1.7320   1.7537   1.7887   1.8475   1.8620   1.8851   1.9229
     1.9278   1.9899   2.0145   2.0183   2.3314   2.4242   2.5066   2.5550
     2.8844   2.9033   3.0201   3.0567   3.0862   3.1051   3.1463   3.2001
     3.3241   3.3614   3.5113   3.5231   3.6421   3.6651   6.0997   6.6232
     6.6282   6.6764   6.6824   7.0017   7.1120   7.1422   7.2089   7.2612
     8.0649   8.1099   8.1791   8.1877   8.2278   8.2701   8.3646   8.3739
     8.4326   8.5668   8.6485   8.7330   8.7487   8.9140   8.9618   9.0293
     9.0634   9.1334   9.1704   9.1721   9.2003   9.2739   9.2954   9.3399
     9.3724   9.4240

          k = 0.3750 0.7854 0.0000 ( 69590 PWs)   bands (ev):

   -38.0818 -38.0472 -35.7174 -35.6735 -22.6924 -22.6859 -22.6469 -22.6408
   -22.4978 -22.4730 -22.3640 -22.1514 -18.6604 -18.6268 -18.4098 -18.3756
   -18.3243 -18.2939 -17.0983 -17.0523 -16.9692 -16.9288 -16.9008 -16.8583
   -14.7963 -14.7873 -14.6908 -14.6824 -14.6516 -14.6124 -14.5285 -14.5110
   -14.4905 -14.4626 -14.4049 -14.3333 -14.3324 -14.3025 -14.2774 -14.2361
   -14.2161 -14.1759 -14.0720 -14.0647 -14.0388 -14.0093 -13.9434 -13.9367
   -13.9295 -13.9226 -13.8766 -13.8145 -12.9362 -12.8695  -8.5468  -8.5407
    -8.2818  -8.2744  -8.2683  -8.1262  -8.1218  -8.1157  -8.0373  -8.0304
    -8.0168  -8.0069  -8.0009  -7.9036  -7.8690  -7.8468  -7.8300  -7.8077
    -7.8016  -7.6741  -7.6110  -7.5382  -7.5231  -7.3295  -3.7439  -3.7153
    -3.3860  -3.3676  -3.3430  -3.2883  -3.1189  -3.0639  -2.8207  -2.8155
    -2.7954  -2.7926  -2.7901  -2.7271  -2.4608  -2.4552  -2.3320  -2.2852
    -2.2386  -2.2341  -2.1056  -2.1012  -2.0874  -2.0641  -2.0302  -1.9706
    -1.9623  -1.9252  -1.7560  -1.7254  -1.7180  -1.6976  -1.6185  -1.6027
    -1.5808  -1.5702  -1.5000  -1.4357  -1.2977  -1.2680  -1.2128  -1.1165
    -1.0964  -1.0729  -1.0639  -1.0448  -0.9018  -0.8851  -0.8292  -0.7908
    -0.7624  -0.7494  -0.7146  -0.7035  -0.6670  -0.6529  -0.6292  -0.6163
    -0.6084  -0.5672  -0.5530  -0.5075  -0.4777  -0.4566  -0.3694  -0.2978
    -0.2921  -0.2595  -0.2067  -0.1916  -0.1720  -0.1576   0.1659   0.2269
     0.2517   0.3621   0.3820   0.3913   0.3949   0.5012   0.5048   0.5261
     0.5490   0.6141   0.6239   0.6664   0.8314   0.8793   0.9300   0.9616
     0.9958   1.0173   1.0319   1.0589   1.0720   1.1022   1.1220   1.1539
     1.1668   1.2500   1.2825   1.2899   1.3492   1.3581   1.3751   1.3896
     1.4137   1.4187   1.4357   1.4543   1.4751   1.4967   1.5093   1.5588
     1.5974   1.6109   1.6293   1.6768   1.6951   1.7374   1.7464   1.7669
     1.7791   1.7988   1.8123   1.8230   1.8469   1.8663   1.8775   1.8988
     1.9037   1.9441   1.9589   1.9873   2.0012   2.0479   2.1023   2.1767
     2.2216   2.3381   2.3430   2.3983   2.4240   2.4290   2.4860   2.5679
     2.8773   2.8873   2.9380   2.9615   3.0365   3.0641   3.2343   3.3030
     3.4060   3.5077   3.8987   3.9136   4.0168   4.0334   6.1643   6.5491
     6.5559   6.9306   6.9875   7.1131   7.1234   7.2648   7.6369   7.6782
     8.1322   8.1726   8.4003   8.4502   8.6506   8.6609   8.6969   8.7489
     8.8836   8.9052   8.9231   9.0052   9.2402   9.3045   9.3412   9.3741
     9.4338   9.4449   9.5092   9.5352   9.6020   9.6411   9.6781   9.7875
     9.7882   9.8719

          k = 0.3750-1.0472 0.0000 ( 69570 PWs)   bands (ev):

   -38.0790 -38.0444 -35.7157 -35.6717 -22.6682 -22.6616 -22.6244 -22.6183
   -22.4776 -22.4491 -22.3424 -22.1289 -18.7409 -18.7074 -18.4028 -18.3685
   -18.2773 -18.2467 -17.1488 -17.1029 -16.9631 -16.9227 -16.8643 -16.8219
   -14.8193 -14.8051 -14.6728 -14.6604 -14.5607 -14.5466 -14.5370 -14.5264
   -14.4627 -14.4461 -14.4116 -14.3082 -14.2741 -14.2721 -14.2469 -14.2416
   -14.2131 -14.1332 -14.0689 -14.0057 -14.0035 -13.9633 -13.9298 -13.9179
   -13.9116 -13.9108 -13.9045 -13.8815 -12.9618 -12.8552  -8.5826  -8.5764
    -8.3332  -8.2797  -8.2736  -8.2545  -8.2484  -8.1718  -8.0393  -8.0326
    -8.0188  -8.0145  -8.0078  -8.0042  -7.9103  -7.9074  -7.9038  -7.8713
    -7.8416  -7.6630  -7.6211  -7.6202  -7.5904  -7.4493  -3.9406  -3.9133
    -3.5495  -3.5326  -3.5320  -3.4789  -3.2847  -3.2252  -3.0547  -3.0492
    -3.0273  -3.0220  -3.0053  -2.9428  -2.4656  -2.4600  -2.3212  -2.2725
    -2.2410  -2.2382  -2.2318  -2.2162  -2.0997  -2.0951  -1.9808  -1.9155
    -1.8924  -1.8652  -1.8224  -1.7991  -1.7731  -1.7452  -1.7433  -1.7134
    -1.6938  -1.6454  -1.6000  -1.5528  -1.3407  -1.3099  -1.2577  -1.1659
    -1.1400  -1.1258  -1.1221  -1.1031  -0.9144  -0.8934  -0.8789  -0.8758
    -0.8544  -0.8249  -0.7516  -0.7474  -0.7407  -0.7380  -0.7041  -0.6906
    -0.6547  -0.6524  -0.6012  -0.5986  -0.5104  -0.4636  -0.3873  -0.2951
    -0.2859  -0.2746  -0.2213  -0.2112  -0.1801  -0.1526   0.1808   0.2602
     0.2780   0.3933   0.4184   0.4229   0.4306   0.4391   0.4608   0.5187
     0.5579   0.6205   0.6389   0.7041   0.9384   0.9634   0.9902   1.0713
[...]
    -0.8427  -0.8223  -0.8066  -0.7624  -0.6917  -0.6709  -0.5866  -0.5721
    -0.4824  -0.4751  -0.4589  -0.4215  -0.3217  -0.2664  -0.2311  -0.2070
    -0.1825  -0.1769  -0.1425  -0.1200  -0.1123  -0.0660  -0.0589  -0.0566
    -0.0151  -0.0001   0.0113   0.0719   0.0825   0.1307   0.1393   0.1427
     0.1564   0.2007   0.2176   0.2548   0.2842   0.3251   0.3453   0.3507
     0.3865   0.3904   0.4048   0.4052   0.4331   0.4376   0.4481   0.4584
     0.4696   0.4783   0.5099   0.5418   0.6193   0.6792   0.7046   0.7433
     0.7909   0.8341   0.8996   0.9147   0.9437   0.9575   0.9602   0.9757
     1.0525   1.0598   1.0819   1.0893   1.1864   1.2404   1.2593   1.2692
     1.2814   1.2920   1.3141   1.3230   1.3241   1.3896   1.4085   1.4293
     1.4393   1.4522   1.4685   1.4871   1.5238   1.5577   1.5730   1.5778
     1.5814   1.6038   1.6448   1.6482   1.6794   1.7161   1.7869   1.7895
     1.7899   1.7939   1.9147   1.9266   2.2202   2.2451   2.5641   2.5709
     2.5956   2.6154   2.7001   2.7384   2.7955   2.8459   2.8760   2.9032
     2.9125   2.9271   2.9316   2.9835   2.9953   3.0214   5.9203   6.1339
     6.1381   6.1513   6.1559   6.5521   6.6809   6.7220   7.1099   7.1565
     7.7108   7.7192   7.7643   7.7727   7.9077   7.9603   8.0163   8.0428
     8.1536   8.2623   8.3227   8.4491   8.5716   8.6254   8.7249   8.7387
     8.8605   8.8916   8.9252   8.9402   9.0748   9.1275   9.1652   9.2008
     9.2147   9.2428

          k =-0.5000 0.5236 0.0000 ( 69550 PWs)   bands (ev):

   -38.0883 -38.0537 -35.7215 -35.6776 -22.7400 -22.7333 -22.7103 -22.7042
   -22.5450 -22.5264 -22.4189 -22.2057 -18.4517 -18.4288 -18.4236 -18.4177
   -18.3988 -18.3893 -16.9943 -16.9888 -16.9655 -16.9541 -16.9449 -16.9209
   -14.8929 -14.8744 -14.8063 -14.7973 -14.6608 -14.6373 -14.6214 -14.5556
   -14.5193 -14.5110 -14.5061 -14.4832 -14.3340 -14.3325 -14.2813 -14.2614
   -14.1974 -14.1761 -14.1440 -14.1169 -14.0539 -13.9936 -13.9896 -13.9876
   -13.9814 -13.9733 -13.8226 -13.7562 -12.8918 -12.8853  -8.3162  -8.3101
    -8.2870  -8.2810  -8.0612  -8.0542  -8.0466  -8.0132  -7.9934  -7.9869
    -7.9090  -7.8726  -7.8723  -7.8125  -7.7175  -7.7111  -7.7063  -7.7051
    -7.7001  -7.5897  -7.5090  -7.4209  -7.2250  -7.2021  -3.1345  -3.1055
    -3.0507  -3.0266  -2.7904  -2.7748  -2.7261  -2.7255  -2.3603  -2.3551
    -2.3209  -2.3154  -2.2453  -2.2369  -2.2080  -2.1994  -2.1935  -2.1878
    -2.1760  -2.1745  -2.1652  -2.1411  -2.0569  -2.0527  -2.0349  -2.0305
    -1.7237  -1.7026  -1.5228  -1.5107  -1.5098  -1.4882  -1.4659  -1.4503
    -1.3857  -1.3785  -1.3711  -1.3331  -1.2820  -1.2285  -1.0468  -1.0247
    -0.9947  -0.9468  -0.9251  -0.8697  -0.8362  -0.8237  -0.6832  -0.6742
    -0.5967  -0.5912  -0.5693  -0.5388  -0.4452  -0.4371  -0.4340  -0.4250
    -0.3694  -0.3531  -0.3249  -0.3197  -0.3159  -0.2949  -0.2650  -0.2577
    -0.2266  -0.1852  -0.1702  -0.1574  -0.1381  -0.1330   0.1417   0.1423
     0.2343   0.2399   0.3391   0.3592   0.3656   0.4035   0.4461   0.4847
     0.4866   0.5177   0.5832   0.5873   0.6285   0.6640   0.7533   0.8004
     0.8207   0.8617   0.9243   0.9585   0.9622   0.9881   0.9989   0.9989
     1.0221   1.0240   1.0693   1.0790   1.0817   1.0820   1.0863   1.0934
     1.1503   1.1843   1.2378   1.3145   1.3442   1.3619   1.3823   1.4482
     1.4583   1.4824   1.4844   1.5105   1.5112   1.5160   1.5437   1.5493
     1.5688   1.5867   1.5928   1.6140   1.6151   1.6394   1.6771   1.7119
     1.7235   1.7268   1.7708   1.7809   1.8117   1.8599   1.9173   1.9653
     1.9696   1.9709   1.9754   1.9851   2.4009   2.4237   2.5231   2.5667
     3.0571   3.0695   3.0829   3.1023   3.2232   3.2397   3.2666   3.2892
     3.2960   3.3378   3.3864   3.4141   3.4463   3.4721   6.1197   6.6494
     6.6550   6.6768   6.6824   7.0073   7.1647   7.2047   7.2247   7.2441
     8.0225   8.0801   8.1620   8.2122   8.3048   8.3111   8.3273   8.3330
     8.4662   8.6558   8.7457   8.7674   8.8294   8.9170   8.9581   9.0440
     9.0491   9.1210   9.1388   9.1754   9.1888   9.2097   9.2528   9.3114
     9.3932   9.4195

          k =-0.5000 0.7854 0.0000 ( 69602 PWs)   bands (ev):

   -38.0818 -38.0472 -35.7174 -35.6735 -22.6847 -22.6780 -22.6548 -22.6488
   -22.4972 -22.4704 -22.3668 -22.1521 -18.6603 -18.6268 -18.4067 -18.3724
   -18.3237 -18.2933 -17.0982 -17.0522 -16.9783 -16.9380 -16.9030 -16.8605
   -14.7554 -14.7456 -14.7259 -14.7190 -14.6057 -14.5661 -14.5096 -14.4974
   -14.4880 -14.4502 -14.4432 -14.3868 -14.3225 -14.3133 -14.2970 -14.2624
   -14.2011 -14.1968 -14.0698 -14.0548 -14.0392 -14.0153 -13.9394 -13.9333
   -13.9328 -13.9260 -13.8729 -13.8182 -12.9083 -12.8981  -8.4429  -8.4367
    -8.4042  -8.3981  -8.1969  -8.1228  -8.0814  -8.0407  -8.0338  -8.0257
    -8.0193  -7.9465  -7.9457  -7.9403  -7.9397  -7.9018  -7.8675  -7.8562
    -7.7637  -7.6688  -7.6277  -7.5915  -7.4535  -7.4356  -3.6454  -3.6201
    -3.4599  -3.4367  -3.2528  -3.2072  -3.1771  -3.1132  -2.8085  -2.8075
    -2.8033  -2.8022  -2.7880  -2.7311  -2.3806  -2.3748  -2.3017  -2.2954
    -2.2075  -2.1970  -2.1529  -2.1313  -2.0781  -2.0707  -2.0479  -2.0389
    -1.9395  -1.9158  -1.8045  -1.7836  -1.7171  -1.6986  -1.6704  -1.6597
    -1.6298  -1.6262  -1.4926  -1.4630  -1.3651  -1.3308  -1.1432  -1.1158
    -1.1148  -1.1006  -1.0703  -1.0491  -0.8538  -0.8368  -0.8353  -0.8049
    -0.7709  -0.7491  -0.7404  -0.7262  -0.6448  -0.6419  -0.6330  -0.6286
    -0.5572  -0.5303  -0.5061  -0.5036  -0.4866  -0.4314  -0.3467  -0.3301
    -0.3294  -0.3235  -0.2518  -0.2155  -0.2024  -0.1885   0.1851   0.2104
     0.3234   0.3359   0.4273   0.4520   0.4627   0.4744   0.5275   0.5622
     0.5725   0.6051   0.6815   0.7557   0.7685   0.9184   0.9864   0.9945
     1.0005   1.0247   1.0250   1.0542   1.0580   1.0859   1.0892   1.1111
     1.1569   1.2110   1.2862   1.3137   1.3146   1.3251   1.3732   1.3839
     1.3970   1.4023   1.4208   1.4446   1.4516   1.5634   1.5676   1.5702
     1.5893   1.6140   1.6161   1.6284   1.7113   1.7216   1.7469   1.7571
     1.7929   1.7936   1.7964   1.8128   1.8265   1.8320   1.8475   1.8628
     1.8855   1.9146   1.9494   1.9759   2.0454   2.0651   2.0928   2.1727
     2.2871   2.3544   2.3764   2.3814   2.3867   2.3917   2.4767   2.5431
     2.9245   2.9374   2.9451   2.9653   3.3754   3.4254   3.4785   3.5073
     3.5148   3.5274   3.6439   3.6663   3.6851   3.7085   6.2293   6.7951
     6.8004   6.8258   6.8468   7.0406   7.0975   7.2066   7.5691   7.6080
     8.1227   8.1617   8.3907   8.4426   8.6801   8.7226   8.7270   8.7535
     8.7966   8.8243   8.8932   8.9793   9.2456   9.2998   9.5225   9.5275
     9.5366   9.5514   9.5931   9.6006   9.6495   9.6830   9.6961   9.7385
     9.8267   9.8277

          k =-0.5000-1.0472 0.0000 ( 69548 PWs)   bands (ev):

   -38.0790 -38.0444 -35.7157 -35.6717 -22.6613 -22.6547 -22.6314 -22.6254
   -22.4770 -22.4467 -22.3448 -22.1295 -18.7408 -18.7074 -18.3997 -18.3654
   -18.2768 -18.2462 -17.1489 -17.1029 -16.9719 -16.9316 -16.8663 -16.8239
   -14.7823 -14.7659 -14.7097 -14.7013 -14.5591 -14.5381 -14.4902 -14.4712
   -14.4386 -14.4251 -14.4136 -14.3183 -14.3078 -14.3006 -14.2849 -14.2723
   -14.1897 -14.1650 -14.0390 -14.0361 -13.9945 -13.9678 -13.9300 -13.9149
   -13.9141 -13.9086 -13.9078 -13.8815 -12.9174 -12.9020  -8.4463  -8.4401
    -8.3954  -8.3894  -8.2174  -8.1378  -8.1213  -8.1190  -8.1149  -8.0976
    -8.0917  -8.0195  -8.0167  -8.0129  -8.0101  -7.9083  -7.9074  -7.8377
    -7.7990  -7.7066  -7.6746  -7.6629  -7.5988  -7.5488  -3.8460  -3.8220
    -3.6200  -3.5979  -3.4473  -3.4013  -3.3415  -3.2748  -3.0415  -3.0406
    -3.0361  -3.0352  -3.0015  -2.9467  -2.3859  -2.3806  -2.2784  -2.2714
    -2.1873  -2.1475  -2.1388  -2.1161  -2.1152  -2.1005  -2.0332  -2.0227
    -2.0069  -1.9837  -1.9481  -1.9366  -1.8540  -1.7919  -1.7722  -1.7346
    -1.7151  -1.6889  -1.5108  -1.4821  -1.3922  -1.3597  -1.1785  -1.1658
    -1.1536  -1.1516  -1.1294  -1.1111  -0.9298  -0.9004  -0.8600  -0.8324
    -0.8295  -0.8139  -0.7554  -0.7419  -0.7259  -0.7242  -0.7158  -0.7055
    -0.6324  -0.6122  -0.5862  -0.5385  -0.5008  -0.4408  -0.3563  -0.3505
    -0.3493  -0.3456  -0.2713  -0.2339  -0.2052  -0.1870   0.2074   0.2399
     0.3601   0.3659   0.4511   0.4644   0.4994   0.5217   0.5392   0.5481
     0.5664   0.5805   0.7016   0.7812   0.8178   0.9769   1.0321   1.0628
     1.0889   1.1032   1.1137   1.1396   1.1662   1.1823   1.1961   1.2231
     1.2415   1.2589   1.3091   1.3257   1.3609   1.3635   1.3720   1.4007
     1.4350   1.4557   1.4734   1.4840   1.4879   1.5286   1.5476   1.5853
     1.6065   1.6121   1.6366   1.7872   1.8118   1.8198   1.8728   1.8842
     1.9039   1.9198   1.9764   1.9785   1.9967   2.0042   2.0125   2.0284
     2.0483   2.0521   2.0832   2.1323   2.2078   2.2091   2.2144   2.2164
     2.2241   2.3509   2.5016   2.5513   2.5561   2.5607   2.5649   2.5700
     2.7204   2.7297   2.7377   2.7560   3.3283   3.4420   3.4983   3.5338
     3.5637   3.5789   3.6527   3.6754   3.7611   3.7823   6.2389   6.7385
     6.7434   6.7664   6.7958   6.9616   7.0243   7.1718   7.5858   7.6308
     8.2338   8.2841   8.3205   8.3241   8.7357   9.0603   9.1324   9.1523
     9.2149   9.3002   9.4054   9.4143   9.4651   9.4659   9.4787   9.5122
     9.5777   9.7040   9.7307   9.7727   9.7969   9.8256   9.8291   9.8749
     9.8837   9.9721

     the Fermi energy is     2.7365 ev

!    total energy              =   -3711.63809081 Ry
     Harris-Foulkes estimate   =   -3711.63809079 Ry
     estimated scf accuracy    <          5.3E-09 Ry

     The total energy is the sum of the following terms:

     one-electron contribution =  -61715.66670523 Ry
     hartree contribution      =   31164.83868494 Ry
     xc contribution           =   -1263.86823792 Ry
     ewald contribution        =   28103.07411155 Ry
     smearing contrib. (-TS)   =      -0.01594416 Ry

     convergence has been achieved in  33 iterations

     negative rho (up, down):  9.216E-02 0.000E+00

     Forces acting on atoms (cartesian axes, Ry/au):

     atom    1 type  4   force =     0.00000089    0.00000000   -0.00022370
     atom    2 type  4   force =    -0.00000089    0.00000000   -0.00022370
     atom    3 type  3   force =    -0.00002290    0.00000000   -0.00002388
     atom    4 type  3   force =     0.00002290    0.00000000   -0.00002388
     atom    5 type  4   force =    -0.00000607    0.00000000   -0.00003924
     atom    6 type  4   force =     0.00000607    0.00000000   -0.00003924
     atom    7 type  1   force =     0.00000000    0.00000000   -0.00026407
     atom    8 type  1   force =     0.00000000    0.00000000   -0.00023376
     atom    9 type  3   force =     0.00008684    0.00000000   -0.00019556
     atom   10 type  3   force =    -0.00008684    0.00000000   -0.00019556
     atom   11 type  4   force =     0.00000000    0.00000000    0.00063598
     atom   12 type  4   force =     0.00000104    0.00000000    0.00065417
     atom   13 type  4   force =    -0.00000104    0.00000000    0.00065417
     atom   14 type  4   force =     0.00000000    0.00000000    0.00081434
     atom   15 type  2   force =     0.00000000    0.00000000   -0.00172969
     atom   16 type  5   force =     0.00000000    0.00000000   -0.00264235
     atom   17 type  4   force =     0.00050613    0.00000000    0.00281500
     atom   18 type  4   force =    -0.00050613    0.00000000    0.00281500
     atom   19 type  4   force =     0.00000000    0.00000000    0.00218174
     atom   20 type  4   force =     0.00000000    0.00000000    0.00261593
     atom   21 type  3   force =     0.00036633    0.00000000   -0.00066774
     atom   22 type  3   force =    -0.00036633    0.00000000   -0.00066774
     atom   23 type  1   force =     0.00000000    0.00000000    0.00672569
     atom   24 type  1   force =     0.00000000    0.00000000    0.01213748
     atom   25 type  4   force =     0.00184154    0.00000000   -0.00889622
     atom   26 type  4   force =    -0.00184154    0.00000000   -0.00889622
     atom   27 type  4   force =    -0.00329637    0.00000000    0.02094787
     atom   28 type  4   force =     0.00329637    0.00000000    0.02094787
     atom   29 type  3   force =     0.00477685    0.00000000    0.02272011
     atom   30 type  3   force =    -0.00477685    0.00000000    0.02272011
     atom   31 type  4   force =     0.00944333    0.00000000   -0.01510199
     atom   32 type  4   force =    -0.00944333    0.00000000   -0.01510199
     atom   33 type  1   force =     0.00000000    0.00000000   -0.02462482
     atom   34 type  1   force =     0.00000000    0.00000000   -0.01913581
     atom   35 type  3   force =    -0.00261381    0.00000000   -0.01433353
     atom   36 type  3   force =     0.00261381    0.00000000   -0.01433353
     atom   37 type  4   force =     0.00000000    0.00000000    0.00451180
     atom   38 type  4   force =     0.00000000    0.00000000    0.00125999
     atom   39 type  4   force =     0.00220891    0.00000000    0.00077905
     atom   40 type  4   force =    -0.00220891    0.00000000    0.00077905
     atom   41 type  5   force =     0.00000000    0.00000000    0.00140973
     atom   42 type  2   force =     0.00000000    0.00000000   -0.00009369
     atom   43 type  4   force =     0.00000000    0.00000000    0.00001475
     atom   44 type  4   force =     0.00000868    0.00000000   -0.00056002
     atom   45 type  4   force =    -0.00000868    0.00000000   -0.00056002
     atom   46 type  4   force =     0.00000000    0.00000000    0.00002835
     atom   47 type  3   force =     0.00004092    0.00000000    0.00017815
     atom   48 type  3   force =    -0.00004092    0.00000000    0.00017815
     atom   49 type  1   force =     0.00000000    0.00000000    0.00011744
     atom   50 type  1   force =     0.00000000    0.00000000    0.00016233
     atom   51 type  4   force =    -0.00003414    0.00000000   -0.00034543
     atom   52 type  4   force =     0.00003414    0.00000000   -0.00034543
     atom   53 type  3   force =    -0.00004735    0.00000000    0.00052415
     atom   54 type  3   force =     0.00004735    0.00000000    0.00052415
     atom   55 type  4   force =     0.00000971    0.00000000   -0.00017688
     atom   56 type  4   force =    -0.00000971    0.00000000   -0.00017688

     Total force =     0.066667     Total SCF correction =     0.000283


     Computing stress (Cartesian axis) and pressure


     negative rho (up, down):  9.216E-02 0.000E+00
          total   stress  (Ry/bohr**3)                   (kbar)     P=       -6.50
  -0.00000219   0.00000000   0.00000000           -0.32        0.00        0.00
   0.00000000  -0.00005832   0.00000000            0.00       -8.58        0.00
   0.00000000   0.00000000  -0.00007196            0.00        0.00      -10.59

 
     init_run     :     24.04s CPU     25.13s WALL (       1 calls)
     electrons    :   1704.32s CPU   1756.59s WALL (       1 calls)
     forces       :     10.83s CPU     11.17s WALL (       1 calls)
     stress       :    102.74s CPU    103.79s WALL (       1 calls)

     Called by init_run:
     wfcinit      :     19.40s CPU     20.04s WALL (       1 calls)
     potinit      :      0.98s CPU      1.00s WALL (       1 calls)
     hinit0       :      1.62s CPU      1.76s WALL (       1 calls)

     Called by electrons:
     c_bands      :   1423.96s CPU   1457.52s WALL (      33 calls)
     sum_band     :    208.75s CPU    218.93s WALL (      33 calls)
     v_of_rho     :      4.37s CPU      4.44s WALL (      34 calls)
     newd         :     38.26s CPU     46.58s WALL (      34 calls)
     mix_rho      :     29.71s CPU     30.00s WALL (      33 calls)

     Called by c_bands:
     init_us_2    :     13.23s CPU     13.31s WALL (    1725 calls)
     cegterg      :   1355.50s CPU   1379.36s WALL (     825 calls)

     Called by sum_band:
     sum_band:bec :      1.06s CPU      1.07s WALL (     825 calls)
     addusdens    :     38.13s CPU     46.26s WALL (      33 calls)

     Called by *egterg:
     h_psi        :    628.49s CPU    639.87s WALL (    4739 calls)
     s_psi        :     99.41s CPU     99.86s WALL (    4739 calls)
     g_psi        :      2.00s CPU      2.01s WALL (    3889 calls)
     cdiaghg      :    334.23s CPU    335.88s WALL (    4714 calls)

     Called by h_psi:
     h_psi:calbec :    103.71s CPU    104.23s WALL (    4739 calls)
     vloc_psi     :    421.25s CPU    427.80s WALL (    4739 calls)
     add_vuspsi   :     99.89s CPU    100.40s WALL (    4739 calls)

     General routines
     calbec       :    157.01s CPU    157.75s WALL (    5689 calls)
     fft          :      3.95s CPU      4.07s WALL (     465 calls)
     ffts         :     15.55s CPU     15.71s WALL (   17721 calls)
     fftw         :    477.76s CPU    485.06s WALL ( 1183306 calls)
     interpolate  :      0.34s CPU      0.35s WALL (      34 calls)
 
     Parallel routines
     fft_scatt_xy :     57.65s CPU     58.56s WALL ( 1201492 calls)
     fft_scatt_yz :    307.46s CPU    312.14s WALL ( 1201492 calls)
 
     PWSCF        :  30m42.90s CPU  31m38.05s WALL

 
   This run was terminated on:   0: 7:24  28May2021            

=------------------------------------------------------------------------------=
   JOB DONE.
=------------------------------------------------------------------------------=
[1622174845.092563] [holy7c10509:160704:0]          mpool.c:43   UCX  WARN  object 0x3ca6380 was not returned to mpool ucp_requests
[1622174845.118801] [holy7c06108:119006:0]          mpool.c:43   UCX  WARN  object 0x41efc00 was not returned to mpool ucp_requests
[1622174845.119833] [holy7c06108:119007:0]          mpool.c:43   UCX  WARN  object 0x351f040 was not returned to mpool ucp_requests
[1622174845.118362] [holy7c06108:119013:0]          mpool.c:43   UCX  WARN  object 0x3377cc0 was not returned to mpool ucp_requests
[1622174845.118392] [holy7c06108:119013:0]          mpool.c:43   UCX  WARN  object 0x3378040 was not returned to mpool ucp_requests
[1622174845.118395] [holy7c06108:119013:0]          mpool.c:43   UCX  WARN  object 0x33783c0 was not returned to mpool ucp_requests
[1622174845.119900] [holy7c06108:119018:0]          mpool.c:43   UCX  WARN  object 0x426e580 was not returned to mpool ucp_requests
[1622174845.119926] [holy7c06108:119018:0]          mpool.c:43   UCX  WARN  object 0x426e900 was not returned to mpool ucp_requests
[1622174845.119930] [holy7c06108:119018:0]          mpool.c:43   UCX  WARN  object 0x426f000 was not returned to mpool ucp_requests
[1622174845.092771] [holy7c10509:160705:0]          mpool.c:43   UCX  WARN  object 0x4434200 was not returned to mpool ucp_requests
[1622174845.126227] [holy7c06108:119008:0]          mpool.c:43   UCX  WARN  object 0x42485c0 was not returned to mpool ucp_requests
[1622174845.126254] [holy7c06108:119008:0]          mpool.c:43   UCX  WARN  object 0x4248b00 was not returned to mpool ucp_requests
[1622174845.127473] [holy7c06108:119011:0]          mpool.c:43   UCX  WARN  object 0x474b080 was not returned to mpool ucp_requests
[1622174845.127500] [holy7c06108:119011:0]          mpool.c:43   UCX  WARN  object 0x474b5c0 was not returned to mpool ucp_requests
[1622174845.127747] [holy7c06108:119012:0]          mpool.c:43   UCX  WARN  object 0x3b4d800 was not returned to mpool ucp_requests
[1622174845.126729] [holy7c06108:119016:0]          mpool.c:43   UCX  WARN  object 0x3871d80 was not returned to mpool ucp_requests
[1622174845.110748] [holy7c08503:247814:0]          mpool.c:43   UCX  WARN  object 0x3348700 was not returned to mpool ucp_requests
[1622174845.111248] [holy7c08503:247817:0]          mpool.c:43   UCX  WARN  object 0x3e62240 was not returned to mpool ucp_requests
[1622174845.111267] [holy7c08503:247817:0]          mpool.c:43   UCX  WARN  object 0x3e62940 was not returned to mpool ucp_requests
[1622174845.110832] [holy7c08503:247815:0]          mpool.c:43   UCX  WARN  object 0x382da00 was not returned to mpool ucp_requests
