
     Program PWSCF v.6.5 starts on 25May2021 at 14:24:29 

     This program is part of the open-source Quantum ESPRESSO suite
     for quantum simulation of materials; please cite
         "P. Giannozzi et al., J. Phys.:Condens. Matter 21 395502 (2009);
         "P. Giannozzi et al., J. Phys.:Condens. Matter 29 465901 (2017);
          URL http://www.quantum-espresso.org", 
     in publications or presentations arising from this work. More details at
     http://www.quantum-espresso.org/quote

     Parallel version (MPI), running on    32 processors

     MPI processes distributed on    14 nodes
     R & G space division:  proc/nbgrp/npool/nimage =      32
     Reading input from YCBCO50_212_BaO_cleave_0.25_sep.pwi
Warning: card &IONS ignored
Warning: card     ION_DYNAMICS = 'BFGS' ignored
Warning: card / ignored
Warning: card &CELL ignored
Warning: card     CELL_DYNAMICS = 'BFGS' ignored
Warning: card     PRESS_CONV_THR = 5 ignored
Warning: card / ignored

     Current dimensions of program PWSCF are:
     Max number of different atomic species (ntypx) = 10
     Max number of k-points (npk) =  40000
     Max angular momentum in pseudopotentials (lmaxx) =  3

     Subspace diagonalization in iterative solution of the eigenvalue problem:
     one sub-group per band group will be used
     scalapack distributed-memory algorithm (size of sub-group:  5*  5 procs)

     Message from routine setup:
     using ibrav=0 with symmetry is DISCOURAGED, use correct ibrav instead
 
     Parallelization info
     --------------------
     sticks:   dense  smooth     PW     G-vecs:    dense   smooth      PW
     Min         188      62     17                89354    17188    2565
     Max         189      63     18                89384    17233    2604
     Sum        6019    2003    565              2859873   550727   82827
 


     bravais-lattice index     =            0
     lattice parameter (alat)  =      14.8133  a.u.
     unit-cell volume          =    8766.7572 (a.u.)^3
     number of atoms/cell      =           56
     number of atomic types    =            5
     number of electrons       =       456.00
     number of Kohn-Sham states=          274
     kinetic-energy cutoff     =      60.0000  Ry
     charge density cutoff     =     720.0000  Ry
     convergence threshold     =      1.0E-08
     mixing beta               =       0.5000
     number of iterations used =           10  local-TF  mixing
     Exchange-correlation= SLA PW PBE PBE
                           (   1   4   3   4   0   0   0)

     celldm(1)=  14.813271  celldm(2)=   0.000000  celldm(3)=   0.000000
     celldm(4)=   0.000000  celldm(5)=   0.000000  celldm(6)=   0.000000

     crystal axes: (cart. coord. in units of alat)
               a(1) = (   1.000000   0.000000   0.000000 )  
               a(2) = (   0.000000   0.477453   0.000000 )  
               a(3) = (   0.000000   0.000000   5.648794 )  

     reciprocal axes: (cart. coord. in units 2 pi/alat)
               b(1) = (  1.000000  0.000000  0.000000 )  
               b(2) = (  0.000000  2.094448  0.000000 )  
               b(3) = (  0.000000  0.000000  0.177029 )  


     PseudoPot. # 1 for Ba read from file:
     ./pseudo/Ba.pbe-nsp-van.UPF
     MD5 check sum: 2b9c31dd849566dd297d80989662b7a0
     Pseudo is Ultrasoft + core correction, Zval = 10.0
     Generated by new atomic code, or converted to UPF format
     Using radial grid of  907 points,  6 beta functions with: 
                l(1) =   0
                l(2) =   0
                l(3) =   1
                l(4) =   1
                l(5) =   2
                l(6) =   2
     Q(r) pseudized with  6 coefficients,  rinner =    1.200   1.200   1.200
                                                       1.200   1.200

     PseudoPot. # 2 for Ca read from file:
     ./pseudo/Ca.pbe-nsp-van.UPF
     MD5 check sum: 6471098428ff4fa451746d08035ff179
     Pseudo is Ultrasoft + core correction, Zval = 10.0
     Generated by new atomic code, or converted to UPF format
     Using radial grid of  845 points,  6 beta functions with: 
                l(1) =   0
                l(2) =   0
                l(3) =   1
                l(4) =   1
                l(5) =   2
                l(6) =   2
     Q(r) pseudized with  6 coefficients,  rinner =    1.200   1.200   1.200
                                                       1.200   1.200

     PseudoPot. # 3 for Cu read from file:
     ./pseudo/Cu.pbe-n-van_ak.UPF
     MD5 check sum: 34e3282627ffb533726feb647e090d62
     Pseudo is Ultrasoft + core correction, Zval = 11.0
     Generated by new atomic code, or converted to UPF format
     Using radial grid of  867 points,  6 beta functions with: 
                l(1) =   0
                l(2) =   0
                l(3) =   1
                l(4) =   1
                l(5) =   2
                l(6) =   2
     Q(r) pseudized with  8 coefficients,  rinner =    1.400   1.400   1.400
                                                       1.400   1.400

     PseudoPot. # 4 for O  read from file:
     ./pseudo/O.pbe-van_ak.UPF
     MD5 check sum: 783ce7fe4c79b6a4916957118fed0856
     Pseudo is Ultrasoft, Zval =  6.0
     Generated by new atomic code, or converted to UPF format
     Using radial grid of  737 points,  4 beta functions with: 
                l(1) =   0
                l(2) =   0
                l(3) =   1
                l(4) =   1
     Q(r) pseudized with  8 coefficients,  rinner =    0.800   0.800   0.800


     PseudoPot. # 5 for Y  read from file:
     ./pseudo/Y.pbe-nsp-van.UPF
     MD5 check sum: 4412fed3ab108fed87a1b7d6a69a4a38
     Pseudo is Ultrasoft + core correction, Zval = 11.0
     Generated by new atomic code, or converted to UPF format
     Using radial grid of  885 points,  6 beta functions with: 
                l(1) =   0
                l(2) =   0
                l(3) =   1
                l(4) =   1
                l(5) =   2
                l(6) =   2
     Q(r) pseudized with  6 coefficients,  rinner =    1.200   1.200   1.200
                                                       1.200   1.200

     atomic species   valence    mass     pseudopotential
        Ba            10.00   137.32700     Ba( 1.00)
        Ca            10.00    40.07800     Ca( 1.00)
        Cu            11.00    63.54600     Cu( 1.00)
        O              6.00    15.99900     O ( 1.00)
        Y             11.00    88.90584     Y ( 1.00)

      4 Sym. Ops. (no inversion) found ( 2 have fractional translation)



   Cartesian axes

     site n.     atom                  positions (alat units)
         1           O   tau(   1) = (  -0.0008343   0.2387265  -0.0222443  )
         2           O   tau(   2) = (   0.5008340   0.2387265  -0.0222443  )
         3           Cu  tau(   3) = (   0.5017257   0.0000000   0.0109608  )
         4           Cu  tau(   4) = (  -0.0017260   0.0000000   0.0109608  )
         5           O   tau(   5) = (  -0.0028933   0.0000000   0.2506504  )
         6           O   tau(   6) = (   0.5028929   0.0000000   0.2506504  )
         7           Ba  tau(   7) = (   0.7499995   0.2387265   0.2749435  )
         8           Ba  tau(   8) = (   0.2499998   0.2387265   0.2755214  )
         9           Cu  tau(   9) = (   0.4980963   0.0000000   0.5208446  )
        10           Cu  tau(  10) = (   0.0019033   0.0000000   0.5208446  )
        11           O   tau(  11) = (   0.2499998   0.0000000   0.5341884  )
        12           O   tau(  12) = (   0.5083351   0.2387265   0.5569851  )
        13           O   tau(  13) = (  -0.0083354   0.2387265   0.5569851  )
        14           O   tau(  14) = (   0.7499995   0.0000000   0.5573831  )
        15           Ca  tau(  15) = (   0.2499998   0.2387265   0.7436937  )
        16           Y   tau(  16) = (   0.7499995   0.2387265   0.7469544  )
        17           O   tau(  17) = (  -0.0063798   0.2387265   0.9248530  )
        18           O   tau(  18) = (   0.5063794   0.2387265   0.9248530  )
        19           O   tau(  19) = (   0.7499995   0.0000000   0.9338544  )
        20           O   tau(  20) = (   0.2499998   0.0000000   0.9461329  )
        21           Cu  tau(  21) = (   0.0015717   0.0000000   0.9686860  )
        22           Cu  tau(  22) = (   0.4984280   0.0000000   0.9686860  )
        23           Ba  tau(  23) = (   0.2499998   0.2387265   1.2085224  )
        24           Ba  tau(  24) = (   0.7499995   0.2387265   1.2233294  )
        25           O   tau(  25) = (   0.0063772   0.0000000   1.2547537  )
        26           O   tau(  26) = (   0.4936224   0.0000000   1.2547537  )
        27           O   tau(  27) = (   0.5384045   0.2387265   1.4952521  )
        28           O   tau(  28) = (  -0.0384049   0.2387265   1.4952521  )
        29           Cu  tau(  29) = (   0.5006120   0.0000000   1.4952546  )
        30           Cu  tau(  30) = (  -0.0006123   0.0000000   1.4952546  )
        31           O   tau(  31) = (   0.4936212   0.0000000   1.7357531  )
        32           O   tau(  32) = (   0.0063785   0.0000000   1.7357531  )
        33           Ba  tau(  33) = (   0.7499995   0.2387265   1.7671824  )
        34           Ba  tau(  34) = (   0.2499998   0.2387265   1.7819920  )
        35           Cu  tau(  35) = (   0.4984280   0.0000000   2.0537157  )
        36           Cu  tau(  36) = (   0.0015717   0.0000000   2.0537157  )
        37           O   tau(  37) = (   0.2499998   0.0000000   2.0762739  )
        38           O   tau(  38) = (   0.7499995   0.0000000   2.0885435  )
        39           O   tau(  39) = (   0.5063781   0.2387265   2.0975487  )
        40           O   tau(  40) = (  -0.0063785   0.2387265   2.0975487  )
        41           Y   tau(  41) = (   0.7499995   0.2387265   2.2754422  )
        42           Ca  tau(  42) = (   0.2499998   0.2387265   2.2787118  )
        43           O   tau(  43) = (   0.7499995   0.0000000   2.4650097  )
        44           O   tau(  44) = (  -0.0083354   0.2387265   2.4654115  )
        45           O   tau(  45) = (   0.5083351   0.2387265   2.4654115  )
        46           O   tau(  46) = (   0.2499998   0.0000000   2.4882095  )
        47           Cu  tau(  47) = (   0.0019059   0.0000000   2.5015431  )
        48           Cu  tau(  48) = (   0.4980938   0.0000000   2.5015431  )
        49           Ba  tau(  49) = (   0.2499998   0.2387265   2.7468828  )
        50           Ba  tau(  50) = (   0.7499995   0.2387265   2.7474250  )
        51           O   tau(  51) = (  -0.0028895   0.0000000   2.7717321  )
        52           O   tau(  52) = (   0.5028891   0.0000000   2.7717321  )
        53           Cu  tau(  53) = (   0.5017844   0.0000000   3.0114167  )
        54           Cu  tau(  54) = (  -0.0017847   0.0000000   3.0114167  )
        55           O   tau(  55) = (   0.5008990   0.2387265   3.0446231  )
        56           O   tau(  56) = (  -0.0008994   0.2387265   3.0446231  )

     number of k points=    25  Gaussian smearing, width (Ry)=  0.0100
                       cart. coord. in units 2pi/alat
        k(    1) = (   0.0000000   0.0000000   0.0000000), wk =   0.0312500
        k(    2) = (   0.0000000   0.2618060   0.0000000), wk =   0.0625000
        k(    3) = (   0.0000000   0.5236121   0.0000000), wk =   0.0625000
        k(    4) = (   0.0000000   0.7854181   0.0000000), wk =   0.0625000
        k(    5) = (   0.0000000  -1.0472241   0.0000000), wk =   0.0312500
        k(    6) = (   0.1250000   0.0000000   0.0000000), wk =   0.0625000
        k(    7) = (   0.1250000   0.2618060   0.0000000), wk =   0.1250000
        k(    8) = (   0.1250000   0.5236121   0.0000000), wk =   0.1250000
        k(    9) = (   0.1250000   0.7854181   0.0000000), wk =   0.1250000
        k(   10) = (   0.1250000  -1.0472241   0.0000000), wk =   0.0625000
        k(   11) = (   0.2500000   0.0000000   0.0000000), wk =   0.0625000
        k(   12) = (   0.2500000   0.2618060   0.0000000), wk =   0.1250000
        k(   13) = (   0.2500000   0.5236121   0.0000000), wk =   0.1250000
        k(   14) = (   0.2500000   0.7854181   0.0000000), wk =   0.1250000
        k(   15) = (   0.2500000  -1.0472241   0.0000000), wk =   0.0625000
        k(   16) = (   0.3750000   0.0000000   0.0000000), wk =   0.0625000
        k(   17) = (   0.3750000   0.2618060   0.0000000), wk =   0.1250000
        k(   18) = (   0.3750000   0.5236121   0.0000000), wk =   0.1250000
        k(   19) = (   0.3750000   0.7854181   0.0000000), wk =   0.1250000
        k(   20) = (   0.3750000  -1.0472241   0.0000000), wk =   0.0625000
        k(   21) = (  -0.5000000   0.0000000   0.0000000), wk =   0.0312500
        k(   22) = (  -0.5000000   0.2618060   0.0000000), wk =   0.0625000
        k(   23) = (  -0.5000000   0.5236121   0.0000000), wk =   0.0625000
        k(   24) = (  -0.5000000   0.7854181   0.0000000), wk =   0.0625000
        k(   25) = (  -0.5000000  -1.0472241   0.0000000), wk =   0.0312500

     Dense  grid:  2859873 G-vectors     FFT dimensions: ( 128,  64, 720)

     Smooth grid:   550727 G-vectors     FFT dimensions: (  80,  36, 432)

     Estimated max dynamical RAM per process >     829.17 MB

     Estimated total dynamical RAM >      25.91 GB

     Initial potential from superposition of free atoms

     starting charge  455.69457, renormalised to  456.00000

     negative rho (up, down):  9.326E-02 0.000E+00
     Starting wfcs are  396 randomized atomic wfcs

     total cpu time spent up to now is       26.7 secs

     Self-consistent Calculation

     iteration #  1     ecut=    60.00 Ry     beta= 0.50
     Davidson diagonalization with overlap
     ethr =  1.00E-02,  avg # of iterations =  2.0

     negative rho (up, down):  8.611E-02 0.000E+00

     total cpu time spent up to now is       72.9 secs

     total energy              =   -3708.52852287 Ry
     Harris-Foulkes estimate   =   -3716.44338507 Ry
     estimated scf accuracy    <      29.32267602 Ry

     iteration #  2     ecut=    60.00 Ry     beta= 0.50
     Davidson diagonalization with overlap
     ethr =  6.43E-03,  avg # of iterations =  2.0

     negative rho (up, down):  8.585E-02 0.000E+00

     total cpu time spent up to now is      119.6 secs

     total energy              =   -3711.26175288 Ry
     Harris-Foulkes estimate   =   -3712.36275070 Ry
     estimated scf accuracy    <       7.12628635 Ry

     iteration #  3     ecut=    60.00 Ry     beta= 0.50
     Davidson diagonalization with overlap
     ethr =  1.56E-03,  avg # of iterations =  2.0

     negative rho (up, down):  8.646E-02 0.000E+00

     total cpu time spent up to now is      164.5 secs

     total energy              =   -3711.68518377 Ry
     Harris-Foulkes estimate   =   -3712.00835379 Ry
     estimated scf accuracy    <       4.22927224 Ry

     iteration #  4     ecut=    60.00 Ry     beta= 0.50
     Davidson diagonalization with overlap
     ethr =  9.27E-04,  avg # of iterations =  1.0

     negative rho (up, down):  8.753E-02 0.000E+00

     total cpu time spent up to now is      206.5 secs

     total energy              =   -3711.74525575 Ry
     Harris-Foulkes estimate   =   -3711.87946796 Ry
     estimated scf accuracy    <       0.66169021 Ry

     iteration #  5     ecut=    60.00 Ry     beta= 0.50
     Davidson diagonalization with overlap
     ethr =  1.45E-04,  avg # of iterations =  6.8

     negative rho (up, down):  8.814E-02 0.000E+00

     total cpu time spent up to now is      277.5 secs

     total energy              =   -3711.82610474 Ry
     Harris-Foulkes estimate   =   -3711.85608420 Ry
     estimated scf accuracy    <       2.26987822 Ry

     iteration #  6     ecut=    60.00 Ry     beta= 0.50
     Davidson diagonalization with overlap
     ethr =  1.45E-04,  avg # of iterations =  1.0

     negative rho (up, down):  8.917E-02 0.000E+00

     total cpu time spent up to now is      319.4 secs

     total energy              =   -3711.80910480 Ry
     Harris-Foulkes estimate   =   -3711.83366024 Ry
     estimated scf accuracy    <       1.18735911 Ry

     iteration #  7     ecut=    60.00 Ry     beta= 0.50
     Davidson diagonalization with overlap
     ethr =  1.45E-04,  avg # of iterations =  1.0

     negative rho (up, down):  8.998E-02 0.000E+00

     total cpu time spent up to now is      361.3 secs

     total energy              =   -3711.79734974 Ry
     Harris-Foulkes estimate   =   -3711.81776408 Ry
     estimated scf accuracy    <       1.61788154 Ry

     iteration #  8     ecut=    60.00 Ry     beta= 0.50
     Davidson diagonalization with overlap
     ethr =  1.45E-04,  avg # of iterations =  1.0

     negative rho (up, down):  9.024E-02 0.000E+00

     total cpu time spent up to now is      403.3 secs

     total energy              =   -3711.79779177 Ry
     Harris-Foulkes estimate   =   -3711.80478567 Ry
     estimated scf accuracy    <       0.80459710 Ry

     iteration #  9     ecut=    60.00 Ry     beta= 0.50
     Davidson diagonalization with overlap
     ethr =  1.45E-04,  avg # of iterations =  1.0

     negative rho (up, down):  9.026E-02 0.000E+00

     total cpu time spent up to now is      445.3 secs

     total energy              =   -3711.78613479 Ry
     Harris-Foulkes estimate   =   -3711.79969772 Ry
     estimated scf accuracy    <       0.43583257 Ry

     iteration # 10     ecut=    60.00 Ry     beta= 0.50
     Davidson diagonalization with overlap
     ethr =  9.56E-05,  avg # of iterations =  1.7

     negative rho (up, down):  9.018E-02 0.000E+00

     total cpu time spent up to now is      488.9 secs

     total energy              =   -3711.77815904 Ry
     Harris-Foulkes estimate   =   -3711.78888724 Ry
     estimated scf accuracy    <       0.21839767 Ry

     iteration # 11     ecut=    60.00 Ry     beta= 0.50
     Davidson diagonalization with overlap
     ethr =  4.79E-05,  avg # of iterations =  8.3

     negative rho (up, down):  8.996E-02 0.000E+00

     total cpu time spent up to now is      553.0 secs

     total energy              =   -3711.77852448 Ry
     Harris-Foulkes estimate   =   -3711.78063016 Ry
     estimated scf accuracy    <       0.05648833 Ry

     iteration # 12     ecut=    60.00 Ry     beta= 0.50
     Davidson diagonalization with overlap
     c_bands:  2 eigenvalues not converged
     ethr =  1.24E-05,  avg # of iterations =  6.8

     negative rho (up, down):  9.142E-02 0.000E+00

     total cpu time spent up to now is      611.0 secs

     total energy              =   -3711.77687644 Ry
     Harris-Foulkes estimate   =   -3711.77916932 Ry
     estimated scf accuracy    <       0.05493257 Ry

     iteration # 13     ecut=    60.00 Ry     beta= 0.50
     Davidson diagonalization with overlap
     ethr =  1.20E-05,  avg # of iterations =  4.3

     negative rho (up, down):  1.104E-01 0.000E+00

     total cpu time spent up to now is      661.6 secs

     total energy              =   -3711.77435841 Ry
     Harris-Foulkes estimate   =   -3711.77715788 Ry
     estimated scf accuracy    <       0.03046033 Ry

     iteration # 14     ecut=    60.00 Ry     beta= 0.50
     Davidson diagonalization with overlap
     ethr =  6.68E-06,  avg # of iterations = 10.4

     negative rho (up, down):  1.321E-01 0.000E+00

     total cpu time spent up to now is      734.1 secs

     total energy              =   -3711.77151396 Ry
     Harris-Foulkes estimate   =   -3711.77469884 Ry
     estimated scf accuracy    <       0.01910836 Ry

     iteration # 15     ecut=    60.00 Ry     beta= 0.50
     Davidson diagonalization with overlap
     ethr =  4.19E-06,  avg # of iterations =  8.4

     negative rho (up, down):  1.229E-01 0.000E+00

     total cpu time spent up to now is      801.3 secs

     total energy              =   -3711.77061715 Ry
     Harris-Foulkes estimate   =   -3711.77192850 Ry
     estimated scf accuracy    <       0.00912897 Ry

     iteration # 16     ecut=    60.00 Ry     beta= 0.50
     Davidson diagonalization with overlap
     ethr =  2.00E-06,  avg # of iterations =  6.0

     negative rho (up, down):  1.233E-01 0.000E+00

     total cpu time spent up to now is      857.8 secs

     total energy              =   -3711.76947126 Ry
     Harris-Foulkes estimate   =   -3711.77072637 Ry
     estimated scf accuracy    <       0.00681857 Ry

     iteration # 17     ecut=    60.00 Ry     beta= 0.50
     Davidson diagonalization with overlap
     ethr =  1.50E-06,  avg # of iterations =  9.8

     negative rho (up, down):  1.219E-01 0.000E+00

     total cpu time spent up to now is      928.7 secs

     total energy              =   -3711.76859323 Ry
     Harris-Foulkes estimate   =   -3711.76957877 Ry
     estimated scf accuracy    <       0.00431392 Ry

     iteration # 18     ecut=    60.00 Ry     beta= 0.50
     Davidson diagonalization with overlap
     ethr =  9.46E-07,  avg # of iterations = 10.2

     negative rho (up, down):  1.120E-01 0.000E+00

     total cpu time spent up to now is     1001.5 secs

     total energy              =   -3711.76827958 Ry
     Harris-Foulkes estimate   =   -3711.76868787 Ry
     estimated scf accuracy    <       0.00257543 Ry

     iteration # 19     ecut=    60.00 Ry     beta= 0.50
     Davidson diagonalization with overlap
     ethr =  5.65E-07,  avg # of iterations =  4.9

     negative rho (up, down):  9.341E-02 0.000E+00

     total cpu time spent up to now is     1055.0 secs

     total energy              =   -3711.76804634 Ry
     Harris-Foulkes estimate   =   -3711.76833441 Ry
     estimated scf accuracy    <       0.00167893 Ry

     iteration # 20     ecut=    60.00 Ry     beta= 0.50
     Davidson diagonalization with overlap
     c_bands:  1 eigenvalues not converged
     c_bands:  1 eigenvalues not converged
     c_bands:  1 eigenvalues not converged
     ethr =  3.68E-07,  avg # of iterations = 11.7

     negative rho (up, down):  9.331E-02 0.000E+00

     total cpu time spent up to now is     1132.5 secs

     total energy              =   -3711.76812227 Ry
     Harris-Foulkes estimate   =   -3711.76809446 Ry
     estimated scf accuracy    <       0.00072654 Ry

     iteration # 21     ecut=    60.00 Ry     beta= 0.50
     Davidson diagonalization with overlap
     c_bands:  1 eigenvalues not converged
     ethr =  1.59E-07,  avg # of iterations =  5.0

     negative rho (up, down):  9.205E-02 0.000E+00

     total cpu time spent up to now is     1185.5 secs

     total energy              =   -3711.76814582 Ry
     Harris-Foulkes estimate   =   -3711.76814416 Ry
     estimated scf accuracy    <       0.00026352 Ry

     iteration # 22     ecut=    60.00 Ry     beta= 0.50
     Davidson diagonalization with overlap
     c_bands:  1 eigenvalues not converged
     ethr =  5.78E-08,  avg # of iterations =  7.4

     negative rho (up, down):  9.267E-02 0.000E+00

     total cpu time spent up to now is     1245.3 secs

     total energy              =   -3711.76815407 Ry
     Harris-Foulkes estimate   =   -3711.76814950 Ry
     estimated scf accuracy    <       0.00010679 Ry

     iteration # 23     ecut=    60.00 Ry     beta= 0.50
     Davidson diagonalization with overlap
     ethr =  2.34E-08,  avg # of iterations =  4.2

     negative rho (up, down):  9.201E-02 0.000E+00

     total cpu time spent up to now is     1295.8 secs

     total energy              =   -3711.76816040 Ry
     Harris-Foulkes estimate   =   -3711.76815728 Ry
     estimated scf accuracy    <       0.00004126 Ry

     iteration # 24     ecut=    60.00 Ry     beta= 0.50
     Davidson diagonalization with overlap
     ethr =  9.05E-09,  avg # of iterations =  4.2

     negative rho (up, down):  9.200E-02 0.000E+00

     total cpu time spent up to now is     1346.2 secs

     total energy              =   -3711.76815896 Ry
     Harris-Foulkes estimate   =   -3711.76816117 Ry
     estimated scf accuracy    <       0.00001719 Ry

     iteration # 25     ecut=    60.00 Ry     beta= 0.50
     Davidson diagonalization with overlap
     ethr =  3.77E-09,  avg # of iterations =  2.2

     negative rho (up, down):  9.228E-02 0.000E+00

     total cpu time spent up to now is     1391.5 secs

     total energy              =   -3711.76815889 Ry
     Harris-Foulkes estimate   =   -3711.76815963 Ry
     estimated scf accuracy    <       0.00000950 Ry

     iteration # 26     ecut=    60.00 Ry     beta= 0.50
     Davidson diagonalization with overlap
     ethr =  2.08E-09,  avg # of iterations =  1.2

     negative rho (up, down):  9.191E-02 0.000E+00

     total cpu time spent up to now is     1433.8 secs

     total energy              =   -3711.76815949 Ry
     Harris-Foulkes estimate   =   -3711.76815919 Ry
     estimated scf accuracy    <       0.00000389 Ry

     iteration # 27     ecut=    60.00 Ry     beta= 0.50
     Davidson diagonalization with overlap
     ethr =  8.52E-10,  avg # of iterations =  1.2

     negative rho (up, down):  9.197E-02 0.000E+00

     total cpu time spent up to now is     1476.0 secs

     total energy              =   -3711.76815938 Ry
     Harris-Foulkes estimate   =   -3711.76815962 Ry
     estimated scf accuracy    <       0.00000106 Ry

     iteration # 28     ecut=    60.00 Ry     beta= 0.50
     Davidson diagonalization with overlap
     ethr =  2.32E-10,  avg # of iterations =  2.7

     negative rho (up, down):  9.193E-02 0.000E+00

     total cpu time spent up to now is     1522.8 secs

     total energy              =   -3711.76815953 Ry
     Harris-Foulkes estimate   =   -3711.76815946 Ry
     estimated scf accuracy    <       0.00000046 Ry

     iteration # 29     ecut=    60.00 Ry     beta= 0.50
     Davidson diagonalization with overlap
     ethr =  1.01E-10,  avg # of iterations =  1.8

     negative rho (up, down):  9.196E-02 0.000E+00

     total cpu time spent up to now is     1566.5 secs

     total energy              =   -3711.76815948 Ry
     Harris-Foulkes estimate   =   -3711.76815955 Ry
     estimated scf accuracy    <       0.00000026 Ry

     iteration # 30     ecut=    60.00 Ry     beta= 0.50
     Davidson diagonalization with overlap
     ethr =  5.74E-11,  avg # of iterations =  1.2

     negative rho (up, down):  9.199E-02 0.000E+00

     total cpu time spent up to now is     1608.6 secs

     total energy              =   -3711.76815944 Ry
     Harris-Foulkes estimate   =   -3711.76815949 Ry
     estimated scf accuracy    <       0.00000009 Ry

     iteration # 31     ecut=    60.00 Ry     beta= 0.50
     Davidson diagonalization with overlap
     ethr =  2.05E-11,  avg # of iterations =  2.4

     negative rho (up, down):  9.200E-02 0.000E+00

     total cpu time spent up to now is     1654.5 secs

     total energy              =   -3711.76815942 Ry
     Harris-Foulkes estimate   =   -3711.76815944 Ry
     estimated scf accuracy    <       0.00000005 Ry

     iteration # 32     ecut=    60.00 Ry     beta= 0.50
     Davidson diagonalization with overlap
     ethr =  1.11E-11,  avg # of iterations =  1.1

     negative rho (up, down):  9.202E-02 0.000E+00

     total cpu time spent up to now is     1696.5 secs

     total energy              =   -3711.76815940 Ry
     Harris-Foulkes estimate   =   -3711.76815942 Ry
     estimated scf accuracy    <       0.00000002 Ry

     iteration # 33     ecut=    60.00 Ry     beta= 0.50
     Davidson diagonalization with overlap
     ethr =  5.27E-12,  avg # of iterations =  2.1

     negative rho (up, down):  9.204E-02 0.000E+00

     total cpu time spent up to now is     1740.4 secs

     End of self-consistent calculation

          k = 0.0000 0.0000 0.0000 ( 68823 PWs)   bands (ev):

   -37.9606 -37.8881 -35.5871 -35.4981 -22.7579 -22.7527 -22.6856 -22.6295
   -22.6246 -22.5105 -22.4659 -22.3131 -18.4360 -18.3505 -18.3318 -18.2635
   -17.9637 -17.8951 -16.9353 -16.8328 -16.8002 -16.7176 -16.6167 -16.5323
   -15.3483 -15.2785 -14.9215 -14.9050 -14.7816 -14.6234 -14.5910 -14.5427
   -14.4916 -14.4389 -14.4149 -14.3948 -14.3702 -14.3271 -14.2422 -14.1398
   -14.0393 -14.0029 -13.9375 -13.9357 -13.9252 -13.9200 -13.9190 -13.8234
   -13.8205 -13.7777 -13.6759 -13.4899 -13.4414 -13.3085  -8.0250  -7.9956
    -7.9895  -7.8873  -7.8815  -7.8481  -7.8074  -7.8028  -7.7011  -7.6692
    -7.6643  -7.6386  -7.6171  -7.5729  -7.5683  -7.5081  -7.4748  -7.4312
    -7.4263  -7.4222  -7.3416  -7.2907  -7.2652  -7.1180  -2.9242  -2.9134
    -2.7443  -2.6332  -2.1148  -2.1124  -2.0282  -2.0274  -1.9787  -1.9346
    -1.8707  -1.8512  -1.8055  -1.7725  -1.7672  -1.7329  -1.6994  -1.6894
    -1.6016  -1.5646  -1.5612  -1.4682  -1.4657  -1.4385  -1.3550  -1.3034
    -1.2666  -1.2135  -1.0777  -1.0425  -1.0048  -0.9442  -0.9142  -0.8645
    -0.8634  -0.8633  -0.8619  -0.8474  -0.8112  -0.7977  -0.7477  -0.7147
    -0.7069  -0.6361  -0.6356  -0.6288  -0.6212  -0.5445  -0.4996  -0.4629
    -0.4330  -0.2623  -0.2296  -0.1970  -0.1964  -0.1756  -0.1151  -0.0917
    -0.0776  -0.0768  -0.0767  -0.0732  -0.0728  -0.0724   0.0699   0.0934
     0.1060   0.1154   0.1157   0.1185   0.1301   0.1705   0.2039   0.2356
     0.2369   0.2382   0.2438   0.2529   0.2536   0.3300   0.3312   0.3691
     0.3704   0.3942   0.4619   0.4712   0.4742   0.4755   0.4878   0.5530
     0.5887   0.5899   0.6159   0.6424   0.6437   0.6617   0.6635   0.7330
     0.8286   0.8338   0.8808   0.9308   1.0032   1.0104   1.0859   1.1010
     1.1044   1.1592   1.1661   1.2049   1.2317   1.2586   1.3259   1.3261
     1.3297   1.3470   1.3509   1.3715   1.3772   1.4614   1.4757   1.4958
     1.5149   1.5268   1.5526   1.6397   1.6428   1.6592   1.7102   1.7585
     1.8073   1.8267   1.8272   1.8515   1.8765   1.8960   1.9018   1.9051
     1.9575   1.9591   2.0493   2.1022   2.1330   2.1740   2.1856   2.2457
     2.2929   2.3602   2.3683   2.3838   2.4401   2.4708   2.5389   2.6058
     2.6806   2.6910   2.6967   2.8002   2.9709   3.0010   5.3285   5.3457
     5.7153   6.0771   6.3255   6.6031   6.7481   6.7713   7.0213   7.3887
     7.3935   7.4816   7.4820   7.5543   7.7457   7.8805   8.1620   8.2212
     8.2658   8.3276   8.3311   8.3903   8.5930   8.6214   8.6698   8.7211
     8.7507   8.9297   8.9456   9.0977   9.1621   9.2186   9.3106   9.3572
     9.4967   9.5195

          k = 0.0000 0.2618 0.0000 ( 68837 PWs)   bands (ev):

   -37.9579 -37.8854 -35.5854 -35.4964 -22.7333 -22.7282 -22.6642 -22.6104
   -22.6055 -22.4923 -22.4425 -22.2943 -18.3973 -18.3246 -18.3116 -18.2562
   -18.0747 -18.0061 -16.9058 -16.8030 -16.7959 -16.7132 -16.6827 -16.5984
   -15.2423 -15.1745 -14.8650 -14.8484 -14.7140 -14.5767 -14.5522 -14.5062
   -14.4896 -14.4434 -14.3844 -14.3372 -14.3290 -14.2610 -14.2055 -14.1039
   -14.0357 -14.0075 -13.9851 -13.9257 -13.9201 -13.9152 -13.9139 -13.8809
   -13.8580 -13.7429 -13.7017 -13.4965 -13.4913 -13.3717  -8.0194  -7.9890
    -7.9829  -7.9004  -7.8951  -7.8418  -7.7637  -7.7593  -7.7118  -7.7072
    -7.7054  -7.7047  -7.7000  -7.6383  -7.6336  -7.6282  -7.6168  -7.5606
    -7.5274  -7.4982  -7.4423  -7.3824  -7.3493  -7.3305  -3.0229  -3.0031
    -2.8065  -2.6928  -2.2315  -2.2225  -2.1270  -2.1238  -2.1227  -2.0123
    -2.0029  -1.9972  -1.9313  -1.8912  -1.8638  -1.8552  -1.8004  -1.7603
    -1.7223  -1.6892  -1.6322  -1.5851  -1.5606  -1.5435  -1.5313  -1.4438
    -1.3916  -1.3485  -1.3084  -1.3084  -1.2837  -1.2781  -1.2767  -1.2580
    -1.1767  -1.1218  -1.0843  -0.9054  -0.8464  -0.7810  -0.7171  -0.6974
    -0.6460  -0.6249  -0.5778  -0.5583  -0.5205  -0.4776  -0.4648  -0.4489
    -0.4410  -0.3633  -0.2884  -0.2873  -0.2759  -0.2331  -0.2213  -0.2100
    -0.2011  -0.1149  -0.1040  -0.0839  -0.0473  -0.0386  -0.0340  -0.0090
     0.0922   0.1061   0.1183   0.1203   0.1423   0.1848   0.2141   0.2238
     0.2689   0.2716   0.3017   0.3061   0.3187   0.3663   0.3943   0.3945
     0.4328   0.4707   0.4829   0.4986   0.4997   0.5036   0.5321   0.5515
     0.5727   0.5928   0.5986   0.6248   0.6371   0.7738   0.7749   0.8318
     0.8915   0.9399   0.9562   0.9735   1.0037   1.0799   1.1253   1.1432
     1.1570   1.2220   1.2407   1.2626   1.2702   1.2740   1.3165   1.3361
     1.3565   1.3598   1.4309   1.4392   1.4590   1.4658   1.5146   1.5344
     1.5398   1.6006   1.6116   1.6304   1.6539   1.7019   1.7102   1.7741
     1.7911   1.8282   1.8339   1.8367   1.8875   1.9020   1.9464   1.9582
     1.9680   1.9680   2.0229   2.0570   2.1078   2.1360   2.1511   2.2180
     2.2244   2.3409   2.4164   2.6088   2.9189   2.9235   2.9756   2.9895
     3.0834   3.1087   3.1173   3.1793   3.3001   3.3677   5.7164   5.7246
     5.9623   6.3622   6.4944   6.7306   7.0665   7.0712   7.2237   7.2267
     7.3409   7.6782   7.7051   7.7177   7.8805   7.8941   7.9532   8.0825
     8.3353   8.4087   8.5238   8.5653   8.7667   8.8203   8.8544   8.8588
     8.9652   8.9703   9.1375   9.2735   9.2910   9.3377   9.3878   9.4479
     9.4520   9.5008

          k = 0.0000 0.5236 0.0000 ( 68773 PWs)   bands (ev):

   -37.9514 -37.8789 -35.5813 -35.4923 -22.6727 -22.6676 -22.6115 -22.5636
   -22.5587 -22.4476 -22.3848 -22.2481 -18.3148 -18.3071 -18.2978 -18.2451
   -18.2388 -18.2127 -16.8351 -16.8231 -16.7854 -16.7427 -16.7276 -16.7027
   -15.0027 -14.9433 -14.7158 -14.6979 -14.5550 -14.5333 -14.5126 -14.4546
   -14.4448 -14.4192 -14.3784 -14.3064 -14.1620 -14.1431 -14.1157 -14.0963
   -14.0314 -14.0151 -14.0129 -13.9445 -13.9430 -13.9004 -13.8990 -13.8643
   -13.8642 -13.7564 -13.6623 -13.6248 -13.5180 -13.5072  -8.1767  -8.1717
    -8.0414  -8.0173  -8.0127  -7.9655  -7.9522  -7.9460  -7.8819  -7.8766
    -7.8686  -7.8672  -7.7965  -7.7759  -7.7711  -7.6831  -7.6697  -7.6468
    -7.6421  -7.6352  -7.5886  -7.4639  -7.4429  -7.2944  -3.4125  -3.3707
    -3.0533  -2.9400  -2.7163  -2.7005  -2.5340  -2.4405  -2.3909  -2.3524
    -2.3443  -2.3363  -2.1874  -2.1632  -2.1628  -2.1327  -2.1208  -2.1009
    -1.9795  -1.9792  -1.9694  -1.9691  -1.8594  -1.8426  -1.8381  -1.8134
    -1.6675  -1.6261  -1.5660  -1.5254  -1.4991  -1.4766  -1.4588  -1.3775
    -1.2807  -1.2408  -1.1108  -1.0867  -0.8784  -0.8446  -0.8406  -0.8211
    -0.7293  -0.7291  -0.7216  -0.6515  -0.5951  -0.5448  -0.5445  -0.5406
    -0.5233  -0.4817  -0.4572  -0.4454  -0.4353  -0.4085  -0.4027  -0.4013
    -0.3883  -0.3750  -0.3732  -0.3229  -0.3102  -0.2683  -0.2597  -0.2321
    -0.2312  -0.1981  -0.1578  -0.1521   0.0147   0.1740   0.2038   0.2733
     0.3144   0.3211   0.3329   0.3672   0.3681   0.3932   0.4337   0.4369
     0.4845   0.5299   0.5849   0.6165   0.7022   0.7414   0.7505   0.8110
     0.8243   0.8862   0.9141   0.9483   0.9558   1.0094   1.1484   1.1505
     1.1609   1.2012   1.2302   1.2690   1.3017   1.3082   1.3163   1.3396
     1.3674   1.3705   1.3736   1.3826   1.3912   1.4125   1.4278   1.4357
     1.5197   1.5333   1.5600   1.5708   1.5813   1.6022   1.6090   1.6279
     1.6835   1.6905   1.7063   1.7146   1.7449   1.8370   1.8590   1.8952
     1.9049   1.9253   1.9313   1.9768   1.9783   2.0048   2.0117   2.0467
     2.0632   2.0661   2.1086   2.1558   2.1614   2.1892   2.1900   2.1920
     2.3044   2.3281   2.4854   2.7112   3.1887   3.1951   3.2271   3.2356
     3.8233   3.8570   3.9433   3.9535   4.0731   4.1276   6.0790   6.6224
     6.6226   6.7428   6.7454   6.9868   7.0840   7.1563   7.2063   7.2286
     7.9212   7.9285   8.1353   8.3142   8.4023   8.5382   8.5405   8.5446
     8.7132   8.7602   8.8174   8.8211   8.8537   8.8944   8.9020   8.9975
     9.1373   9.1687   9.3266   9.3305   9.4259   9.4702   9.5352   9.5661
     9.6459   9.7129

          k = 0.0000 0.7854 0.0000 ( 68780 PWs)   bands (ev):

   -37.9448 -37.8724 -35.5772 -35.4882 -22.6104 -22.6052 -22.5577 -22.5156
   -22.5108 -22.4018 -22.3254 -22.2008 -18.5239 -18.4549 -18.2896 -18.2214
   -18.1916 -18.1054 -16.9574 -16.8719 -16.7750 -16.7494 -16.6922 -16.6462
   -14.7905 -14.7670 -14.6534 -14.5850 -14.5347 -14.5112 -14.4486 -14.3895
   -14.3723 -14.3524 -14.2876 -14.2659 -14.2190 -14.1514 -14.0501 -14.0273
   -14.0267 -13.9978 -13.9318 -13.9249 -13.8930 -13.8497 -13.8457 -13.8194
   -13.8182 -13.7898 -13.7450 -13.6495 -13.6317 -13.5044  -8.5718  -8.5668
    -8.4251  -8.3123  -8.3077  -8.2451  -8.1588  -7.9719  -7.9554  -7.9493
    -7.9207  -7.8870  -7.8812  -7.8451  -7.8402  -7.8081  -7.7322  -7.6672
    -7.5658  -7.5336  -7.5256  -7.5209  -7.3451  -7.1853  -3.8970  -3.8502
    -3.4580  -3.3439  -3.1242  -3.1091  -3.0228  -2.8935  -2.8544  -2.7709
    -2.7379  -2.7369  -2.6734  -2.6723  -2.4909  -2.4866  -2.3129  -2.2344
    -2.2215  -2.1895  -2.0859  -2.0850  -2.0189  -2.0182  -1.8722  -1.8509
    -1.7647  -1.7436  -1.7057  -1.6584  -1.5656  -1.5349  -1.4981  -1.3677
    -1.3462  -1.2517  -1.0959  -1.0704  -1.0557  -1.0321  -0.9752  -0.9482
    -0.8950  -0.8880  -0.8478  -0.8410  -0.8356  -0.7786  -0.7414  -0.7117
    -0.7057  -0.6665  -0.6443  -0.6368  -0.6187  -0.6082  -0.5909  -0.5719
    -0.5716  -0.5486  -0.5194  -0.5002  -0.4807  -0.4800  -0.4237  -0.3969
    -0.3791  -0.3526  -0.0907  -0.0901  -0.0018   0.1414   0.1869   0.1919
     0.2235   0.2448   0.3320   0.3367   0.3732   0.4163   0.4323   0.4915
     0.5455   0.6193   0.6574   0.7300   0.8324   0.9350   0.9617   1.0037
     1.0375   1.0593   1.1207   1.1275   1.1856   1.1953   1.2028   1.2158
     1.3006   1.3654   1.3740   1.3792   1.4421   1.4573   1.4642   1.4937
     1.5293   1.5309   1.5576   1.6024   1.6297   1.6307   1.6973   1.6975
     1.7557   1.7787   1.7871   1.7992   1.8092   1.8359   1.8518   1.8677
     1.8795   1.8947   1.8999   1.9114   1.9236   1.9483   1.9685   2.0125
     2.0364   2.0592   2.1090   2.1139   2.1248   2.1406   2.1628   2.1648
     2.1949   2.2472   2.2634   2.3694   2.3697   2.4008   2.4675   2.4803
     2.5321   2.5932   2.5942   2.6308   3.0343   3.0445   3.1384   3.1493
     4.1539   4.1729   4.5897   4.6011   4.6587   4.7167   5.8338   6.2115
     6.2136   6.8191   6.8808   7.4535   7.5519   7.5596   7.9488   8.0314
     8.2663   8.5849   8.6246   8.6416   8.7201   8.7458   8.7812   8.9055
     8.9466   8.9657   8.9877   9.0753   9.1154   9.1916   9.2008   9.2277
     9.3747   9.4238   9.5036   9.5056   9.5748   9.6268   9.7082   9.7344
     9.7571   9.7938

          k = 0.0000-1.0472 0.0000 ( 68822 PWs)   bands (ev):

   -37.9421 -37.8697 -35.5755 -35.4865 -22.5840 -22.5788 -22.5350 -22.4954
   -22.4906 -22.3824 -22.3003 -22.1809 -18.6045 -18.5355 -18.2824 -18.2142
   -18.1443 -18.0580 -17.0078 -16.9221 -16.7708 -16.7137 -16.6880 -16.6104
   -14.7979 -14.7788 -14.5919 -14.5331 -14.5095 -14.4291 -14.4259 -14.3763
   -14.3732 -14.3720 -14.2616 -14.1683 -14.1651 -14.1218 -14.0948 -14.0448
   -13.9922 -13.9603 -13.9589 -13.8894 -13.8681 -13.8196 -13.8189 -13.8162
   -13.8012 -13.8004 -13.7331 -13.7161 -13.6587 -13.4753  -8.7250  -8.7200
    -8.5852  -8.4310  -8.4265  -8.3974  -8.2801  -8.0157  -7.9680  -7.9589
    -7.9501  -7.8807  -7.8748  -7.8727  -7.8678  -7.7947  -7.7802  -7.6605
    -7.5810  -7.5365  -7.4730  -7.4683  -7.3009  -7.1372  -4.0993  -4.0526
    -3.6446  -3.5300  -3.2830  -3.2678  -3.2281  -3.1023  -3.0049  -2.9769
    -2.9693  -2.9111  -2.9036  -2.9025  -2.5197  -2.5155  -2.3489  -2.3346
    -2.3202  -2.2542  -2.1083  -2.1077  -2.0062  -2.0055  -1.8815  -1.8516
    -1.8510  -1.8255  -1.7772  -1.7648  -1.6907  -1.4491  -1.4095  -1.3925
    -1.1959  -1.1718  -1.1678  -1.1524  -1.1522  -1.0919  -1.0715  -0.9984
    -0.9337  -0.9334  -0.9261  -0.9246  -0.9208  -0.9115  -0.8785  -0.8256
    -0.8019  -0.7558  -0.7206  -0.7125  -0.7116  -0.6932  -0.6834  -0.6749
    -0.6319  -0.6277  -0.6098  -0.5699  -0.5691  -0.5231  -0.4152  -0.3629
    -0.3279  -0.3031  -0.0552  -0.0543  -0.0189   0.0627   0.1281   0.1329
     0.1349   0.1860   0.3394   0.3430   0.3974   0.4042   0.4046   0.5261
     0.5771   0.6194   0.7187   0.7891   0.8795   0.9130   1.0188   1.0282
     1.0362   1.0554   1.1254   1.1749   1.2293   1.2998   1.3380   1.3466
     1.3648   1.3764   1.4611   1.5010   1.5146   1.5265   1.5414   1.5474
     1.5508   1.5653   1.5676   1.5862   1.6408   1.7141   1.7722   1.7841
     1.8242   1.8284   1.8481   1.8842   1.8875   1.9157   1.9439   1.9536
     1.9655   2.0350   2.0395   2.0498   2.0591   2.0717   2.0862   2.1026
     2.1207   2.1584   2.2033   2.2257   2.3065   2.3075   2.3128   2.3387
     2.3442   2.3615   2.3637   2.3761   2.4575   2.5489   2.5723   2.5732
     2.6072   2.6959   2.7565   2.7575   2.7995   2.8151   2.9680   2.9817
     4.1935   4.2244   4.7967   4.8141   4.8678   4.9198   5.7440   5.9720
     5.9740   6.6870   6.7753   7.8020   7.9509   7.9532   7.9941   8.3826
     8.4780   8.5116   8.5267   8.5799   8.7429   8.8446   8.9691   8.9945
     8.9978   9.0406   9.0419   9.1558   9.2649   9.2801   9.3670   9.3720
     9.4539   9.4735   9.5037   9.5538   9.5551   9.7844   9.8124   9.8831
     9.9593   9.9702

          k = 0.1250 0.0000 0.0000 ( 68851 PWs)   bands (ev):

   -37.9606 -37.8881 -35.5871 -35.4981 -22.7534 -22.7483 -22.6832 -22.6343
   -22.6294 -22.5131 -22.4628 -22.3166 -18.4353 -18.3498 -18.3286 -18.2603
   -17.9637 -17.8951 -16.9383 -16.8358 -16.8123 -16.7297 -16.6167 -16.5324
   -15.3208 -15.2513 -14.9066 -14.8910 -14.7731 -14.6265 -14.5835 -14.5379
   -14.5043 -14.4615 -14.4518 -14.4020 -14.3907 -14.3482 -14.2108 -14.1198
   -14.0336 -13.9982 -13.9394 -13.9373 -13.9277 -13.9227 -13.9195 -13.8253
   -13.8244 -13.7655 -13.6775 -13.4907 -13.4511 -13.3173  -8.0277  -7.9978
    -7.9917  -7.8915  -7.8859  -7.8522  -7.7936  -7.7890  -7.7118  -7.6609
    -7.6561  -7.6560  -7.5929  -7.5794  -7.5748  -7.5013  -7.4647  -7.4405
    -7.4356  -7.4185  -7.3343  -7.2980  -7.2665  -7.1264  -2.8894  -2.8785
    -2.7112  -2.5992  -2.1108  -2.1080  -2.0466  -2.0452  -1.9751  -1.9314
    -1.8928  -1.8571  -1.8192  -1.7960  -1.7702  -1.7436  -1.6991  -1.6871
    -1.6091  -1.6037  -1.5684  -1.5199  -1.4456  -1.4161  -1.3520  -1.3089
    -1.3041  -1.2516  -1.0586  -0.9869  -0.9556  -0.9416  -0.8965  -0.8627
    -0.8615  -0.8613  -0.8603  -0.8390  -0.8279  -0.7835  -0.7726  -0.6879
    -0.6706  -0.6270  -0.6160  -0.6151  -0.5932  -0.5473  -0.4854  -0.4618
    -0.4348  -0.2506  -0.2493  -0.2415  -0.2125  -0.1791  -0.1263  -0.1248
    -0.1194  -0.0962  -0.0954  -0.0883  -0.0721  -0.0521   0.0057   0.0728
     0.0952   0.1044   0.1083   0.1107   0.1282   0.1561   0.1861   0.1982
     0.2534   0.2561   0.2892   0.2994   0.3074   0.3320   0.3330   0.3685
     0.3696   0.4128   0.4429   0.4672   0.4781   0.4837   0.5252   0.5252
     0.5941   0.6178   0.6232   0.6373   0.6422   0.6739   0.6766   0.7175
     0.8313   0.8501   0.8587   0.8990   1.0027   1.0175   1.0405   1.0699
     1.1124   1.1579   1.1886   1.2066   1.2133   1.2625   1.2771   1.2905
     1.3055   1.3180   1.3579   1.3631   1.3896   1.4045   1.4523   1.5184
     1.5264   1.5563   1.5771   1.6329   1.6577   1.6588   1.6998   1.7445
     1.7839   1.8347   1.8546   1.8752   1.8873   1.9014   1.9290   1.9419
     1.9972   2.0107   2.0396   2.0970   2.1180   2.1611   2.1737   2.2363
     2.2941   2.3447   2.3657   2.3808   2.4249   2.4505   2.5487   2.6102
     2.6841   2.7025   2.7054   2.7973   2.9666   2.9942   5.3808   5.3942
     5.7674   6.1308   6.3564   6.6295   6.8038   6.8217   7.0228   7.0241
     7.0683   7.5647   7.7218   7.8182   7.8564   7.8780   8.1470   8.1952
     8.2670   8.3075   8.3287   8.4238   8.6020   8.6415   8.6554   8.7652
     8.7902   8.8796   8.9667   9.0346   9.1351   9.2226   9.2963   9.3769
     9.4449   9.5386

          k = 0.1250 0.2618 0.0000 ( 68827 PWs)   bands (ev):

   -37.9579 -37.8854 -35.5854 -35.4964 -22.7290 -22.7239 -22.6619 -22.6150
   -22.6101 -22.4947 -22.4395 -22.2976 -18.3966 -18.3214 -18.3109 -18.2531
   -18.0747 -18.0061 -16.9087 -16.8073 -16.8059 -16.7247 -16.6826 -16.5982
   -15.2157 -15.1482 -14.8521 -14.8364 -14.7066 -14.5792 -14.5458 -14.5014
   -14.4959 -14.4517 -14.3899 -14.3857 -14.3407 -14.3015 -14.1692 -14.0855
   -14.0309 -14.0037 -13.9872 -13.9263 -13.9209 -13.9174 -13.9167 -13.8796
   -13.8615 -13.7342 -13.7020 -13.5101 -13.4861 -13.3772  -8.0209  -7.9909
    -7.9848  -7.9064  -7.9012  -7.8432  -7.8197  -7.8149  -7.7471  -7.7422
    -7.7172  -7.6668  -7.6490  -7.6441  -7.6166  -7.6112  -7.5919  -7.5871
    -7.4832  -7.4783  -7.4650  -7.4067  -7.3071  -7.2830  -2.9868  -2.9668
    -2.7710  -2.6570  -2.2401  -2.2310  -2.1296  -2.1167  -2.1158  -2.0167
    -2.0104  -2.0019  -1.9343  -1.8951  -1.8709  -1.8576  -1.8127  -1.7814
    -1.7255  -1.6923  -1.6589  -1.6247  -1.6130  -1.5476  -1.5325  -1.4809
    -1.3760  -1.3351  -1.3042  -1.3030  -1.2794  -1.2787  -1.2520  -1.2306
    -1.1533  -1.1111  -1.0567  -0.9043  -0.8529  -0.7847  -0.7254  -0.6949
    -0.6410  -0.6211  -0.5786  -0.5347  -0.5303  -0.5160  -0.5026  -0.4597
    -0.4387  -0.3557  -0.3169  -0.3013  -0.2686  -0.2531  -0.2466  -0.2164
    -0.2101  -0.1671  -0.1206  -0.0961  -0.0383  -0.0334  -0.0047   0.0151
     0.0950   0.1011   0.1141   0.1198   0.1441   0.1777   0.1911   0.2025
     0.2723   0.2785   0.2871   0.3013   0.3227   0.3862   0.4068   0.4071
     0.4328   0.4521   0.4927   0.4982   0.5017   0.5126   0.5333   0.5404
     0.5613   0.5953   0.6206   0.6347   0.6500   0.7551   0.7554   0.8242
     0.8925   0.9461   0.9741   0.9925   1.0219   1.0661   1.1106   1.1559
     1.1608   1.2143   1.2341   1.2386   1.2783   1.3115   1.3195   1.3516
     1.3621   1.3769   1.3964   1.4166   1.4309   1.4499   1.5128   1.5180
     1.5222   1.5249   1.5789   1.6486   1.6785   1.7036   1.7272   1.7588
     1.7675   1.8074   1.8280   1.8561   1.8846   1.8919   1.9156   1.9328
     1.9658   2.0084   2.0170   2.0788   2.0833   2.1661   2.2436   2.2560
     2.2860   2.4204   2.4421   2.6308   2.9155   2.9209   2.9785   2.9913
     3.0811   3.1060   3.1225   3.1769   3.2937   3.3594   5.7550   5.7614
     5.9987   6.4035   6.5192   6.7523   7.0573   7.0590   7.1209   7.1256
     7.3850   7.6987   7.7706   7.7941   7.8971   7.9437   8.0343   8.0959
     8.3564   8.3997   8.5029   8.5895   8.7680   8.8034   8.8435   8.8866
     8.9665   8.9994   9.0904   9.1978   9.2677   9.2853   9.3204   9.3552
     9.4787   9.5088

          k = 0.1250 0.5236 0.0000 ( 68776 PWs)   bands (ev):

   -37.9514 -37.8789 -35.5813 -35.4923 -22.6690 -22.6638 -22.6096 -22.5675
   -22.5626 -22.4496 -22.3821 -22.2510 -18.3147 -18.3040 -18.2972 -18.2451
   -18.2357 -18.2121 -16.8369 -16.8240 -16.7955 -16.7428 -16.7302 -16.7128
   -14.9783 -14.9202 -14.7086 -14.6923 -14.5529 -14.5285 -14.5104 -14.4505
   -14.4457 -14.4136 -14.3783 -14.3050 -14.2129 -14.1629 -14.1354 -14.0555
   -14.0473 -14.0330 -14.0100 -13.9414 -13.9267 -13.8987 -13.8977 -13.8660
   -13.8656 -13.7526 -13.6615 -13.6255 -13.5220 -13.5053  -8.2105  -8.2056
    -8.0622  -7.9809  -7.9718  -7.9667  -7.9400  -7.9344  -7.8901  -7.8879
    -7.8827  -7.8441  -7.8393  -7.8151  -7.7918  -7.7076  -7.6789  -7.6095
    -7.5951  -7.5902  -7.5887  -7.5311  -7.4053  -7.2570  -3.3769  -3.3351
    -3.0162  -2.9029  -2.7256  -2.7085  -2.5362  -2.4415  -2.3929  -2.3538
    -2.3394  -2.3312  -2.1848  -2.1642  -2.1637  -2.1302  -2.1206  -2.0997
    -1.9802  -1.9799  -1.9684  -1.9680  -1.8561  -1.8377  -1.8179  -1.7810
    -1.7057  -1.6712  -1.5537  -1.5423  -1.5143  -1.4799  -1.4674  -1.4329
    -1.2760  -1.2412  -1.1178  -1.0935  -0.8923  -0.8589  -0.8449  -0.8267
    -0.7640  -0.7452  -0.6876  -0.6376  -0.5996  -0.5965  -0.5873  -0.5417
    -0.5259  -0.4955  -0.4919  -0.4745  -0.4587  -0.4310  -0.4219  -0.3982
    -0.3973  -0.3880  -0.3750  -0.3603  -0.2951  -0.2708  -0.2594  -0.2306
    -0.2194  -0.1826  -0.1511  -0.1429   0.0266   0.2080   0.2451   0.2653
     0.2740   0.2779   0.3431   0.3611   0.3802   0.3994   0.4210   0.4534
     0.4941   0.5536   0.5726   0.6111   0.6930   0.7318   0.7873   0.8071
     0.8600   0.8815   0.9089   0.9620   0.9705   1.0114   1.1289   1.1349
     1.1386   1.2111   1.2335   1.2633   1.2702   1.2787   1.2892   1.3136
     1.3209   1.3675   1.3845   1.4037   1.4440   1.4587   1.4659   1.4768
     1.4908   1.4972   1.5659   1.5806   1.5971   1.6062   1.6218   1.6253
     1.6620   1.6876   1.7099   1.7301   1.7464   1.7911   1.8322   1.8769
     1.8809   1.9194   1.9353   1.9398   1.9538   1.9703   2.0097   2.0380
     2.0441   2.0533   2.1287   2.1800   2.1810   2.2491   2.2858   2.3270
     2.3436   2.4062   2.6088   2.7623   3.1899   3.1962   3.2282   3.2371
     3.8250   3.8546   3.9121   3.9219   4.0453   4.0996   6.1099   6.6379
     6.6382   6.7507   6.7533   6.9987   7.1034   7.1710   7.2344   7.2508
     7.9705   7.9762   8.1753   8.3405   8.3775   8.5046   8.5295   8.5398
     8.6603   8.7091   8.7333   8.8404   8.8624   8.8897   8.9336   8.9870
     9.1265   9.1752   9.2903   9.3356   9.4338   9.4719   9.5225   9.5371
     9.5707   9.7163

          k = 0.1250 0.7854 0.0000 ( 68770 PWs)   bands (ev):

   -37.9448 -37.8724 -35.5772 -35.4882 -22.6072 -22.6020 -22.5561 -22.5190
   -22.5141 -22.4034 -22.3232 -22.2032 -18.5238 -18.4549 -18.2866 -18.2184
   -18.1911 -18.1049 -16.9574 -16.8719 -16.7844 -16.7516 -16.7016 -16.6484
   -14.7750 -14.7537 -14.6361 -14.5657 -14.5354 -14.5154 -14.4440 -14.3888
   -14.3692 -14.3489 -14.2869 -14.2672 -14.2187 -14.1509 -14.0648 -14.0539
   -14.0238 -14.0059 -13.9519 -13.9239 -13.8897 -13.8485 -13.8444 -13.8210
   -13.8190 -13.7844 -13.7422 -13.6538 -13.6275 -13.5103  -8.5620  -8.5571
    -8.4132  -8.2702  -8.2656  -8.2380  -8.1129  -7.9710  -7.9549  -7.9488
    -7.8922  -7.8909  -7.8874  -7.8867  -7.8823  -7.8139  -7.7590  -7.6721
    -7.5934  -7.5509  -7.5406  -7.5359  -7.3603  -7.2012  -3.8602  -3.8139
    -3.4231  -3.3093  -3.1384  -3.1223  -3.0210  -2.8956  -2.8626  -2.7786
    -2.7354  -2.7349  -2.6759  -2.6748  -2.4772  -2.4727  -2.3009  -2.2213
    -2.1919  -2.1602  -2.0874  -2.0862  -2.0178  -2.0170  -1.8777  -1.8496
    -1.7533  -1.7232  -1.6930  -1.6477  -1.6118  -1.5366  -1.4990  -1.4287
    -1.3627  -1.3329  -1.1032  -1.0896  -1.0778  -1.0367  -0.9673  -0.9517
    -0.9334  -0.9128  -0.8747  -0.8674  -0.8420  -0.8397  -0.7640  -0.7401
    -0.7083  -0.6929  -0.6811  -0.6447  -0.6256  -0.6106  -0.5930  -0.5770
    -0.5599  -0.5438  -0.5276  -0.4984  -0.4835  -0.4740  -0.4061  -0.3899
    -0.3520  -0.3361  -0.1014  -0.1009   0.0181   0.1715   0.2250   0.2477
     0.2515   0.2829   0.3130   0.3251   0.3591   0.4416   0.4601   0.4826
     0.5243   0.5666   0.7026   0.7774   0.8107   0.9080   0.9285   0.9889
     1.0400   1.0986   1.1178   1.1364   1.1885   1.2151   1.2232   1.2531
     1.2836   1.3481   1.3735   1.3787   1.4145   1.4343   1.4489   1.4686
     1.5153   1.5332   1.5538   1.5970   1.6379   1.6505   1.6758   1.7042
     1.7323   1.7441   1.7641   1.7898   1.8176   1.8569   1.8631   1.8909
     1.8974   1.9024   1.9183   1.9374   1.9529   1.9561   1.9819   2.0063
     2.0152   2.0484   2.0657   2.1161   2.1290   2.1677   2.1880   2.2150
     2.2428   2.2700   2.3010   2.3767   2.3791   2.3812   2.4659   2.5717
     2.5816   2.5859   2.5888   2.6869   3.0363   3.0463   3.1434   3.1557
     4.1485   4.1846   4.5258   4.5378   4.6012   4.6589   5.8761   6.2667
     6.2689   6.8514   6.9094   7.4157   7.5188   7.5262   7.9383   8.0227
     8.2292   8.4689   8.5036   8.6789   8.7281   8.7326   8.7972   8.9164
     8.9506   8.9930   9.0406   9.1328   9.1684   9.1985   9.2070   9.2651
     9.3764   9.4363   9.4892   9.5644   9.5729   9.6538   9.6727   9.7241
     9.7499   9.8060

          k = 0.1250-1.0472 0.0000 ( 68866 PWs)   bands (ev):

   -37.9421 -37.8697 -35.5755 -35.4865 -22.5811 -22.5758 -22.5336 -22.4985
   -22.4936 -22.3839 -22.2983 -22.1830 -18.6044 -18.5354 -18.2795 -18.2113
   -18.1438 -18.0575 -17.0079 -16.9222 -16.7798 -16.7157 -16.6970 -16.6124
   -14.7867 -14.7673 -14.5682 -14.5103 -14.5087 -14.4342 -14.4164 -14.3932
   -14.3817 -14.3651 -14.2556 -14.1655 -14.1638 -14.1213 -14.0878 -14.0557
   -14.0096 -13.9685 -13.9524 -13.9054 -13.8767 -13.8193 -13.8185 -13.8145
   -13.8024 -13.8014 -13.7440 -13.7131 -13.6557 -13.4838  -8.6948  -8.6898
    -8.5555  -8.4005  -8.3960  -8.3681  -8.2492  -7.9984  -7.9613  -7.9544
    -7.9454  -7.9077  -7.9029  -7.8836  -7.8777  -7.8120  -7.7914  -7.6626
    -7.6135  -7.5412  -7.5168  -7.5121  -7.3378  -7.1755  -4.0615  -4.0153
    -3.6102  -3.4958  -3.2983  -3.2827  -3.2269  -3.1042  -3.0146  -2.9750
    -2.9679  -2.9208  -2.9063  -2.9052  -2.5029  -2.4986  -2.3213  -2.3193
    -2.2934  -2.2374  -2.1106  -2.1099  -2.0071  -2.0063  -1.8879  -1.8503
    -1.8237  -1.8079  -1.7674  -1.7299  -1.6789  -1.4599  -1.4316  -1.3871
    -1.3027  -1.2606  -1.2310  -1.1726  -1.1582  -1.1223  -1.0813  -1.0290
    -1.0148  -0.9628  -0.9449  -0.9373  -0.9221  -0.9065  -0.8918  -0.8546
    -0.8013  -0.7907  -0.7577  -0.7072  -0.7055  -0.6844  -0.6679  -0.6603
    -0.6334  -0.6192  -0.6067  -0.5743  -0.5698  -0.5025  -0.4254  -0.3418
    -0.3078  -0.2820  -0.0685  -0.0681   0.0037   0.1357   0.1527   0.1900
     0.2220   0.2304   0.3072   0.3165   0.3835   0.4254   0.4271   0.5130
     0.5552   0.5725   0.7686   0.8410   0.8514   0.9553   0.9559   0.9926
     1.0467   1.0649   1.1430   1.1635   1.2403   1.2831   1.3375   1.3438
     1.3714   1.3810   1.4541   1.4751   1.5099   1.5117   1.5253   1.5327
     1.5481   1.5607   1.5669   1.6161   1.6346   1.7255   1.7543   1.7715
     1.8119   1.8290   1.8668   1.8859   1.9143   1.9443   1.9609   1.9697
     1.9740   2.0380   2.0446   2.0594   2.0809   2.1024   2.1045   2.1502
     2.1555   2.1627   2.1895   2.2250   2.2970   2.3111   2.3273   2.3301
     2.3390   2.3666   2.4298   2.4383   2.4730   2.5264   2.5754   2.5790
     2.5798   2.6859   2.7492   2.7503   2.8041   2.8190   2.9787   2.9943
     4.1794   4.2530   4.7179   4.7353   4.7944   4.8470   5.7852   6.0401
     6.0421   6.7219   6.8049   7.6854   7.8585   7.8607   8.0161   8.3526
     8.3786   8.3872   8.4760   8.5193   8.7840   8.8559   9.0143   9.0611
     9.0642   9.1399   9.1918   9.2389   9.2755   9.3138   9.4023   9.4167
     9.4542   9.5029   9.5112   9.5473   9.6129   9.7872   9.8479   9.9019
     9.9675   9.9712

          k = 0.2500 0.0000 0.0000 ( 68809 PWs)   bands (ev):

   -37.9606 -37.8881 -35.5871 -35.4981 -22.7407 -22.7356 -22.6769 -22.6477
   -22.6428 -22.5197 -22.4544 -22.3260 -18.4335 -18.3480 -18.3207 -18.2526
   -17.9637 -17.8951 -16.9454 -16.8431 -16.8407 -16.7582 -16.6167 -16.5324
   -15.2470 -15.1785 -14.8697 -14.8561 -14.7506 -14.6370 -14.5759 -14.5662
   -14.5450 -14.5095 -14.4790 -14.4507 -14.4199 -14.3627 -14.1676 -14.0913
   -14.0191 -13.9868 -13.9439 -13.9409 -13.9339 -13.9292 -13.9212 -13.8360
   -13.8260 -13.7322 -13.6805 -13.5025 -13.4704 -13.3386  -8.0343  -8.0027
    -7.9966  -7.8989  -7.8934  -7.8615  -7.7605  -7.7560  -7.7325  -7.6741
    -7.6373  -7.6323  -7.5985  -7.5938  -7.5591  -7.4824  -7.4668  -7.4619
    -7.4544  -7.3995  -7.3227  -7.3092  -7.2709  -7.1499  -2.7886  -2.7776
    -2.6168  -2.5020  -2.1283  -2.1228  -2.0829  -2.0810  -1.9661  -1.9641
    -1.9234  -1.8842  -1.8729  -1.8438  -1.8092  -1.7636  -1.7344  -1.6808
    -1.6391  -1.6273  -1.5899  -1.5860  -1.4011  -1.3797  -1.3688  -1.3428
    -1.3149  -1.3066  -1.0108  -0.9221  -0.8924  -0.8796  -0.8646  -0.8593
    -0.8587  -0.8544  -0.8507  -0.8257  -0.8122  -0.7928  -0.7120  -0.6511
    -0.6492  -0.6062  -0.5901  -0.5576  -0.5569  -0.5547  -0.4685  -0.4592
    -0.4289  -0.3233  -0.3144  -0.2384  -0.2345  -0.2071  -0.1883  -0.1756
    -0.1552  -0.1528  -0.1232  -0.1208  -0.0987  -0.0543  -0.0464  -0.0297
     0.0803   0.0920   0.0979   0.1001   0.1261   0.1381   0.1534   0.1867
     0.2804   0.2921   0.3342   0.3354   0.3570   0.3570   0.3691   0.3866
     0.3915   0.4009   0.4468   0.4507   0.4708   0.5009   0.5088   0.5949
     0.5978   0.6186   0.6204   0.6283   0.6856   0.6883   0.7108   0.7116
     0.8008   0.8215   0.8275   0.9198   0.9787   0.9939   1.0115   1.0827
     1.0971   1.1210   1.1543   1.1678   1.1923   1.2108   1.2169   1.2746
     1.2883   1.3220   1.3638   1.3805   1.3922   1.3997   1.4263   1.5071
     1.5132   1.5673   1.5861   1.6581   1.6606   1.6774   1.6788   1.7004
     1.7553   1.8366   1.8934   1.8946   1.9168   1.9255   1.9275   1.9446
     1.9748   2.0415   2.0828   2.1026   2.1264   2.1431   2.2354   2.2867
     2.3043   2.3053   2.3477   2.3817   2.3961   2.4021   2.5718   2.6226
     2.6954   2.7275   2.7297   2.7878   2.9485   2.9694   5.5235   5.5299
     5.9127   6.2849   6.4396   6.6362   6.6380   6.6848   6.9685   6.9790
     7.2038   7.5484   7.6444   7.7174   8.0882   8.0998   8.1579   8.2422
     8.2698   8.3314   8.3817   8.4610   8.5256   8.5614   8.6467   8.7521
     8.8817   8.9016   9.0118   9.0148   9.1448   9.2198   9.3410   9.4022
     9.4610   9.5386

          k = 0.2500 0.2618 0.0000 ( 68820 PWs)   bands (ev):

   -37.9579 -37.8854 -35.5854 -35.4964 -22.7170 -22.7118 -22.6560 -22.6277
   -22.6228 -22.5009 -22.4315 -22.3064 -18.3949 -18.3136 -18.3092 -18.2455
   -18.0746 -18.0061 -16.9155 -16.8344 -16.8129 -16.7519 -16.6824 -16.5980
   -15.1436 -15.0777 -14.8200 -14.8069 -14.6869 -14.5878 -14.5361 -14.5177
   -14.5043 -14.4769 -14.4667 -14.4020 -14.3861 -14.3372 -14.1266 -14.0644
   -14.0201 -13.9954 -13.9920 -13.9275 -13.9252 -13.9215 -13.9214 -13.8776
   -13.8679 -13.7111 -13.7000 -13.5355 -13.4859 -13.3900  -8.0249  -7.9973
    -7.9913  -7.9266  -7.9215  -7.8732  -7.8686  -7.8516  -7.7925  -7.7875
    -7.7451  -7.7042  -7.6645  -7.6358  -7.5755  -7.5708  -7.5326  -7.5279
    -7.5207  -7.4925  -7.4072  -7.3750  -7.2466  -7.2218  -2.8826  -2.8622
    -2.6701  -2.5547  -2.2752  -2.2647  -2.1486  -2.0979  -2.0955  -2.0358
    -2.0300  -2.0177  -1.9420  -1.9044  -1.8993  -1.8662  -1.8580  -1.8320
    -1.7548  -1.7300  -1.7149  -1.6915  -1.6691  -1.6511  -1.5257  -1.4895
    -1.3419  -1.3123  -1.2978  -1.2888  -1.2817  -1.2815  -1.1710  -1.1529
    -1.0995  -1.0605  -0.9812  -0.9058  -0.8619  -0.7911  -0.7438  -0.7022
    -0.6423  -0.6363  -0.6255  -0.5730  -0.5676  -0.5410  -0.4996  -0.4781
    -0.4625  -0.4204  -0.4022  -0.3441  -0.3277  -0.2870  -0.2493  -0.2229
    -0.1964  -0.1828  -0.1736  -0.1032  -0.0232  -0.0178   0.0226   0.0392
     0.0859   0.0981   0.1183   0.1296   0.1437   0.1589   0.1599   0.1716
     0.2668   0.2715   0.2738   0.2909   0.2967   0.3506   0.4399   0.4401
     0.4488   0.4561   0.4940   0.4988   0.5113   0.5173   0.5508   0.5630
     0.5837   0.6151   0.6276   0.6685   0.6849   0.7170   0.7325   0.8178
     0.8765   0.9443   1.0047   1.0218   1.0303   1.0616   1.0819   1.1567
     1.1822   1.2449   1.2529   1.2624   1.2734   1.2854   1.3197   1.3339
     1.3494   1.3604   1.3711   1.3959   1.4082   1.4250   1.4572   1.4746
     1.4957   1.5501   1.5556   1.6283   1.6479   1.6827   1.7481   1.7809
     1.7839   1.7873   1.8113   1.8322   1.8597   1.8723   1.8926   1.9108
     1.9497   1.9757   1.9953   2.0243   2.1003   2.2580   2.3475   2.4227
     2.4325   2.4587   2.6471   2.7154   2.9025   2.9104   2.9870   2.9972
     3.0712   3.0940   3.1365   3.1670   3.2672   3.3299   5.8646   5.8676
     6.0963   6.5225   6.5935   6.7723   6.7755   6.8075   7.2793   7.2838
     7.5158   7.6172   7.6863   7.8736   8.0026   8.0320   8.1936   8.1957
     8.3788   8.4324   8.5386   8.6384   8.6745   8.7316   8.8169   8.9072
     8.9479   8.9617   9.0037   9.1491   9.1652   9.2197   9.3052   9.3581
     9.3926   9.4485

          k = 0.2500 0.5236 0.0000 ( 68740 PWs)   bands (ev):

   -37.9514 -37.8789 -35.5813 -35.4923 -22.6585 -22.6533 -22.6047 -22.5786
   -22.5737 -22.4548 -22.3752 -22.2585 -18.3146 -18.2964 -18.2958 -18.2450
   -18.2283 -18.2106 -16.8417 -16.8262 -16.8187 -16.7441 -16.7368 -16.7353
   -14.9123 -14.8585 -14.6930 -14.6803 -14.5475 -14.5159 -14.5042 -14.4528
   -14.4354 -14.4003 -14.3785 -14.3068 -14.3012 -14.2194 -14.1456 -14.0834
   -14.0456 -14.0266 -14.0218 -13.9304 -13.9085 -13.8942 -13.8924 -13.8702
   -13.8698 -13.7433 -13.6592 -13.6271 -13.5300 -13.5027  -8.2460  -8.2411
    -8.0889  -7.9929  -7.9904  -7.9880  -7.9554  -7.9494  -7.9096  -7.8929
    -7.8877  -7.8383  -7.8121  -7.8073  -7.7878  -7.7154  -7.6712  -7.6400
    -7.5877  -7.5476  -7.5429  -7.5035  -7.3687  -7.2188  -3.2762  -3.2347
    -2.9138  -2.8032  -2.7588  -2.7353  -2.5455  -2.4472  -2.3984  -2.3580
    -2.3226  -2.3148  -2.1746  -2.1681  -2.1678  -2.1232  -2.1188  -2.0909
    -1.9871  -1.9869  -1.9650  -1.9648  -1.8796  -1.8361  -1.7989  -1.7844
    -1.7273  -1.7022  -1.6846  -1.6141  -1.4935  -1.4820  -1.4317  -1.4164
    -1.2630  -1.2467  -1.1502  -1.1247  -0.9394  -0.9129  -0.8765  -0.8520
    -0.8007  -0.7763  -0.7645  -0.7496  -0.6957  -0.6388  -0.6290  -0.5929
    -0.5815  -0.5286  -0.5184  -0.4899  -0.4624  -0.4504  -0.4392  -0.3864
    -0.3809  -0.3723  -0.3669  -0.3517  -0.2884  -0.2806  -0.2762  -0.2320
    -0.1896  -0.1447  -0.1389  -0.1228   0.0560   0.1228   0.1740   0.2357
     0.2596   0.2993   0.3485   0.3594   0.3655   0.4089   0.4694   0.5143
     0.5305   0.5892   0.6182   0.6602   0.6964   0.7138   0.7676   0.8611
     0.8899   0.9025   0.9479   0.9884   0.9989   1.0184   1.0549   1.1074
     1.1146   1.1964   1.2114   1.2133   1.2348   1.2409   1.2543   1.2676
     1.3246   1.3688   1.3820   1.3972   1.4136   1.4570   1.4996   1.5244
     1.5538   1.5736   1.5903   1.5960   1.6064   1.6095   1.6173   1.6458
     1.6716   1.6931   1.7064   1.7309   1.7333   1.7672   1.7880   1.8225
     1.8429   1.8659   1.9224   1.9339   1.9482   1.9580   1.9700   1.9780
     1.9928   2.0367   2.1517   2.1553   2.2041   2.3321   2.3638   2.4782
     2.6527   2.6665   2.8882   2.9521   3.1926   3.1987   3.2345   3.2458
     3.8030   3.8198   3.8320   3.8552   3.9585   4.0109   6.1903   6.6786
     6.6791   6.7686   6.7713   7.0167   7.1619   7.2215   7.2999   7.3097
     8.1075   8.1104   8.2486   8.2966   8.3889   8.4709   8.4829   8.5130
     8.5361   8.5544   8.6671   8.8604   8.8873   8.9074   8.9441   9.0026
     9.1053   9.2162   9.2894   9.3305   9.4166   9.4544   9.4680   9.4778
     9.5243   9.6665

          k = 0.2500 0.7854 0.0000 ( 68816 PWs)   bands (ev):

   -37.9448 -37.8724 -35.5772 -35.4882 -22.5983 -22.5931 -22.5522 -22.5282
   -22.5234 -22.4075 -22.3175 -22.2093 -18.5237 -18.4548 -18.2793 -18.2112
   -18.1898 -18.1036 -16.9574 -16.8719 -16.8068 -16.7568 -16.7241 -16.6537
   -14.7357 -14.7189 -14.5849 -14.5480 -14.5345 -14.5102 -14.4296 -14.3803
   -14.3596 -14.3370 -14.2849 -14.2711 -14.2173 -14.1481 -14.1333 -14.0874
   -14.0365 -14.0136 -14.0071 -13.9205 -13.8801 -13.8451 -13.8404 -13.8250
   -13.8215 -13.7777 -13.7364 -13.6648 -13.6159 -13.5266  -8.5221  -8.5172
    -8.3704  -8.1990  -8.1610  -8.1564  -8.0193  -8.0145  -8.0075  -7.9654
    -7.9393  -7.9333  -7.8948  -7.8902  -7.8871  -7.8181  -7.7710  -7.7013
    -7.6678  -7.5967  -7.5920  -7.5619  -7.4124  -7.2536  -3.7578  -3.7131
    -3.3286  -3.2172  -3.1846  -3.1641  -3.0179  -2.9010  -2.8878  -2.8042
    -2.7285  -2.7283  -2.6829  -2.6819  -2.4329  -2.4282  -2.2612  -2.1770
    -2.1106  -2.1006  -2.0915  -2.0676  -2.0131  -2.0116  -1.8966  -1.8458
    -1.7451  -1.7207  -1.6778  -1.6691  -1.6450  -1.5966  -1.5491  -1.5081
    -1.4387  -1.3462  -1.2494  -1.2242  -1.1214  -1.0906  -1.0752  -1.0191
    -1.0008  -0.9640  -0.9621  -0.9550  -0.8607  -0.8396  -0.8290  -0.7741
    -0.6921  -0.6449  -0.6420  -0.6297  -0.6142  -0.5949  -0.5759  -0.5668
    -0.5637  -0.5348  -0.5174  -0.4916  -0.4834  -0.4558  -0.4185  -0.3617
    -0.3381  -0.3102  -0.1351  -0.1336   0.0242   0.1035   0.1435   0.2327
     0.3293   0.3365   0.3829   0.4121   0.4613   0.4723   0.4768   0.5084
     0.5387   0.5965   0.7590   0.8229   0.8370   0.8584   0.9008   1.0394
     1.0782   1.1059   1.1148   1.1179   1.2005   1.2446   1.2716   1.2876
     1.3009   1.3344   1.3481   1.3577   1.3670   1.3791   1.4419   1.4495
     1.5000   1.5279   1.5415   1.5822   1.6327   1.6498   1.6703   1.6789
     1.6998   1.7296   1.7419   1.7816   1.8124   1.8346   1.8677   1.8708
     1.8961   1.9158   1.9211   1.9357   1.9589   1.9690   1.9735   2.0060
     2.0114   2.0240   2.0482   2.0942   2.1145   2.1389   2.1644   2.1770
     2.2084   2.2971   2.4035   2.4042   2.4671   2.5613   2.5621   2.6242
     2.6432   2.6552   2.8655   2.9075   3.0428   3.0516   3.1796   3.1991
     4.1422   4.2020   4.3372   4.3513   4.4311   4.4876   5.9968   6.4229
     6.4256   6.9397   6.9846   7.2875   7.4076   7.4129   7.8869   7.9599
     8.1810   8.3276   8.3574   8.7012   8.7145   8.7243   8.7958   8.9043
     9.0027   9.0380   9.0690   9.1680   9.2023   9.3117   9.3195   9.3401
     9.4206   9.4323   9.5373   9.5788   9.6056   9.6271   9.6880   9.7346
     9.8102   9.9201

          k = 0.2500-1.0472 0.0000 ( 68812 PWs)   bands (ev):

   -37.9421 -37.8697 -35.5755 -35.4865 -22.5729 -22.5676 -22.5301 -22.5069
   -22.5021 -22.3876 -22.2931 -22.1886 -18.6043 -18.5354 -18.2722 -18.2041
   -18.1427 -18.0563 -17.0079 -16.9222 -16.8015 -16.7205 -16.7187 -16.6173
   -14.7541 -14.7340 -14.5175 -14.5037 -14.4744 -14.4493 -14.4284 -14.3872
   -14.3818 -14.3361 -14.2483 -14.1667 -14.1558 -14.1203 -14.0856 -14.0680
   -14.0585 -13.9947 -13.9498 -13.9297 -13.9034 -13.8181 -13.8170 -13.8063
   -13.8051 -13.8039 -13.7684 -13.7151 -13.6423 -13.5075  -8.6080  -8.6030
    -8.4706  -8.3118  -8.3072  -8.2846  -8.1602  -8.0059  -8.0010  -7.9675
    -7.9473  -7.9408  -7.9134  -7.9018  -7.8921  -7.8863  -7.7829  -7.7046
    -7.6671  -7.6370  -7.6323  -7.5549  -7.4378  -7.2768  -3.9565  -3.9125
    -3.5168  -3.4041  -3.3477  -3.3290  -3.2240  -3.1092  -3.0460  -2.9736
    -2.9620  -2.9468  -2.9139  -2.9129  -2.4496  -2.4450  -2.2695  -2.2415
    -2.2136  -2.1823  -2.1177  -2.1166  -2.0074  -2.0063  -1.9048  -1.8470
    -1.7960  -1.7605  -1.7126  -1.6563  -1.6409  -1.5432  -1.5141  -1.5076
    -1.4912  -1.3731  -1.3540  -1.3040  -1.2838  -1.2242  -1.1741  -1.1490
    -1.0969  -1.0362  -0.9973  -0.9893  -0.9339  -0.8841  -0.8532  -0.8376
    -0.7411  -0.7229  -0.7212  -0.7021  -0.6920  -0.6864  -0.6561  -0.6456
    -0.6239  -0.6022  -0.5782  -0.5679  -0.5542  -0.4728  -0.4405  -0.3323
    -0.3047  -0.2785  -0.1116  -0.1109  -0.0045   0.0923   0.1425   0.2326
     0.3443   0.3528   0.3550   0.4225   0.4519   0.4600   0.4721   0.5051
     0.5093   0.5927   0.7892   0.8941   0.9042   0.9075   0.9809   1.0705
     1.1265   1.1413   1.1511   1.1667   1.1907   1.3075   1.3263   1.3564
     1.3576   1.3796   1.3936   1.4118   1.4201   1.4614   1.5207   1.5266
     1.5366   1.5635   1.5666   1.6253   1.6930   1.7028   1.7501   1.7530
     1.7676   1.8033   1.8085   1.8239   1.8821   1.8999   1.9671   1.9732
     1.9870   1.9995   2.0356   2.0412   2.0676   2.0683   2.1086   2.1385
     2.1578   2.2128   2.2499   2.2928   2.3076   2.3140   2.3186   2.3402
     2.3710   2.4555   2.4592   2.5497   2.5606   2.5982   2.5991   2.6674
     2.7287   2.7297   2.7360   2.7706   2.8205   2.8317   3.0593   3.0837
     4.1722   4.2912   4.4896   4.5089   4.5832   4.6363   5.9063   6.2328
     6.2346   6.8177   6.8838   7.4029   7.6099   7.6117   8.0734   8.0745
     8.0844   8.3909   8.4729   8.5299   8.8319   8.8791   9.1210   9.1470
     9.2389   9.2934   9.3144   9.3430   9.4037   9.4090   9.4373   9.5010
     9.5459   9.5609   9.6095   9.6831   9.7648   9.7884   9.8481   9.8870
     9.9137   9.9700

          k = 0.3750 0.0000 0.0000 ( 68824 PWs)   bands (ev):

   -37.9606 -37.8881 -35.5871 -35.4981 -22.7226 -22.7173 -22.6701 -22.6666
   -22.6618 -22.5269 -22.4444 -22.3368 -18.4318 -18.3462 -18.3127 -18.2447
   -17.9637 -17.8951 -16.9525 -16.8683 -16.8503 -16.7859 -16.6167 -16.5324
   -15.1521 -15.0857 -14.8465 -14.8287 -14.7208 -14.6581 -14.6408 -14.5915
   -14.5794 -14.5226 -14.5193 -14.4585 -14.4407 -14.3750 -14.1416 -14.0748
   -14.0045 -13.9766 -13.9471 -13.9438 -13.9409 -13.9365 -13.9240 -13.8450
   -13.8275 -13.6895 -13.6747 -13.5467 -13.4742 -13.3604  -8.0409  -8.0068
    -8.0008  -7.9045  -7.8991  -7.8705  -7.7475  -7.7204  -7.7159  -7.6872
    -7.6272  -7.6225  -7.6023  -7.5973  -7.5276  -7.5043  -7.4995  -7.4599
    -7.4568  -7.3698  -7.3476  -7.2813  -7.2783  -7.1824  -2.6335  -2.6229
    -2.4774  -2.3586  -2.2589  -2.2505  -2.1062  -2.0594  -2.0533  -1.9565
    -1.9564  -1.9427  -1.9360  -1.9148  -1.8606  -1.7841  -1.7552  -1.6728
    -1.6465  -1.6384  -1.6041  -1.5956  -1.4318  -1.3642  -1.3536  -1.3315
    -1.3171  -1.3114  -0.9578  -0.9105  -0.8673  -0.8581  -0.8567  -0.8546
    -0.8531  -0.8060  -0.7761  -0.7617  -0.7523  -0.7505  -0.6999  -0.6903
    -0.6451  -0.6153  -0.5926  -0.5470  -0.5024  -0.4700  -0.4642  -0.4264
    -0.4223  -0.3637  -0.3550  -0.3481  -0.2946  -0.2684  -0.2399  -0.2368
    -0.2065  -0.1835  -0.1398  -0.1282  -0.1095  -0.0916  -0.0502  -0.0177
     0.0484   0.0656   0.0823   0.0871   0.0887   0.1189   0.1412   0.1679
     0.3136   0.3168   0.3407   0.3420   0.3545   0.3558   0.3812   0.3933
     0.4224   0.4523   0.4613   0.4637   0.4711   0.5378   0.5421   0.5872
     0.5906   0.6184   0.6508   0.6641   0.6694   0.6913   0.7052   0.7927
     0.8029   0.8185   0.8226   0.9276   0.9376   0.9768   0.9815   0.9849
     1.0175   1.0771   1.1282   1.1499   1.1564   1.2153   1.2200   1.2952
     1.3060   1.3261   1.3824   1.4108   1.4346   1.4543   1.4572   1.4775
     1.4890   1.5132   1.5830   1.6093   1.6219   1.6592   1.6684   1.6873
     1.7291   1.7849   1.8195   1.8783   1.9345   1.9524   1.9638   2.0135
     2.0496   2.0503   2.0598   2.0778   2.0900   2.1167   2.2626   2.2665
     2.3117   2.3276   2.3318   2.3865   2.4210   2.4801   2.5855   2.6546
     2.7013   2.7539   2.7682   2.7815   2.9081   2.9199   5.7309   5.7330
     6.1017   6.2912   6.2917   6.4986   6.5379   6.7447   7.2162   7.2296
     7.3189   7.3859   7.4266   7.8146   7.9355   7.9425   8.1470   8.2537
     8.2726   8.3204   8.3341   8.4847   8.5797   8.6140   8.6791   8.7464
     9.0025   9.0035   9.1143   9.1259   9.1603   9.2797   9.3214   9.3454
     9.3708   9.4208

          k = 0.3750 0.2618 0.0000 ( 68830 PWs)   bands (ev):

   -37.9579 -37.8854 -35.5854 -35.4964 -22.6998 -22.6945 -22.6496 -22.6456
   -22.6408 -22.5077 -22.4221 -22.3166 -18.3932 -18.3075 -18.3057 -18.2377
   -18.0746 -18.0061 -16.9222 -16.8608 -16.8198 -16.7783 -16.6823 -16.5979
   -15.0495 -14.9870 -14.7972 -14.7825 -14.6611 -14.6049 -14.5806 -14.5527
   -14.5442 -14.4896 -14.4889 -14.4175 -14.4161 -14.3463 -14.1035 -14.0556
   -14.0118 -13.9973 -13.9899 -13.9306 -13.9284 -13.9264 -13.9224 -13.8770
   -13.8713 -13.7020 -13.6697 -13.5714 -13.4896 -13.4015  -8.0290  -8.0072
    -8.0015  -7.9520  -7.9470  -7.8999  -7.8950  -7.8707  -7.8160  -7.8110
    -7.7584  -7.7253  -7.7000  -7.6626  -7.5370  -7.5234  -7.5191  -7.5184
    -7.4922  -7.4875  -7.3639  -7.3333  -7.2042  -7.1777  -2.7237  -2.7032
    -2.5221  -2.4046  -2.3694  -2.3548  -2.2088  -2.0908  -2.0786  -2.0626
    -2.0575  -2.0442  -1.9557  -1.9451  -1.9343  -1.9119  -1.9056  -1.8619
    -1.8337  -1.7842  -1.7524  -1.7320  -1.6993  -1.6837  -1.5193  -1.4823
    -1.3113  -1.3008  -1.2902  -1.2876  -1.2863  -1.2623  -1.0742  -1.0397
    -1.0372  -0.9613  -0.9307  -0.8609  -0.8460  -0.7897  -0.7666  -0.7490
    -0.7376  -0.7152  -0.6449  -0.6187  -0.6116  -0.5898  -0.5615  -0.5091
    -0.4920  -0.4658  -0.4383  -0.4097  -0.3830  -0.3264  -0.2601  -0.2330
    -0.2094  -0.1460  -0.1331  -0.1047  -0.0130  -0.0081   0.0040   0.0132
     0.0660   0.0844   0.1041   0.1230   0.1353   0.1413   0.1695   0.2075
     0.2439   0.2543   0.2590   0.2771   0.3114   0.3385   0.4568   0.4642
     0.4816   0.4854   0.4982   0.5063   0.5231   0.5257   0.5785   0.5989
     0.6116   0.6179   0.6287   0.6492   0.6553   0.7591   0.7913   0.8170
     0.8421   0.9104   1.0028   1.0444   1.0645   1.0709   1.1017   1.1300
     1.1644   1.1750   1.2119   1.2298   1.2363   1.2959   1.3303   1.3428
     1.3578   1.3684   1.3755   1.3916   1.4121   1.4344   1.4550   1.4814
     1.5295   1.5805   1.5996   1.6149   1.6285   1.6579   1.6992   1.7366
     1.7405   1.7585   1.7680   1.8007   1.8593   1.8659   1.8731   1.8868
     1.9088   1.9316   1.9679   2.0213   2.1748   2.2859   2.3979   2.4504
     2.6136   2.6234   2.8324   2.8716   2.8757   2.8999   3.0014   3.0083
     3.0511   3.0693   3.1281   3.1695   3.2087   3.2740   6.0321   6.0330
     6.2093   6.4960   6.4965   6.6818   6.7202   6.8682   7.3950   7.4616
     7.5361   7.5429   7.7360   8.0449   8.0616   8.0636   8.1660   8.1690
     8.3760   8.4118   8.4787   8.6310   8.6734   8.7248   8.7738   8.8216
     8.9088   8.9508   9.0746   9.0944   9.2005   9.2464   9.3240   9.3256
     9.3766   9.4119

          k = 0.3750 0.5236 0.0000 ( 68769 PWs)   bands (ev):

   -37.9514 -37.8789 -35.5813 -35.4923 -22.6437 -22.6383 -22.5994 -22.5939
   -22.5892 -22.4603 -22.3673 -22.2670 -18.3145 -18.2943 -18.2887 -18.2450
   -18.2208 -18.2091 -16.8474 -16.8439 -16.8252 -16.7619 -16.7426 -16.7416
   -14.8259 -14.7811 -14.6857 -14.6753 -14.5405 -14.5012 -14.4945 -14.4623
   -14.4197 -14.3961 -14.3943 -14.3792 -14.2969 -14.2787 -14.1529 -14.1057
   -14.0686 -14.0397 -14.0132 -13.9150 -13.9004 -13.8899 -13.8856 -13.8751
   -13.8748 -13.7343 -13.6566 -13.6283 -13.5377 -13.5009  -8.2441  -8.2393
    -8.1066  -8.1018  -8.0832  -7.9884  -7.9548  -7.9498  -7.9482  -7.9018
    -7.8875  -7.8825  -7.7855  -7.7575  -7.7102  -7.7012  -7.6964  -7.6153
    -7.5504  -7.5457  -7.5389  -7.4077  -7.3643  -7.2202  -3.1312  -3.0907
    -2.8391  -2.8111  -2.7666  -2.6552  -2.5729  -2.4692  -2.4050  -2.3629
    -2.2903  -2.2838  -2.1849  -2.1817  -2.1435  -2.1128  -2.1117  -2.0598
    -2.0233  -2.0189  -1.9622  -1.9592  -1.9554  -1.9006  -1.8959  -1.8402
    -1.8320  -1.7560  -1.5649  -1.5301  -1.4539  -1.4093  -1.3906  -1.3300
    -1.2632  -1.2583  -1.2074  -1.1679  -1.1046  -1.0902  -0.9865  -0.9294
    -0.8816  -0.8518  -0.8295  -0.7865  -0.7475  -0.7180  -0.5968  -0.5878
    -0.5683  -0.5483  -0.5285  -0.5048  -0.4910  -0.4390  -0.4288  -0.3739
    -0.3626  -0.3584  -0.3487  -0.3404  -0.3099  -0.3067  -0.2541  -0.2021
    -0.1654  -0.1327  -0.1201  -0.1087  -0.0236   0.0338   0.1093   0.2239
     0.2374   0.3020   0.3104   0.3440   0.4368   0.4751   0.5205   0.5581
     0.6195   0.6297   0.6592   0.6812   0.7111   0.7437   0.7643   0.8594
     0.9127   0.9559   0.9813   1.0012   1.0253   1.0326   1.0574   1.0976
     1.1114   1.1384   1.1614   1.1909   1.1954   1.1973   1.2051   1.2370
     1.2953   1.3090   1.3537   1.4244   1.4545   1.4718   1.4972   1.5331
     1.5487   1.5776   1.5938   1.6148   1.6238   1.6465   1.6664   1.6704
     1.6846   1.6996   1.7164   1.7247   1.7585   1.7713   1.7730   1.7935
     1.8113   1.8288   1.8481   1.8780   1.9045   1.9329   1.9414   2.0085
     2.0204   2.0337   2.1154   2.1176   2.2575   2.3560   2.4136   2.5518
     3.0022   3.0110   3.1594   3.1849   3.1981   3.2029   3.2933   3.3292
     3.6281   3.6431   3.7764   3.8330   3.8402   3.8820   6.2819   6.7270
     6.7282   6.7818   6.7842   7.0149   7.2494   7.3068   7.3481   7.3803
     8.1688   8.2092   8.2870   8.2915   8.3279   8.3734   8.4675   8.4736
     8.5280   8.5468   8.7154   8.8385   8.8727   8.9636   8.9981   9.0750
     9.1409   9.2550   9.2654   9.2909   9.2955   9.4037   9.4375   9.4441
     9.5105   9.5408

          k = 0.3750 0.7854 0.0000 ( 68808 PWs)   bands (ev):

   -37.9448 -37.8724 -35.5772 -35.4882 -22.5861 -22.5807 -22.5480 -22.5408
   -22.5361 -22.4119 -22.3110 -22.2162 -18.5237 -18.4548 -18.2718 -18.2038
   -18.1886 -18.1023 -16.9573 -16.8718 -16.8290 -16.7619 -16.7463 -16.6590
   -14.6861 -14.6722 -14.5817 -14.5708 -14.5100 -14.4341 -14.4111 -14.3606
   -14.3493 -14.3222 -14.2867 -14.2788 -14.2223 -14.1992 -14.1380 -14.1325
   -14.0986 -14.0644 -13.9840 -13.9327 -13.8665 -13.8399 -13.8347 -13.8292
   -13.8258 -13.7789 -13.7290 -13.6776 -13.5977 -13.5494  -8.4408  -8.4359
    -8.2894  -8.1684  -8.1636  -8.1216  -8.0314  -8.0158  -8.0111  -7.9534
    -7.9304  -7.9243  -7.9009  -7.8957  -7.8811  -7.8364  -7.7544  -7.7468
    -7.7017  -7.6970  -7.6442  -7.5583  -7.5015  -7.3401  -3.6167  -3.5755
    -3.2675  -3.2432  -3.2040  -3.0949  -3.0256  -2.9269  -2.9068  -2.8498
    -2.7182  -2.7177  -2.6934  -2.6925  -2.3535  -2.3483  -2.1842  -2.1338
    -2.1312  -2.0899  -2.0016  -1.9990  -1.9672  -1.9481  -1.9287  -1.8600
    -1.8541  -1.8374  -1.7904  -1.6972  -1.6432  -1.5869  -1.5293  -1.4951
    -1.4740  -1.4593  -1.4399  -1.3299  -1.2936  -1.2245  -1.1784  -1.1505
    -1.0260  -0.9919  -0.9779  -0.9631  -0.8502  -0.8052  -0.7790  -0.7617
    -0.6762  -0.6393  -0.6143  -0.6053  -0.6013  -0.5919  -0.5753  -0.5549
    -0.5214  -0.5197  -0.5109  -0.4984  -0.4481  -0.4377  -0.3911  -0.3536
    -0.3412  -0.3174  -0.1849  -0.1790  -0.0933  -0.0296   0.1538   0.2729
     0.2878   0.3565   0.4032   0.4418   0.4938   0.5094   0.6239   0.6486
     0.6750   0.6945   0.7415   0.7587   0.8552   0.9552   1.0002   1.0623
     1.0883   1.1165   1.1364   1.1415   1.1551   1.1777   1.2119   1.2491
     1.2704   1.2784   1.3560   1.3923   1.4058   1.4584   1.4747   1.5015
     1.5219   1.5278   1.5425   1.5783   1.5786   1.6019   1.6079   1.6596
     1.6781   1.6812   1.7375   1.7836   1.7902   1.8105   1.8292   1.8620
     1.8703   1.8766   1.9242   1.9292   1.9423   1.9567   1.9792   1.9939
     1.9988   2.0191   2.0334   2.0407   2.0760   2.1174   2.1412   2.1478
     2.1773   2.2875   2.4338   2.4406   2.4414   2.5264   2.5272   2.6403
     2.9835   2.9860   3.0488   3.0566   3.1731   3.2030   3.4039   3.4442
     4.0109   4.0382   4.1316   4.1795   4.2062   4.2336   6.1661   6.6540
     6.6581   6.9977   7.0541   7.1498   7.2206   7.2250   7.7802   7.8151
     8.1923   8.2627   8.2970   8.7153   8.7326   8.7623   8.7917   8.8715
     8.9816   9.0116   9.0322   9.1396   9.1778   9.3762   9.4468   9.4946
     9.5403   9.5596   9.5681   9.6591   9.6950   9.7249   9.7959   9.8247
     9.9368   9.9836

          k = 0.3750-1.0472 0.0000 ( 68774 PWs)   bands (ev):

   -37.9421 -37.8697 -35.5755 -35.4865 -22.5618 -22.5564 -22.5264 -22.5183
   -22.5136 -22.3916 -22.2872 -22.1947 -18.6042 -18.5353 -18.2647 -18.1968
   -18.1415 -18.0551 -17.0080 -16.9222 -16.8229 -16.7402 -16.7253 -16.6222
   -14.7052 -14.6827 -14.5604 -14.5391 -14.4400 -14.4188 -14.3831 -14.3724
   -14.3390 -14.3048 -14.2465 -14.1708 -14.1509 -14.1306 -14.1252 -14.1130
   -14.0391 -14.0271 -14.0073 -13.9414 -13.8947 -13.8156 -13.8144 -13.8129
   -13.8085 -13.8072 -13.7825 -13.7256 -13.6157 -13.5418  -8.4766  -8.4716
    -8.3434  -8.1737  -8.1690  -8.1603  -8.1485  -8.1437  -8.0337  -8.0279
    -7.9500  -7.9322  -7.9261  -7.9078  -7.9022  -7.8440  -7.8365  -7.8037
    -7.7990  -7.7798  -7.6650  -7.6058  -7.5322  -7.4062  -3.8141  -3.7739
    -3.4323  -3.4093  -3.3945  -3.2849  -3.2269  -3.1142  -3.0962  -3.0116
    -2.9513  -2.9506  -2.9253  -2.9244  -2.3583  -2.3531  -2.1785  -2.1354
    -2.1334  -2.1206  -2.0872  -2.0758  -1.9969  -1.9915  -1.9396  -1.8374
    -1.7906  -1.7757  -1.7622  -1.7479  -1.6905  -1.6799  -1.6538  -1.6211
    -1.5446  -1.5407  -1.4992  -1.4390  -1.3576  -1.3257  -1.2227  -1.1942
    -1.0817  -1.0425  -1.0265  -1.0243  -0.9458  -0.9112  -0.7749  -0.7578
    -0.7118  -0.7109  -0.6994  -0.6799  -0.6594  -0.6399  -0.6346  -0.6322
    -0.6074  -0.5860  -0.5719  -0.5501  -0.4892  -0.4360  -0.4170  -0.3627
    -0.3338  -0.3038  -0.1816  -0.1785  -0.1231  -0.0542   0.1669   0.2981
     0.3057   0.3773   0.4384   0.4779   0.5242   0.5305   0.5686   0.6344
     0.6597   0.7092   0.7719   0.7785   0.9602   1.0441   1.0851   1.1638
     1.1755   1.2001   1.2034   1.2173   1.2326   1.2534   1.2989   1.3021
     1.3035   1.3566   1.3765   1.3860   1.4136   1.4218   1.5283   1.5318
     1.5502   1.5517   1.5588   1.5812   1.6156   1.6371   1.6675   1.7100
     1.7580   1.7644   1.7780   1.8272   1.8334   1.8494   1.8914   1.9645
     1.9823   1.9999   2.0071   2.0301   2.0536   2.0678   2.1049   2.1100
     2.1405   2.1773   2.2229   2.2469   2.2869   2.3096   2.3108   2.3178
     2.3207   2.3278   2.3832   2.6273   2.6282   2.6542   2.6984   2.6993
     2.8002   2.8058   2.8340   2.8435   3.1368   3.1667   3.3843   3.4243
     4.0862   4.1363   4.2127   4.2635   4.3016   4.3401   6.0870   6.5214
[...]
    -1.2995  -1.2959  -1.2913  -1.2903  -1.2838  -1.2490  -1.0346  -0.9944
    -0.9411  -0.9301  -0.8937  -0.8502  -0.8094  -0.8026  -0.7880  -0.7808
    -0.7576  -0.7028  -0.6959  -0.6675  -0.6465  -0.6419  -0.6202  -0.6072
    -0.4808  -0.4652  -0.4581  -0.3847  -0.3511  -0.3284  -0.3155  -0.2335
    -0.2222  -0.1235  -0.1047  -0.0771  -0.0706  -0.0404   0.0218   0.0370
     0.0391   0.0459   0.1084   0.1220   0.1299   0.1497   0.1850   0.2188
     0.2402   0.2472   0.2527   0.2769   0.3213   0.3464   0.4587   0.4727
     0.4937   0.4974   0.5066   0.5151   0.5459   0.5583   0.5718   0.5757
     0.5998   0.6167   0.6318   0.6505   0.6563   0.7813   0.8067   0.8392
     0.8461   0.8861   0.9986   1.0544   1.0683   1.0834   1.1011   1.1181
     1.1292   1.1606   1.1752   1.1891   1.2137   1.2954   1.3006   1.3596
     1.3676   1.3846   1.3928   1.4101   1.4140   1.4404   1.5372   1.5466
     1.5623   1.5886   1.5914   1.6066   1.6350   1.6436   1.6739   1.6829
     1.6871   1.6918   1.7301   1.8092   1.8170   1.8752   1.8849   1.8898
     1.8972   1.9137   1.9694   2.0227   2.2174   2.2844   2.4063   2.4533
     2.7121   2.7215   2.8274   2.8437   2.9488   3.0064   3.0190   3.0266
     3.0338   3.0493   3.0834   3.1434   3.2096   3.2123   6.2369   6.2370
     6.2520   6.2545   6.2627   6.7538   6.8267   6.9317   7.2548   7.3168
     7.8173   7.8247   7.8723   7.8781   7.9886   8.0363   8.1044   8.1099
     8.3274   8.3438   8.4475   8.6404   8.7107   8.7252   8.8235   8.8651
     8.9152   9.0276   9.0281   9.0970   9.1499   9.1847   9.2690   9.2788
     9.3582   9.3658

          k =-0.5000 0.5236 0.0000 ( 68746 PWs)   bands (ev):

   -37.9514 -37.8789 -35.5813 -35.4923 -22.6335 -22.6280 -22.6042 -22.5997
   -22.5971 -22.4628 -22.3635 -22.2709 -18.3145 -18.2937 -18.2855 -18.2450
   -18.2176 -18.2085 -16.8541 -16.8490 -16.8256 -16.7715 -16.7450 -16.7420
   -14.7705 -14.7339 -14.6965 -14.6841 -14.5349 -14.4957 -14.4869 -14.4705
   -14.4365 -14.4074 -14.4047 -14.3816 -14.2993 -14.2932 -14.1550 -14.1139
   -14.0812 -14.0489 -14.0088 -13.9076 -13.8973 -13.8899 -13.8828 -13.8779
   -13.8765 -13.7308 -13.6554 -13.6285 -13.5411 -13.5003  -8.2101  -8.2053
    -8.1810  -8.1763  -8.0466  -8.0230  -7.9809  -7.9542  -7.9480  -7.8922
    -7.8869  -7.8819  -7.8268  -7.7516  -7.7283  -7.6134  -7.6099  -7.6063
    -7.6002  -7.5954  -7.4813  -7.4065  -7.3331  -7.2411  -3.0064  -2.9648
    -2.9298  -2.9023  -2.6505  -2.6369  -2.5371  -2.5298  -2.4082  -2.3651
    -2.2538  -2.2493  -2.2135  -2.2075  -2.1035  -2.0963  -2.0777  -2.0755
    -2.0745  -2.0564  -1.9926  -1.9537  -1.9522  -1.9486  -1.9317  -1.9268
    -1.8289  -1.7909  -1.4353  -1.3907  -1.3849  -1.3512  -1.3495  -1.3286
    -1.3103  -1.2843  -1.2624  -1.2440  -1.1988  -1.1226  -1.1016  -1.0660
    -0.8899  -0.8622  -0.8575  -0.8105  -0.7212  -0.6871  -0.5985  -0.5911
    -0.5729  -0.5639  -0.5393  -0.5130  -0.4979  -0.4353  -0.4238  -0.3681
    -0.3557  -0.3375  -0.3364  -0.3363  -0.3264  -0.3243  -0.1986  -0.1792
    -0.1443  -0.1308  -0.1238  -0.1039  -0.0994  -0.0709   0.1477   0.1997
     0.2394   0.2766   0.3280   0.3300   0.4806   0.5297   0.5593   0.5800
     0.5954   0.6105   0.7058   0.7069   0.7091   0.7508   0.7679   0.8780
     0.9493   0.9598   0.9659   1.0089   1.0349   1.0637   1.0917   1.1022
     1.1143   1.1157   1.1307   1.1683   1.1743   1.1855   1.1866   1.1914
     1.2561   1.2827   1.3571   1.4186   1.4565   1.4980   1.5297   1.5529
     1.5737   1.5856   1.5921   1.6043   1.6095   1.6315   1.6573   1.6713
     1.6723   1.6988   1.7218   1.7439   1.7489   1.7657   1.7727   1.7815
     1.8101   1.8272   1.8607   1.8817   1.8927   1.8946   1.9282   2.0010
     2.0645   2.0704   2.0737   2.0740   2.2780   2.3623   2.4300   2.5752
     3.1642   3.1674   3.1937   3.1990   3.3459   3.3600   3.3988   3.4171
     3.5047   3.5615   3.5868   3.6444   3.8405   3.8648   6.3247   6.7537
     6.7564   6.7813   6.7828   7.0074   7.3102   7.3507   7.3784   7.3902
     8.1063   8.1670   8.2428   8.3218   8.4101   8.4120   8.4310   8.4341
     8.5413   8.6284   8.8094   8.8106   8.8869   9.0000   9.0429   9.1103
     9.1104   9.1624   9.2157   9.3086   9.3263   9.3738   9.3796   9.3924
     9.4812   9.5198

          k =-0.5000 0.7854 0.0000 ( 68798 PWs)   bands (ev):

   -37.9448 -37.8724 -35.5772 -35.4882 -22.5782 -22.5727 -22.5488 -22.5462
   -22.5443 -22.4138 -22.3080 -22.2193 -18.5236 -18.4547 -18.2686 -18.2007
   -18.1880 -18.1017 -16.9573 -16.8718 -16.8381 -16.7641 -16.7554 -16.6611
   -14.6443 -14.6287 -14.6191 -14.6114 -14.4628 -14.3960 -14.3842 -14.3494
   -14.3425 -14.3254 -14.3139 -14.2791 -14.2465 -14.1865 -14.1695 -14.1359
   -14.1201 -14.0973 -13.9584 -13.9545 -13.8590 -13.8358 -13.8356 -13.8299
   -13.8268 -13.7828 -13.7240 -13.6844 -13.5764 -13.5726  -8.3368  -8.3317
    -8.2982  -8.2936  -8.1935  -8.1477  -8.0349  -7.9787  -7.9338  -7.9278
    -7.9252  -7.9192  -7.9142  -7.8403  -7.8397  -7.8353  -7.8353  -7.7893
    -7.7700  -7.7149  -7.6033  -7.5863  -7.5226  -7.4099  -3.5191  -3.4810
    -3.3394  -3.3109  -3.1143  -3.0622  -3.0154  -2.9556  -2.9083  -2.8891
    -2.7063  -2.7055  -2.7054  -2.7046  -2.2739  -2.2693  -2.1934  -2.1870
    -2.0781  -2.0570  -1.9854  -1.9725  -1.9667  -1.9465  -1.9452  -1.9200
    -1.8266  -1.8247  -1.7923  -1.7546  -1.6861  -1.6606  -1.5771  -1.5561
    -1.4812  -1.4802  -1.4087  -1.3581  -1.3424  -1.2713  -1.2418  -1.2087
    -1.0175  -0.9989  -0.9915  -0.9624  -0.8359  -0.8287  -0.7284  -0.7033
    -0.6728  -0.6395  -0.6306  -0.6234  -0.6096  -0.6004  -0.5715  -0.5390
    -0.5325  -0.5128  -0.5104  -0.4880  -0.4343  -0.3989  -0.3530  -0.3438
    -0.3337  -0.2991  -0.2160  -0.1900  -0.1807  -0.1407   0.2134   0.2300
     0.3366   0.3396   0.4005   0.4033   0.5703   0.5920   0.6170   0.6482
     0.6994   0.7505   0.7904   0.8384   0.8829   0.8944   1.0204   1.0630
     1.1137   1.1274   1.1438   1.1579   1.1729   1.1763   1.1832   1.2102
     1.2193   1.2509   1.4093   1.4099   1.4296   1.4456   1.4672   1.5028
     1.5147   1.5486   1.5493   1.5620   1.5837   1.5887   1.6188   1.6622
     1.6697   1.6784   1.7206   1.7416   1.7853   1.7874   1.8300   1.8305
     1.8676   1.8716   1.9065   1.9174   1.9353   1.9586   1.9592   1.9863
     1.9917   1.9981   2.0322   2.0334   2.0735   2.1095   2.1165   2.1369
     2.1941   2.2902   2.4047   2.4787   2.4796   2.4892   2.4898   2.6397
     3.0302   3.0342   3.0543   3.0610   3.5899   3.6130   3.6358   3.6616
     3.7816   3.7968   3.8359   3.8460   4.1745   4.2238   6.2703   6.8836
     6.9021   6.9314   6.9366   6.9527   7.1623   7.2117   7.7124   7.7272
     8.2209   8.2391   8.2856   8.7307   8.7330   8.8288   8.8525   8.8550
     8.8966   8.9238   9.0015   9.1254   9.1430   9.4077   9.4641   9.6186
     9.6702   9.6764   9.7122   9.7127   9.7678   9.7824   9.8213   9.8613
     9.9540   9.9759

          k =-0.5000-1.0472 0.0000 ( 68772 PWs)   bands (ev):

   -37.9421 -37.8697 -35.5755 -35.4865 -22.5549 -22.5493 -22.5254 -22.5248
   -22.5209 -22.3932 -22.2846 -22.1975 -18.6042 -18.5352 -18.2616 -18.1937
   -18.1410 -18.0546 -17.0080 -16.9223 -16.8317 -16.7490 -16.7273 -16.6243
   -14.6649 -14.6333 -14.6027 -14.5942 -14.4391 -14.3805 -14.3645 -14.3260
   -14.3197 -14.2965 -14.2470 -14.1778 -14.1699 -14.1495 -14.1420 -14.1157
   -14.0410 -14.0407 -14.0169 -13.9674 -13.8555 -13.8508 -13.8126 -13.8118
   -13.8113 -13.8105 -13.7745 -13.7341 -13.5802 -13.5800  -8.3402  -8.3349
    -8.2895  -8.2850  -8.2109  -8.1686  -8.0476  -8.0151  -8.0100  -7.9917
    -7.9873  -7.9518  -7.9444  -7.9174  -7.9120  -7.9101  -7.9064  -7.9047
    -7.8308  -7.7869  -7.6912  -7.6333  -7.5319  -7.4961  -3.7207  -3.6841
    -3.5007  -3.4731  -3.3101  -3.2517  -3.2098  -3.1329  -3.1138  -3.0533
    -2.9387  -2.9385  -2.9383  -2.9377  -2.2799  -2.2758  -2.1693  -2.1625
    -2.0729  -2.0233  -2.0212  -1.9779  -1.9723  -1.9464  -1.9312  -1.9161
    -1.8950  -1.8468  -1.8365  -1.8220  -1.7805  -1.7571  -1.7339  -1.6838
    -1.6518  -1.5870  -1.4210  -1.3792  -1.3759  -1.3167  -1.2724  -1.2417
    -1.0674  -1.0528  -1.0443  -1.0271  -0.9388  -0.9344  -0.7177  -0.7103
    -0.7070  -0.7028  -0.6904  -0.6773  -0.6576  -0.6416  -0.6321  -0.6140
    -0.5981  -0.5946  -0.5790  -0.5448  -0.4333  -0.4254  -0.3645  -0.3507
    -0.3199  -0.3127  -0.2390  -0.2191  -0.2085  -0.1639   0.2322   0.2381
     0.3664   0.3787   0.4323   0.4325   0.5976   0.6182   0.6274   0.6633
     0.6776   0.7432   0.8114   0.9218   0.9247   0.9889   1.1138   1.1592
     1.1783   1.2039   1.2048   1.2408   1.2847   1.2862   1.2956   1.3244
     1.3271   1.3302   1.4143   1.4372   1.4473   1.4512   1.4723   1.4995
     1.5031   1.5329   1.5643   1.5680   1.5726   1.5961   1.6059   1.6543
     1.7078   1.7091   1.7207   1.8284   1.8485   1.8773   1.9207   1.9661
     1.9754   1.9855   1.9914   2.0293   2.0490   2.0739   2.1010   2.1057
     2.1453   2.1472   2.2123   2.2225   2.2354   2.2582   2.3099   2.3108
     2.3112   2.3166   2.3592   2.6497   2.6580   2.6591   2.6672   2.6680
     2.8270   2.8331   2.8405   2.8501   3.6036   3.6289   3.6904   3.7214
     3.7899   3.8451   3.8708   3.9159   4.2272   4.3353   6.2082   6.8351
     6.8430   6.8447   6.8764   6.9013   7.0757   7.1380   7.6980   7.7406
     8.1733   8.3655   8.4771   8.5644   8.7832   9.0511   9.2157   9.2446
     9.2955   9.4002   9.5131   9.5214   9.5427   9.5593   9.5886   9.6294
     9.6719   9.6726   9.8478   9.9170   9.9221   9.9427   9.9429  10.0228
    10.0343  10.0466

     the Fermi energy is     2.8391 ev

!    total energy              =   -3711.76815937 Ry
     Harris-Foulkes estimate   =   -3711.76815940 Ry
     estimated scf accuracy    <          6.9E-09 Ry

     The total energy is the sum of the following terms:

     one-electron contribution =  -63975.33524111 Ry
     hartree contribution      =   32296.14944598 Ry
     xc contribution           =   -1264.09068548 Ry
     ewald contribution        =   29231.52122298 Ry
     smearing contrib. (-TS)   =      -0.01290173 Ry

     convergence has been achieved in  33 iterations

     negative rho (up, down):  9.204E-02 0.000E+00

     Forces acting on atoms (cartesian axes, Ry/au):

     atom    1 type  4   force =    -0.00000307    0.00000000   -0.00008679
     atom    2 type  4   force =     0.00000307    0.00000000   -0.00008679
     atom    3 type  3   force =    -0.00001980    0.00000000   -0.00012241
     atom    4 type  3   force =     0.00001980    0.00000000   -0.00012241
     atom    5 type  4   force =    -0.00000182    0.00000000   -0.00005565
     atom    6 type  4   force =     0.00000182    0.00000000   -0.00005565
     atom    7 type  1   force =     0.00000000    0.00000000   -0.00005862
     atom    8 type  1   force =     0.00000000    0.00000000   -0.00005562
     atom    9 type  3   force =     0.00001494    0.00000000   -0.00000770
     atom   10 type  3   force =    -0.00001494    0.00000000   -0.00000770
     atom   11 type  4   force =     0.00000000    0.00000000   -0.00000048
     atom   12 type  4   force =    -0.00001026    0.00000000   -0.00008418
     atom   13 type  4   force =     0.00001026    0.00000000   -0.00008418
     atom   14 type  4   force =     0.00000000    0.00000000   -0.00002530
     atom   15 type  2   force =     0.00000000    0.00000000   -0.00006774
     atom   16 type  5   force =     0.00000000    0.00000000   -0.00008254
     atom   17 type  4   force =     0.00001150    0.00000000    0.00000086
     atom   18 type  4   force =    -0.00001150    0.00000000    0.00000086
     atom   19 type  4   force =     0.00000000    0.00000000    0.00003365
     atom   20 type  4   force =     0.00000000    0.00000000    0.00009826
     atom   21 type  3   force =    -0.00004180    0.00000000   -0.00011710
     atom   22 type  3   force =     0.00004180    0.00000000   -0.00011710
     atom   23 type  1   force =     0.00000000    0.00000000   -0.00046713
     atom   24 type  1   force =     0.00000000    0.00000000   -0.00063649
     atom   25 type  4   force =    -0.00010688    0.00000000    0.00111933
     atom   26 type  4   force =     0.00010688    0.00000000    0.00111933
     atom   27 type  4   force =     0.00050857    0.00000000    0.00253679
     atom   28 type  4   force =    -0.00050857    0.00000000    0.00253679
     atom   29 type  3   force =    -0.00000172    0.00000000   -0.00040680
     atom   30 type  3   force =     0.00000172    0.00000000   -0.00040680
     atom   31 type  4   force =    -0.00200668    0.00000000    0.00382309
     atom   32 type  4   force =     0.00200668    0.00000000    0.00382309
     atom   33 type  1   force =     0.00000000    0.00000000    0.01114100
     atom   34 type  1   force =     0.00000000    0.00000000    0.01832067
     atom   35 type  3   force =    -0.00186827    0.00000000   -0.00090324
     atom   36 type  3   force =     0.00186827    0.00000000   -0.00090324
     atom   37 type  4   force =     0.00000000    0.00000000   -0.00949188
     atom   38 type  4   force =     0.00000000    0.00000000   -0.00367206
     atom   39 type  4   force =     0.00060313    0.00000000   -0.00449939
     atom   40 type  4   force =    -0.00060313    0.00000000   -0.00449939
     atom   41 type  5   force =     0.00000000    0.00000000   -0.01239516
     atom   42 type  2   force =     0.00000000    0.00000000   -0.01035581
     atom   43 type  4   force =     0.00000000    0.00000000    0.00132367
     atom   44 type  4   force =     0.00005910    0.00000000    0.00084263
     atom   45 type  4   force =    -0.00005910    0.00000000    0.00084263
     atom   46 type  4   force =     0.00000000    0.00000000    0.00118123
     atom   47 type  3   force =     0.00022208    0.00000000    0.00036588
     atom   48 type  3   force =    -0.00022208    0.00000000    0.00036588
     atom   49 type  1   force =     0.00000000    0.00000000   -0.00024053
     atom   50 type  1   force =     0.00000000    0.00000000   -0.00025234
     atom   51 type  4   force =     0.00001967    0.00000000    0.00031119
     atom   52 type  4   force =    -0.00001967    0.00000000    0.00031119
     atom   53 type  3   force =    -0.00002868    0.00000000   -0.00007329
     atom   54 type  3   force =     0.00002868    0.00000000   -0.00007329
     atom   55 type  4   force =    -0.00000259    0.00000000    0.00020839
     atom   56 type  4   force =     0.00000259    0.00000000    0.00020839

     Total force =     0.030557     Total SCF correction =     0.000241


     Computing stress (Cartesian axis) and pressure


     negative rho (up, down):  9.204E-02 0.000E+00
          total   stress  (Ry/bohr**3)                   (kbar)     P=       -3.10
  -0.00001995   0.00000000   0.00000000           -2.93        0.00        0.00
   0.00000000  -0.00001657   0.00000000            0.00       -2.44        0.00
   0.00000000   0.00000000  -0.00002675            0.00        0.00       -3.94

 
     init_run     :     24.50s CPU     25.44s WALL (       1 calls)
     electrons    :   1640.70s CPU   1713.70s WALL (       1 calls)
     forces       :      9.98s CPU     10.60s WALL (       1 calls)
     stress       :     95.74s CPU     97.44s WALL (       1 calls)

     Called by init_run:
     wfcinit      :     20.12s CPU     20.45s WALL (       1 calls)
     potinit      :      1.00s CPU      1.01s WALL (       1 calls)
     hinit0       :      1.69s CPU      1.73s WALL (       1 calls)

     Called by electrons:
     c_bands      :   1380.40s CPU   1415.65s WALL (      33 calls)
     sum_band     :    199.40s CPU    220.63s WALL (      33 calls)
     v_of_rho     :      3.81s CPU      3.87s WALL (      34 calls)
     newd         :     27.73s CPU     44.36s WALL (      34 calls)
     mix_rho      :     29.90s CPU     30.17s WALL (      33 calls)

     Called by c_bands:
     init_us_2    :      7.69s CPU      7.76s WALL (    1725 calls)
     cegterg      :   1319.24s CPU   1353.53s WALL (     825 calls)

     Called by sum_band:
     sum_band:bec :      0.88s CPU      0.89s WALL (     825 calls)
     addusdens    :     29.64s CPU     48.79s WALL (      33 calls)

     Called by *egterg:
     h_psi        :    629.21s CPU    642.19s WALL (    4271 calls)
     s_psi        :     92.66s CPU     93.26s WALL (    4271 calls)
     g_psi        :      1.36s CPU      1.38s WALL (    3421 calls)
     cdiaghg      :    329.52s CPU    330.78s WALL (    4246 calls)

     Called by h_psi:
     h_psi:calbec :    100.78s CPU    101.21s WALL (    4271 calls)
     vloc_psi     :    432.69s CPU    439.04s WALL (    4271 calls)
     add_vuspsi   :     93.16s CPU     93.61s WALL (    4271 calls)

     General routines
     calbec       :    162.24s CPU    162.89s WALL (    5221 calls)
     fft          :      3.48s CPU      3.50s WALL (     465 calls)
     ffts         :     17.15s CPU     17.30s WALL (   18655 calls)
     fftw         :    499.45s CPU    506.60s WALL ( 1183924 calls)
     interpolate  :      0.30s CPU      0.30s WALL (      34 calls)
 
     Parallel routines
     fft_scatt_xy :     54.87s CPU     55.69s WALL ( 1203044 calls)
     fft_scatt_yz :    333.19s CPU    337.89s WALL ( 1203044 calls)
 
     PWSCF        :  29m32.18s CPU  30m48.52s WALL

 
   This run was terminated on:  14:55:17  25May2021            

=------------------------------------------------------------------------------=
   JOB DONE.
=------------------------------------------------------------------------------=
[1621968918.121066] [holy7c04303:130025:0]          mpool.c:43   UCX  WARN  object 0x2fe8ac0 was not returned to mpool ucp_requests
[1621968918.128906] [holy7c04203:83519:0]          mpool.c:43   UCX  WARN  object 0x2bd5c00 was not returned to mpool ucp_requests
[1621968918.129074] [holy7c04210:221491:0]          mpool.c:43   UCX  WARN  object 0x2cd65c0 was not returned to mpool ucp_requests
[1621968918.131868] [holy7c04202:19978:0]          mpool.c:43   UCX  WARN  object 0x3863980 was not returned to mpool ucp_requests
[1621968918.131893] [holy7c04202:19978:0]          mpool.c:43   UCX  WARN  object 0x3863d00 was not returned to mpool ucp_requests
[1621968918.131008] [holy7c04110:215258:0]          mpool.c:43   UCX  WARN  object 0x2cc8900 was not returned to mpool ucp_requests
[1621968918.132817] [holy7c04208:90886:0]          mpool.c:43   UCX  WARN  object 0x2d87cc0 was not returned to mpool ucp_requests
[1621968918.132836] [holy7c04208:90886:0]          mpool.c:43   UCX  WARN  object 0x2d87e80 was not returned to mpool ucp_requests
[1621968918.135741] [holy7c04207:99273:0]          mpool.c:43   UCX  WARN  object 0x2d69a40 was not returned to mpool ucp_requests
[1621968918.136925] [holy7c04306:221944:0]          mpool.c:43   UCX  WARN  object 0x2c34d00 was not returned to mpool ucp_requests
[1621968918.132907] [holy7c04111:96403:0]          mpool.c:43   UCX  WARN  object 0x288ab00 was not returned to mpool ucp_requests
[1621968918.132922] [holy7c04111:96403:0]          mpool.c:43   UCX  WARN  object 0x288acc0 was not returned to mpool ucp_requests
[1621968918.154258] [holy7c04205:224174:0]          mpool.c:43   UCX  WARN  object 0x3f722c0 was not returned to mpool ucp_requests
[1621968918.154287] [holy7c04205:224174:0]          mpool.c:43   UCX  WARN  object 0x3f72640 was not returned to mpool ucp_requests
[1621968918.133365] [holy7c04304:261149:0]          mpool.c:43   UCX  WARN  object 0x346f740 was not returned to mpool ucp_requests
[1621968918.133390] [holy7c04304:261149:0]          mpool.c:43   UCX  WARN  object 0x346f900 was not returned to mpool ucp_requests
[1621968918.136378] [holy7c04207:99272:0]          mpool.c:43   UCX  WARN  object 0x44ee8c0 was not returned to mpool ucp_requests
[1621968918.137509] [holy7c04306:221943:0]          mpool.c:43   UCX  WARN  object 0x2e44180 was not returned to mpool ucp_requests
[1621968918.132310] [holy7c04108:201776:0]          mpool.c:43   UCX  WARN  object 0x2952c80 was not returned to mpool ucp_requests
